Title
82273
    1SAPS     N    1   3.343   1.720  11.335  0.2356 -0.6986 -0.0003
    1SAPS   HN1    2   3.447   1.717  11.337  0.2330 -1.7429  2.5894
    1SAPS   HN2    3   3.302   1.810  11.366  0.1428 -0.8725  0.3913
    1SAPS   HN3    4   3.314   1.659  11.415  0.0144  1.6356  1.7985
    1SAPS   C12    5   3.280   1.675  11.206 -0.1899  1.0542 -0.1292
    1SAPS  H12A    6   3.281   1.567  11.208  1.0879  0.9905  3.3565
    1SAPS   C13    7   3.134   1.725  11.183 -0.4712  0.0364 -0.1015
    1SAPS  O13A    8   3.064   1.779  11.269 -0.2253 -0.6581 -0.2075
    1SAPS  O13B    9   3.079   1.689  11.070 -0.1474  0.1498 -0.1636
    1SAPS   C11   10   3.369   1.732  11.088  0.2703 -0.5629 -0.6142
    1SAPS  H11A   11   3.331   1.700  10.988 -0.5773 -0.1984 -0.4238
    1SAPS  H11B   12   3.472   1.694  11.101  0.0587 -1.2662 -0.9471
    1SAPS     P   13   3.445   1.970  11.005 -0.4753  0.1629  0.1508
    1SAPS   O13   14   3.378   2.101  11.006  0.2566  0.0022  0.2650
    1SAPS   O14   15   3.589   1.971  11.049  0.0498  0.6325  0.7332
    1SAPS   O12   16   3.364   1.868  11.094 -0.3273  0.1933  0.0137
    1SAPS   O11   17   3.454   1.926  10.858  0.3528 -0.4726 -0.7167
    1SAPS    C1   18   3.339   1.898  10.770 -0.1712  0.1267 -0.0918
    1SAPS    HA   19   3.247   1.870  10.826  0.5879  0.1900  1.2138
    1SAPS    HB   20   3.316   1.987  10.708 -1.4323  0.4300  0.7685
    1SAPS    C2   21   3.375   1.784  10.681  0.6087 -0.6872 -0.1418
    1SAPS    HS   22   3.405   1.696  10.742  0.8856 -0.5232 -0.0376
    1SAPS   O21   23   3.478   1.828  10.590 -0.0211 -0.6217 -0.0825
    1SAPS   C21   24   3.562   1.732  10.549 -0.2176 -0.0830 -0.0768
    1SAPS   O22   25   3.567   1.617  10.591 -0.5652  0.0242  0.6164
    1SAPS   C22   26   3.653   1.787  10.439  0.1459 -0.3094  1.0876
    1SAPS   H2R   27   3.651   1.897  10.426  1.1003 -0.5438 -1.5592
    1SAPS   H2S   28   3.756   1.771  10.479  1.7141  2.2118 -1.5640
    1SAPS    C3   29   3.244   1.747  10.602 -0.2015 -0.0766 -0.3112
    1SAPS    HX   30   3.167   1.727  10.680  0.0598 -1.0854 -0.3050
    1SAPS    HY   31   3.256   1.647  10.555 -1.2189 -1.5793  2.3789
    1SAPS   O31   32   3.189   1.852  10.511 -0.7419  0.1591  0.2343
    1SAPS   C31   33   3.248   1.843  10.395 -0.2040  0.7163 -0.1382
    1SAPS   O32   34   3.326   1.756  10.357  0.3014  0.0906 -0.9795
    1SAPS   C32   35   3.199   1.961  10.311 -0.7595 -0.2916 -0.1984
    1SAPS   H2X   36   3.211   2.051  10.374 -1.2098 -0.3211 -0.0597
    1SAPS   H2Y   37   3.090   1.941  10.294 -0.5227 -0.7549 -1.2658
    1SAPS   C23   38   3.663   1.711  10.306  0.8592  0.7919 -0.0818
    1SAPS   H3R   39   3.590   1.743  10.229 -0.3918 -1.5921  0.0214
    1SAPS   H3S   40   3.640   1.605  10.329 -0.5258  1.0510 -0.1982
    1SAPS   C24   41   3.802   1.712  10.246 -0.0512 -0.4232  0.5124
    1SAPS   H4R   42   3.789   1.630  10.172 -0.9340 -0.3549  0.5826
    1SAPS   H4S   43   3.878   1.666  10.313  0.3534  0.5395  0.7318
    1SAPS   C25   44   3.838   1.842  10.191  0.1657 -0.4971  0.3131
    1SAPS   H5R   45   3.889   1.914  10.256 -0.1426 -0.4635  0.5170
    1SAPS   C26   46   3.814   1.893  10.066  0.4821 -0.3198  0.0779
    1SAPS   H6R   47   3.867   1.988  10.049  0.7262  0.1618  2.9155
    1SAPS   C27   48   3.746   1.824   9.950 -0.3590 -0.7454  0.2818
    1SAPS   H7R   49   3.713   1.720   9.971 -1.1550 -0.4168  0.6584
    1SAPS   H7S   50   3.812   1.805   9.861 -0.2938 -3.1924  0.7796
    1SAPS   C28   51   3.622   1.896   9.909 -0.5930  0.3051 -0.0178
    1SAPS   H8R   52   3.543   1.910   9.983 -0.1268  3.3082  0.0212
    1SAPS   C29   53   3.581   1.935   9.785 -1.5018  0.8927  1.5877
    1SAPS   H9R   54   3.500   2.009   9.781  0.7075  3.6096  2.7239
    1SAPS  C210   55   3.674   1.916   9.661 -0.1825  0.1410 -0.0796
    1SAPS  H10R   56   3.720   1.816   9.645 -0.3274 -0.0778  0.8360
    1SAPS  H10S   57   3.763   1.981   9.669  0.7388 -1.3418  3.1661
    1SAPS  C211   58   3.586   1.948   9.540  0.3962 -0.2737  0.2240
    1SAPS  H11R   59   3.483   1.971   9.570  1.1112 -0.6228  3.2104
    1SAPS  C212   60   3.630   1.955   9.414  0.0246 -0.0896 -0.2036
    1SAPS  H12R   61   3.564   1.965   9.326  0.4997  0.5717 -0.4980
    1SAPS  C213   62   3.777   1.933   9.378 -0.4997 -0.0377  0.1233
    1SAPS  H13R   63   3.805   1.830   9.348 -0.5826  0.5524 -2.2226
    1SAPS  H13S   64   3.840   1.965   9.464  0.3024  0.1298 -0.5027
    1SAPS  C214   65   3.803   2.025   9.258 -0.1629 -0.0649 -0.8362
    1SAPS  H14R   66   3.793   2.132   9.281 -1.7545  0.1880 -2.4725
    1SAPS  C215   67   3.845   1.991   9.137 -0.6820 -0.0465  0.0937
    1SAPS  H15R   68   3.897   2.073   9.084  1.2511 -1.4889 -0.3399
    1SAPS  C216   69   3.865   1.851   9.080  0.4214 -0.6186 -0.6818
    1SAPS  H16R   70   3.765   1.817   9.045  0.6464 -1.3277 -0.6419
    1SAPS  H16S   71   3.893   1.785   9.166 -1.5644  0.0268  0.5272
    1SAPS  C217   72   3.957   1.846   8.963 -0.0387  0.5714  0.6032
    1SAPS  H17R   73   3.976   1.739   8.942 -0.5513  1.0711 -3.1183
    1SAPS  H17S   74   4.050   1.902   8.987 -0.6390  2.4104 -1.0335
    1SAPS  C218   75   3.902   1.907   8.833  0.1077 -0.4522  0.2150
    1SAPS  H18R   76   3.866   2.010   8.853 -1.9598 -1.0591 -0.0889
    1SAPS  H18S   77   3.807   1.850   8.821 -0.2958  0.5434 -1.6522
    1SAPS  C219   78   3.981   1.876   8.705  0.4666 -0.1032 -0.0586
    1SAPS  H19R   79   3.998   1.769   8.682 -0.5479 -0.1571 -0.6250
    1SAPS  H19S   80   4.076   1.930   8.723  0.0535  1.4812 -2.2432
    1SAPS  C220   81   3.907   1.916   8.574 -0.6056 -0.0770 -0.0613
    1SAPS  H20R   82   3.816   1.855   8.556 -0.6438 -0.0367 -0.0039
    1SAPS  H20S   83   3.977   1.900   8.489 -0.6203 -1.9709  0.2345
    1SAPS  H20T   84   3.876   2.023   8.572 -0.5373 -0.0536  0.1382
    1SAPS   C33   85   3.262   1.972  10.173 -0.4510 -0.2571  0.2634
    1SAPS   H3X   86   3.243   1.882  10.110 -0.9494  1.4973 -2.2642
    1SAPS   H3Y   87   3.373   1.967  10.183 -0.0664  0.0012 -2.7356
    1SAPS   C34   88   3.211   2.101  10.106  0.6419  0.1105  0.1199
    1SAPS   H4X   89   3.267   2.190  10.141  1.5667 -0.4273  0.0142
    1SAPS   H4Y   90   3.103   2.107  10.132  1.1029  0.9688  2.0236
    1SAPS   C35   91   3.229   2.100   9.953 -0.3852  0.8862  0.6147
    1SAPS   H5X   92   3.339   2.086   9.940 -0.5095  0.6503 -0.2330
    1SAPS   H5Y   93   3.196   2.195   9.905  1.2377  0.0289 -2.5115
    1SAPS   C36   94   3.164   1.979   9.875  0.1537 -0.4369 -0.3132
    1SAPS   H6X   95   3.057   1.964   9.902  0.7733 -1.7320  1.6629
    1SAPS   H6Y   96   3.226   1.892   9.906  1.3069  0.6990  0.7204
    1SAPS   C37   97   3.168   1.992   9.723  0.0980  1.1230 -0.8142
    1SAPS   H7X   98   3.140   1.892   9.683 -1.8487  0.5618  1.7033
    1SAPS   H7Y   99   3.276   2.008   9.706  0.4839  0.7498  1.1219
    1SAPS   C38  100   3.089   2.105   9.664 -0.2688 -0.1243  0.8551
    1SAPS   H8X  101   3.140   2.199   9.692 -1.1012  0.7707 -0.5018
    1SAPS   H8Y  102   2.980   2.105   9.687 -0.3375 -3.0149  0.9442
    1SAPS   C39  103   3.101   2.111   9.509 -0.0323 -0.1611 -0.8392
    1SAPS   H9X  104   3.057   2.020   9.465 -1.5665 -0.1321  0.5487
    1SAPS   H9Y  105   3.208   2.082   9.496 -0.0908 -0.4537 -0.6827
    1SAPS  C310  106   3.059   2.243   9.444  0.3460 -0.8715  0.0866
    1SAPS  H10X  107   3.111   2.329   9.493  1.6170 -1.2630 -0.5221
    1SAPS  H10Y  108   2.949   2.258   9.442  0.1408 -2.2942 -2.5331
    1SAPS  C311  109   3.116   2.257   9.296 -0.5280  0.1041  0.3482
    1SAPS  H11X  110   3.227   2.255   9.304 -0.5545  1.0517  1.1997
    1SAPS  H11Y  111   3.091   2.361   9.265 -0.1053 -0.2530 -1.3267
    1SAPS  C312  112   3.086   2.149   9.191 -0.1476 -0.9093 -0.3424
    1SAPS  H12X  113   2.985   2.164   9.148  0.3699 -1.2128 -1.7287
    1SAPS  H12Y  114   3.100   2.049   9.236 -1.5555 -0.5646  0.9065
    1SAPS  C313  115   3.178   2.157   9.071  0.3318  0.8335  0.1358
    1SAPS  H13X  116   3.234   2.253   9.065 -0.2908  1.1211 -1.5315
    1SAPS  H13Y  117   3.129   2.139   8.973  1.4037 -1.2485 -0.0822
    1SAPS  C314  118   3.274   2.030   9.069 -0.8817  0.7247  0.2541
    1SAPS  H14X  119   3.227   1.932   9.092  2.0901 -0.7054  0.6901
    1SAPS  H14Y  120   3.346   2.033   9.154 -0.1578 -3.4142  0.0054
    1SAPS  C315  121   3.360   2.010   8.945 -0.0094  0.2587  0.0013
    1SAPS  H15X  122   3.295   1.991   8.856  0.5319 -0.1507 -0.3110
    1SAPS  H15Y  123   3.429   1.924   8.947 -0.4353 -0.0671  1.7210
    1SAPS  C316  124   3.450   2.132   8.915 -0.5919  0.7057  0.5760
    1SAPS  H16X  125   3.525   2.129   8.997 -1.3786 -3.1352  1.3406
    1SAPS  H16Y  126   3.403   2.233   8.913  1.1973  1.5801  0.8889
    1SAPS  C317  127   3.531   2.104   8.781  0.1552 -0.0558  0.0227
    1SAPS  H17X  128   3.454   2.109   8.701 -0.7439 -0.2671  0.8550
    1SAPS  H17Y  129   3.564   1.999   8.792  1.9043  0.4082 -0.4404
    1SAPS  C318  130   3.644   2.201   8.748 -0.2737 -0.5852 -0.3642
    1SAPS  H18X  131   3.721   2.205   8.828 -1.4750  0.0188  0.7913
    1SAPS  H18Y  132   3.613   2.307   8.736  2.8039  0.5610  0.6732
    1SAPS  H18Z  133   3.683   2.171   8.648  3.0050 -0.2004  0.6641
    2SAPS     N  134   1.776   1.696  10.867  0.1566 -0.4908 -0.1675
    2SAPS   HN1  135   1.765   1.747  10.777  2.9007  0.9904  0.2099
    2SAPS   HN2  136   1.875   1.720  10.887 -0.1098  1.7197 -1.1700
    2SAPS   HN3  137   1.774   1.594  10.849 -0.9661 -0.3240 -1.1243
    2SAPS   C12  138   1.685   1.735  10.980  0.3994 -0.1209  0.9036
    2SAPS  H12A  139   1.710   1.666  11.059 -0.5040 -1.3979  0.1199
    2SAPS   C13  140   1.715   1.865  11.043 -0.7307 -0.6147  0.4016
    2SAPS  O13A  141   1.787   1.947  10.980 -0.0106 -0.1156 -0.1070
    2SAPS  O13B  142   1.635   1.900  11.131  0.4065 -0.0084 -0.0261
    2SAPS   C11  143   1.538   1.721  10.931  0.4867 -0.8764 -0.2840
    2SAPS  H11A  144   1.512   1.797  10.855  1.7766 -1.1562 -1.0209
    2SAPS  H11B  145   1.462   1.740  11.011  0.4370 -1.1571 -0.2629
    2SAPS     P  146   1.390   1.562  10.790  0.4248 -0.3194 -0.1823
    2SAPS   O13  147   1.305   1.463  10.866 -0.0549  0.4732  0.9259
    2SAPS   O14  148   1.324   1.689  10.751  0.1575 -0.1502  0.3589
    2SAPS   O12  149   1.516   1.593  10.878  0.2291  1.1965  0.3461
    2SAPS   O11  150   1.452   1.487  10.665  0.0136  0.0210  0.4220
    2SAPS    C1  151   1.579   1.521  10.606 -0.4339 -0.1555 -0.3392
    2SAPS    HA  152   1.598   1.630  10.610  0.1273 -0.2926  1.7152
    2SAPS    HB  153   1.651   1.455  10.659 -1.2898 -0.4041  0.5494
    2SAPS    C2  154   1.581   1.479  10.455  1.0230  0.8056  0.6709
    2SAPS    HS  155   1.516   1.551  10.400  1.9551  0.5593 -0.8267
    2SAPS   O21  156   1.546   1.340  10.450 -0.5662  0.5163  0.5590
    2SAPS   C21  157   1.485   1.302  10.347  0.7878 -0.2322 -0.3274
    2SAPS   O22  158   1.436   1.370  10.254  0.8985 -0.0557  0.5841
    2SAPS   C22  159   1.468   1.151  10.353  0.1618 -0.3404 -0.3746
    2SAPS   H2R  160   1.533   1.098  10.426  1.2431  0.2934 -0.8505
    2SAPS   H2S  161   1.360   1.132  10.370  0.2672 -1.6313 -1.0747
    2SAPS    C3  162   1.716   1.512  10.397 -0.2014 -0.4226  0.3903
    2SAPS    HX  163   1.783   1.424  10.412  0.2845 -0.4769 -1.8364
    2SAPS    HY  164   1.767   1.602  10.438 -0.2345 -0.9824  1.7163
    2SAPS   O31  165   1.697   1.533  10.255  0.4197  0.0248 -0.6683
    2SAPS   C31  166   1.789   1.485  10.174 -0.0034  0.4366  0.1119
    2SAPS   O32  167   1.895   1.436  10.204  0.0034 -0.5683 -0.3458
    2SAPS   C32  168   1.750   1.528  10.034 -0.7708  0.4628 -0.8117
    2SAPS   H2X  169   1.710   1.631  10.048 -0.8099  0.0143  3.6125
    2SAPS   H2Y  170   1.677   1.458   9.988 -1.0499 -0.1878  0.5691
    2SAPS   C23  171   1.490   1.082  10.222  0.8394  0.8581 -0.3452
    2SAPS   H3R  172   1.411   1.123  10.156 -0.2893 -0.1324  0.3425
    2SAPS   H3S  173   1.468   0.974  10.230  1.8903  0.6866  0.5162
    2SAPS   C24  174   1.629   1.107  10.160  0.5622  0.4265  0.1577
    2SAPS   H4R  175   1.706   1.092  10.239  0.1839 -0.2481  0.3997
    2SAPS   H4S  176   1.633   1.216  10.137  0.8469  0.6534  1.2121
    2SAPS   C25  177   1.661   1.015  10.041  0.4732 -0.4399 -0.6147
    2SAPS   H5R  178   1.671   0.910  10.073  1.1295 -0.2538 -0.2112
    2SAPS   C26  179   1.657   1.038   9.907 -0.6097 -0.2566  1.2600
    2SAPS   H6R  180   1.688   0.964   9.832  0.9435  1.9770 -0.4627
    2SAPS   C27  181   1.624   1.172   9.851  0.1790 -0.5475 -0.1731
    2SAPS   H7R  182   1.694   1.243   9.900 -0.9736  0.4384  0.0852
    2SAPS   H7S  183   1.520   1.190   9.887  0.3286  0.9962 -0.4222
    2SAPS   C28  184   1.641   1.192   9.703  0.0251  0.0520 -0.2076
    2SAPS   H8R  185   1.721   1.126   9.666 -1.0819 -1.8772  0.6173
    2SAPS   C29  186   1.556   1.247   9.615  0.4431  0.2400  0.0785
    2SAPS   H9R  187   1.584   1.246   9.508 -0.1884 -1.3670 -0.0879
    2SAPS  C210  188   1.417   1.300   9.646  0.1750  0.4640 -0.1612
    2SAPS  H10R  189   1.390   1.304   9.754  2.6506  2.9096  0.4789
    2SAPS  H10S  190   1.344   1.239   9.588 -1.3630  1.4417  0.6530
    2SAPS  C211  191   1.408   1.442   9.599  0.0459  0.5644  0.1649
    2SAPS  H11R  192   1.466   1.516   9.655 -0.4605  1.3371 -0.3091
    2SAPS  C212  193   1.322   1.506   9.511 -0.6320  0.3481  0.2894
    2SAPS  H12R  194   1.330   1.613   9.489  1.2506  0.1167 -0.3523
    2SAPS  C213  195   1.216   1.436   9.425 -0.0502  0.1515 -1.2714
    2SAPS  H13R  196   1.144   1.517   9.400 -0.1501  0.4256 -0.1488
    2SAPS  H13S  197   1.155   1.377   9.497  0.8289  0.0528 -0.5934
    2SAPS  C214  198   1.254   1.355   9.306  0.3683 -0.5414  0.5554
    2SAPS  H14R  199   1.294   1.258   9.338  1.7352  0.4656  2.0481
    2SAPS  C215  200   1.260   1.390   9.172 -0.5167  0.6233 -0.8576
    2SAPS  H15R  201   1.288   1.322   9.091 -0.2164  2.9266 -2.8027
    2SAPS  C216  202   1.212   1.518   9.123  0.5803  0.0368 -0.9160
    2SAPS  H16R  203   1.212   1.607   9.190 -0.8921  0.5341 -1.5324
    2SAPS  H16S  204   1.103   1.498   9.121 -0.0501  2.4944  1.9944
    2SAPS  C217  205   1.252   1.553   8.984 -0.1094 -0.4118 -0.1737
    2SAPS  H17R  206   1.210   1.650   8.952  1.1693  0.3228  0.2599
    2SAPS  H17S  207   1.220   1.477   8.910  0.0423 -1.6161  0.9513
    2SAPS  C218  208   1.407   1.575   8.980  0.1269 -0.5682 -0.3479
    2SAPS  H18R  209   1.450   1.474   9.001  0.3450 -0.2773  0.6802
    2SAPS  H18S  210   1.445   1.642   9.060 -1.7857 -0.2985  0.3897
    2SAPS  C219  211   1.447   1.642   8.851 -0.1170 -0.7280  0.0321
    2SAPS  H19R  212   1.383   1.731   8.835 -1.2268 -1.9173 -2.8677
    2SAPS  H19S  213   1.422   1.565   8.774 -0.3330 -1.6235  0.9747
    2SAPS  C220  214   1.593   1.675   8.827  0.0985  0.1857  0.4777
    2SAPS  H20R  215   1.590   1.730   8.731 -0.7229 -0.8650 -0.1151
    2SAPS  H20S  216   1.645   1.580   8.807  0.3007 -0.0487  1.9572
    2SAPS  H20T  217   1.635   1.733   8.912 -0.1187 -0.8844  1.3351
    2SAPS   C33  218   1.887   1.516   9.951 -0.2145 -0.4769  0.3975
    2SAPS   H3X  219   1.931   1.414   9.945  1.5597  0.3114 -0.7881
    2SAPS   H3Y  220   1.972   1.566  10.002  2.0739 -4.5985  0.9933
    2SAPS   C34  221   1.869   1.594   9.818 -0.1194 -0.3335 -0.3926
    2SAPS   H4X  222   1.957   1.630   9.760 -0.3107 -0.8065 -0.9862
    2SAPS   H4Y  223   1.805   1.682   9.840  1.0373  0.3709  0.2191
    2SAPS   C35  224   1.790   1.514   9.708  0.3937  0.6592  0.0097
    2SAPS   H5X  225   1.684   1.489   9.728 -0.0800  2.5926  0.1066
    2SAPS   H5Y  226   1.847   1.420   9.695  2.0875  1.2672  2.2594
    2SAPS   C36  227   1.798   1.604   9.587 -0.1032  0.0453 -0.1115
    2SAPS   H6X  228   1.906   1.626   9.572  0.4087 -1.4215  1.1812
    2SAPS   H6Y  229   1.743   1.698   9.611 -1.9456 -0.5496 -1.6699
    2SAPS   C37  230   1.738   1.541   9.463  0.0248  0.2130 -0.4143
    2SAPS   H7X  231   1.631   1.517   9.482  0.9327 -2.6369  1.8261
    2SAPS   H7Y  232   1.796   1.447   9.449 -1.2859 -0.8241  0.7866
    2SAPS   C38  233   1.738   1.624   9.335  0.0318 -0.3673  0.6707
    2SAPS   H8X  234   1.674   1.713   9.350  1.8639  1.0190  0.6052
    2SAPS   H8Y  235   1.681   1.560   9.263  1.1246  0.0156 -0.5807
    2SAPS   C39  236   1.877   1.664   9.276  0.4911 -0.4875 -0.1479
    2SAPS   H9X  237   1.939   1.574   9.261 -0.5305 -0.9314 -2.0570
    2SAPS   H9Y  238   1.932   1.734   9.342 -1.0334  0.2437  0.3990
    2SAPS  C310  239   1.854   1.733   9.139 -0.0179  0.4646 -0.2966
    2SAPS  H10X  240   1.817   1.837   9.150 -0.9400  0.0734  0.4240
    2SAPS  H10Y  241   1.783   1.670   9.082 -2.0084  3.2477 -1.1029
    2SAPS  C311  242   1.992   1.745   9.059  0.4820  0.3792  0.2181
    2SAPS  H11X  243   2.032   1.642   9.060  1.5326  0.6662 -2.6372
    2SAPS  H11Y  244   2.066   1.811   9.109  2.8819 -1.2099 -1.0476
    2SAPS  C312  245   1.977   1.797   8.911  0.1032  0.1223 -0.2478
    2SAPS  H12X  246   1.893   1.744   8.862  0.0254  0.6859 -0.7393
    2SAPS  H12Y  247   2.070   1.772   8.856  0.7969 -0.8884  1.3214
    2SAPS  C313  248   1.966   1.948   8.887  0.1453  0.5920  0.0698
    2SAPS  H13X  249   2.068   1.987   8.907  0.1202  1.2269 -0.9567
    2SAPS  H13Y  250   1.894   1.992   8.958  1.5007  1.3164  1.0255
    2SAPS  C314  251   1.916   1.987   8.747 -0.2824 -0.7909  0.7320
    2SAPS  H14X  252   1.807   1.977   8.726  0.1700 -2.4669 -1.0291
    2SAPS  H14Y  253   1.955   1.926   8.663  2.2998  2.0852 -0.3474
    2SAPS  C315  254   1.946   2.132   8.712 -0.2658  0.4304  0.3860
    2SAPS  H15X  255   1.937   2.157   8.604  1.5747  0.4701  0.2142
    2SAPS  H15Y  256   2.051   2.156   8.740 -0.4116 -0.5014  1.8565
    2SAPS  C316  257   1.851   2.225   8.788 -0.3625 -0.2786 -0.3311
    2SAPS  H16X  258   1.841   2.178   8.888  2.2064 -0.2912 -0.0118
    2SAPS  H16Y  259   1.750   2.215   8.743 -0.8630 -1.1539  0.9402
    2SAPS  C317  260   1.895   2.373   8.786 -0.0451 -0.1245  0.3929
    2SAPS  H17X  261   1.903   2.400   8.679 -0.0420  0.2369  0.4799
    2SAPS  H17Y  262   1.993   2.371   8.839  0.4738 -1.9408 -0.5577
    2SAPS  C318  263   1.793   2.471   8.854 -0.4053  0.2254 -0.1381
    2SAPS  H18X  264   1.828   2.576   8.860 -0.5809  0.2168  3.3215
    2SAPS  H18Y  265   1.799   2.443   8.962  1.2583  0.3143 -0.1832
    2SAPS  H18Z  266   1.689   2.472   8.815 -0.7900  3.6996  0.7025
    3SAPS     N  267   3.342   4.426  10.994 -0.3327 -0.6124  0.6326
    3SAPS   HN1  268   3.399   4.505  10.957 -0.5519 -0.9641 -0.4852
    3SAPS   HN2  269   3.359   4.394  11.091 -1.0287 -2.0931  0.3026
    3SAPS   HN3  270   3.359   4.343  10.934 -0.4306  0.4373 -0.9119
    3SAPS   C12  271   3.200   4.467  10.989 -0.0205 -0.0392  0.2568
    3SAPS  H12A  272   3.143   4.376  10.986  0.1382 -0.1054 -1.4325
    3SAPS   C13  273   3.140   4.549  11.104  0.3873  0.0027 -0.2729
    3SAPS  O13A  274   3.217   4.584  11.197 -0.3667  0.7715 -0.5966
    3SAPS  O13B  275   3.018   4.551  11.120  0.1488 -0.1616  0.4312
    3SAPS   C11  276   3.170   4.547  10.860  0.3505 -0.3010  0.9410
    3SAPS  H11A  277   3.059   4.549  10.852  0.3224  3.2543  0.8525
    3SAPS  H11B  278   3.198   4.480  10.775 -1.1724  0.9873 -0.6550
    3SAPS     P  279   3.342   4.714  10.774 -0.3853 -0.1447  0.2923
    3SAPS   O13  280   3.382   4.851  10.784 -0.5194 -0.0773 -0.7416
    3SAPS   O14  281   3.454   4.625  10.823 -0.1900 -0.1795 -0.2535
    3SAPS   O12  282   3.218   4.680  10.854  0.8197 -0.0654 -0.0828
    3SAPS   O11  283   3.294   4.676  10.624 -0.1192  0.2808 -0.5787
    3SAPS    C1  284   3.178   4.729  10.570 -0.6155  0.3346  0.0989
    3SAPS    HA  285   3.108   4.753  10.653  1.4003 -2.1155  2.7136
    3SAPS    HB  286   3.199   4.823  10.515  2.1001 -0.5127 -0.4785
    3SAPS    C2  287   3.105   4.623  10.485 -0.2737  0.3372  0.4124
    3SAPS    HS  288   3.087   4.536  10.552 -1.6994  0.8869  0.7680
    3SAPS   O21  289   3.184   4.590  10.369  0.1839  0.4837  0.2543
    3SAPS   C21  290   3.161   4.471  10.316  0.5182  0.1946  0.5887
    3SAPS   O22  291   3.091   4.379  10.364 -0.4840  0.3459 -0.1710
    3SAPS   C22  292   3.238   4.474  10.184  0.5090  0.5713  0.5694
    3SAPS   H2R  293   3.220   4.563  10.120  0.2475  0.6030  0.6842
    3SAPS   H2S  294   3.348   4.468  10.194  0.6994 -3.6374 -1.6458
    3SAPS    C3  295   2.959   4.675  10.444 -0.3218 -1.0672  0.0398
    3SAPS    HX  296   2.898   4.685  10.536 -0.6092  0.1262 -0.2553
    3SAPS    HY  297   2.913   4.597  10.380 -0.6979 -2.4030  1.8798
    3SAPS   O31  298   2.962   4.805  10.393 -0.2131 -0.0982 -0.2554
    3SAPS   C31  299   3.002   4.818  10.268  0.0640  0.2429  0.3974
    3SAPS   O32  300   3.029   4.724  10.194 -0.6644 -0.1497  0.5112
    3SAPS   C32  301   3.000   4.967  10.232  0.1002  0.1513 -0.2920
    3SAPS   H2X  302   2.900   5.013  10.248  1.0748  3.6594 -3.1209
    3SAPS   H2Y  303   3.025   4.968  10.124  1.7640 -0.6086  0.0510
    3SAPS   C23  304   3.192   4.349  10.097  0.2207  0.0930 -0.3062
    3SAPS   H3R  305   3.089   4.369  10.059  0.3480 -0.6010 -1.0460
    3SAPS   H3S  306   3.179   4.258  10.159 -0.9997  0.3958 -0.0914
    3SAPS   C24  307   3.284   4.338   9.972  0.6168 -0.4246 -0.1633
    3SAPS   H4R  308   3.390   4.341  10.004  0.9450 -0.1173 -1.2343
    3SAPS   H4S  309   3.262   4.431   9.915 -1.3450  1.1771  2.9508
    3SAPS   C25  310   3.256   4.208   9.900 -0.6759 -0.6661  0.4512
    3SAPS   H5R  311   3.246   4.122   9.968 -0.8575  0.3496  1.7658
    3SAPS   C26  312   3.233   4.197   9.766 -0.2960 -0.5863  0.0951
    3SAPS   H6R  313   3.207   4.096   9.729 -0.0958  0.1265 -2.1251
    3SAPS   C27  314   3.220   4.307   9.656 -0.1385  0.2756  0.0315
    3SAPS   H7R  315   3.231   4.250   9.561 -2.9858 -2.0769  0.9670
    3SAPS   H7S  316   3.293   4.390   9.673  0.3748 -0.0788 -0.4000
    3SAPS   C28  317   3.088   4.379   9.665 -0.6223 -0.0981  0.0308
    3SAPS   H8R  318   3.061   4.448   9.746 -1.1702 -1.2571  0.8580
    3SAPS   C29  319   2.992   4.373   9.569  0.6543  0.0244 -0.5489
    3SAPS   H9R  320   2.897   4.427   9.577 -0.1751 -1.1239 -2.0526
    3SAPS  C210  321   3.013   4.293   9.438 -0.5264  0.1600  0.1610
    3SAPS  H10R  322   3.040   4.187   9.458  3.1958  1.4019  2.8751
    3SAPS  H10S  323   3.108   4.325   9.390 -1.0096  0.1712 -0.8056
    3SAPS  C211  324   2.897   4.304   9.340 -0.2500 -1.1130 -0.4474
    3SAPS  H11R  325   2.802   4.268   9.382  1.3472 -2.3956  2.4470
    3SAPS  C212  326   2.905   4.360   9.220 -0.0970  0.5667  0.4471
    3SAPS  H12R  327   2.810   4.377   9.166 -1.3976 -1.2415  2.0345
    3SAPS  C213  328   3.032   4.422   9.163  0.8565 -0.5377  0.0989
    3SAPS  H13R  329   3.111   4.346   9.143  3.0421  1.5904  0.2266
    3SAPS  H13S  330   3.078   4.489   9.239 -2.2967  1.3238  0.5413
    3SAPS  C214  331   3.008   4.515   9.041 -0.0876 -0.2673 -0.7696
    3SAPS  H14R  332   3.045   4.618   9.055  3.3710 -1.4234 -0.4624
    3SAPS  C215  333   2.969   4.477   8.927  0.4940  0.6863  0.0219
    3SAPS  H15R  334   2.949   4.550   8.846 -1.2214 -0.6146 -0.8080
    3SAPS  C216  335   2.933   4.334   8.896  0.2379 -0.0121 -0.4976
    3SAPS  H16R  336   2.979   4.263   8.967  1.6624 -1.1646 -2.4649
    3SAPS  H16S  337   2.970   4.310   8.794 -1.6510  1.4571 -1.6061
    3SAPS  C217  338   2.782   4.300   8.893 -0.1524  0.7826 -0.2336
    3SAPS  H17R  339   2.711   4.380   8.864  0.6633  0.7089 -2.6320
    3SAPS  H17S  340   2.750   4.249   8.987 -0.8740 -4.8119 -3.0958
    3SAPS  C218  341   2.749   4.186   8.795 -0.1272 -0.0543 -0.1906
    3SAPS  H18R  342   2.813   4.097   8.811  1.2095  1.1756  1.7894
    3SAPS  H18S  343   2.769   4.219   8.691  1.6289 -0.4519 -0.0079
    3SAPS  C219  344   2.605   4.138   8.804 -0.3925 -0.2375  0.2311
    3SAPS  H19R  345   2.578   4.098   8.904  1.0064 -2.6212 -0.2544
    3SAPS  H19S  346   2.579   4.059   8.730 -2.7073  1.6033 -1.0534
    3SAPS  C220  347   2.507   4.247   8.781 -0.3450  0.1961 -0.2425
    3SAPS  H20R  348   2.422   4.206   8.722 -1.0811  0.7220  0.4346
    3SAPS  H20S  349   2.552   4.336   8.731 -2.5273  3.2401  2.7719
    3SAPS  H20T  350   2.472   4.284   8.879 -0.7158  0.9630 -0.6567
    3SAPS   C33  351   3.115   5.037  10.318  0.0821 -0.7908  0.6264
    3SAPS   H3X  352   3.208   4.978  10.303  0.3805 -0.2453  0.3230
    3SAPS   H3Y  353   3.087   5.049  10.425  2.2019  1.7202  1.0019
    3SAPS   C34  354   3.151   5.183  10.270 -0.9415 -0.1024 -0.6290
    3SAPS   H4X  355   3.183   5.225  10.368 -0.1208 -1.2871 -0.3677
    3SAPS   H4Y  356   3.061   5.245  10.252 -0.6825  0.6490  0.5225
    3SAPS   C35  357   3.257   5.193  10.162 -0.6358 -0.8821  0.5453
    3SAPS   H5X  358   3.359   5.165  10.194 -0.1570  2.3892  2.2539
    3SAPS   H5Y  359   3.269   5.301  10.142 -0.0033 -0.6961  1.8589
    3SAPS   C36  360   3.221   5.133  10.025  0.7676 -0.0791 -0.1281
    3SAPS   H6X  361   3.121   5.150   9.981  1.5138  1.0170 -1.5024
    3SAPS   H6Y  362   3.234   5.023  10.023 -2.5016 -0.6327 -4.0218
    3SAPS   C37  363   3.324   5.186   9.918 -0.1902 -0.2907  0.3418
    3SAPS   H7X  364   3.413   5.121   9.910  1.7641  1.9353  2.4481
    3SAPS   H7Y  365   3.371   5.281   9.953  1.2605 -0.5420 -0.8400
    3SAPS   C38  366   3.272   5.211   9.784  0.9858 -0.3366  0.8707
    3SAPS   H8X  367   3.197   5.293   9.781 -0.5319 -1.6782  0.6525
    3SAPS   H8Y  368   3.226   5.118   9.746  0.9717  0.3549 -0.8791
    3SAPS   C39  369   3.384   5.247   9.685 -0.4640  0.3476  0.5615
    3SAPS   H9X  370   3.447   5.156   9.674  0.1681  0.9504 -1.1559
    3SAPS   H9Y  371   3.453   5.322   9.728 -1.5664 -0.2310  3.5594
    3SAPS  C310  372   3.329   5.309   9.557  0.7162 -0.2530 -0.0148
    3SAPS  H10X  373   3.257   5.384   9.594  0.4499 -0.5149  0.0080
    3SAPS  H10Y  374   3.253   5.243   9.510 -2.0922  1.8260  1.3042
    3SAPS  C311  375   3.442   5.351   9.461  0.4404 -0.3972  0.2345
    3SAPS  H11X  376   3.507   5.262   9.449 -0.8195 -1.3726  0.3512
    3SAPS  H11Y  377   3.504   5.436   9.495 -0.5538  1.3018 -1.9194
    3SAPS  C312  378   3.375   5.398   9.330 -0.5302 -0.0768  0.7048
    3SAPS  H12X  379   3.314   5.489   9.350 -0.5256  0.3382 -1.0510
    3SAPS  H12Y  380   3.297   5.328   9.295  0.5587 -0.9760 -0.0107
    3SAPS  C313  381   3.477   5.440   9.221  0.1420  0.7089  0.7520
    3SAPS  H13X  382   3.503   5.348   9.164  0.1658  0.0233  1.8396
    3SAPS  H13Y  383   3.572   5.488   9.253  0.2790 -0.1848  1.7703
    3SAPS  C314  384   3.408   5.536   9.114 -0.3005 -0.0605 -0.5819
    3SAPS  H14X  385   3.378   5.632   9.162 -0.3936 -0.7093  0.6800
    3SAPS  H14Y  386   3.320   5.477   9.080 -0.4630 -1.6744  2.3191
    3SAPS  C315  387   3.490   5.563   8.983  0.2759  0.2795 -0.4882
    3SAPS  H15X  388   3.544   5.477   8.940  3.8852  1.1346  1.9001
    3SAPS  H15Y  389   3.571   5.634   9.008  1.0289  0.4141 -3.1160
    3SAPS  C316  390   3.407   5.636   8.875 -0.6835  0.1951 -0.2079
    3SAPS  H16X  391   3.328   5.572   8.828 -0.6234 -0.3542  0.4274
    3SAPS  H16Y  392   3.470   5.678   8.794 -2.3199  0.6504 -1.3086
    3SAPS  C317  393   3.345   5.769   8.930 -0.5488 -0.1425 -0.4228
    3SAPS  H17X  394   3.417   5.842   8.972  1.1648 -0.4820 -2.5719
    3SAPS  H17Y  395   3.278   5.738   9.012  0.2234 -3.3930 -0.9137
    3SAPS  C318  396   3.262   5.845   8.826 -1.3101  0.4154  0.3079
    3SAPS  H18X  397   3.153   5.825   8.817 -1.4799  2.0783 -2.3056
    3SAPS  H18Y  398   3.307   5.851   8.725  0.6318  3.4428  1.2195
    3SAPS  H18Z  399   3.274   5.952   8.854  0.3034  0.4204 -0.2769
    4SAPS     N  400   3.343   3.238  10.859 -0.2453 -0.3346  0.0605
    4SAPS   HN1  401   3.313   3.184  10.775 -1.0840 -1.6965  1.1802
    4SAPS   HN2  402   3.292   3.192  10.938  1.7345 -4.6851 -0.9056
    4SAPS   HN3  403   3.307   3.335  10.860  0.3193 -0.1149  1.0366
    4SAPS   C12  404   3.493   3.222  10.867  0.9230 -0.2209  0.3446
    4SAPS  H12A  405   3.536   3.261  10.958 -0.3289  1.5572  0.2116
    4SAPS   C13  406   3.539   3.075  10.870 -0.1049 -0.6642  0.1125
    4SAPS  O13A  407   3.464   2.971  10.848  0.2434 -0.0930 -0.0294
    4SAPS  O13B  408   3.668   3.070  10.882 -0.2631 -0.2756  0.1446
    4SAPS   C11  409   3.552   3.298  10.750 -0.0548  0.5479 -0.5668
    4SAPS  H11A  410   3.524   3.240  10.660 -0.7368 -0.6407  0.3798
    4SAPS  H11B  411   3.663   3.301  10.745 -0.1236  2.3873 -1.8573
    4SAPS     P  412   3.506   3.522  10.613  0.0218  0.0574 -0.2837
    4SAPS   O13  413   3.379   3.503  10.540  0.5825 -0.4356 -0.1058
    4SAPS   O14  414   3.531   3.659  10.668 -0.1503  0.3672  0.2857
    4SAPS   O12  415   3.510   3.433  10.744 -0.6260  0.3843  0.2858
    4SAPS   O11  416   3.639   3.482  10.535 -0.2019  0.4921 -0.4471
    4SAPS    C1  417   3.609   3.385  10.432  0.6296  0.6444 -0.0808
    4SAPS    HA  418   3.578   3.289  10.478  1.7887  0.5289  0.4845
    4SAPS    HB  419   3.535   3.423  10.358 -1.7512 -1.9597  0.7781
    4SAPS    C2  420   3.737   3.334  10.355  0.0271  0.6643  0.6710
    4SAPS    HS  421   3.811   3.314  10.435 -0.3089 -1.0548  0.5997
    4SAPS   O21  422   3.777   3.426  10.251  0.1824 -0.3133  0.4954
    4SAPS   C21  423   3.901   3.411  10.213  0.3066 -0.7511  0.1123
    4SAPS   O22  424   3.989   3.356  10.281 -0.5505  0.6508  0.6602
    4SAPS   C22  425   3.931   3.468  10.075 -0.0468  0.1675 -0.7059
    4SAPS   H2R  426   3.835   3.514  10.043  0.2206  1.0192 -0.2980
    4SAPS   H2S  427   4.010   3.546  10.083  2.0107 -1.9993  1.6517
    4SAPS    C3  428   3.711   3.192  10.284 -0.5649 -0.0441  0.3850
    4SAPS    HX  429   3.675   3.120  10.361 -0.4988  1.6374  2.0725
    4SAPS    HY  430   3.807   3.160  10.239 -0.7371  2.1874 -1.7996
    4SAPS   O31  431   3.623   3.209  10.174 -0.0547  0.3065 -0.5535
    4SAPS   C31  432   3.565   3.103  10.133  0.2235  1.3745 -0.1296
    4SAPS   O32  433   3.544   2.998  10.194  0.1705  0.2528  0.8219
    4SAPS   C32  434   3.537   3.119   9.983 -0.1479 -0.1569  0.7289
    4SAPS   H2X  435   3.449   3.186   9.972  1.2908  1.7286  0.0798
    4SAPS   H2Y  436   3.505   3.018   9.949  0.6832 -0.3420  0.4658
    4SAPS   C23  437   3.981   3.365   9.972 -0.3636 -0.5427  0.0621
    4SAPS   H3R  438   4.017   3.431   9.890  0.3573 -0.4267  0.4615
    4SAPS   H3S  439   3.905   3.293   9.934 -0.7998  0.2526 -0.6382
    4SAPS   C24  440   4.119   3.288  10.004  1.1818 -0.2178  0.3534
    4SAPS   H4R  441   4.136   3.228   9.912 -1.9348  1.3882 -1.4571
    4SAPS   H4S  442   4.092   3.217  10.085  1.4980 -1.1612 -0.3554
    4SAPS   C25  443   4.238   3.376  10.029  0.4388 -0.2855 -0.2230
    4SAPS   H5R  444   4.222   3.425  10.127 -0.0452  1.0542 -0.9454
    4SAPS   C26  445   4.349   3.410   9.959  0.2771 -0.9953  0.9946
    4SAPS   H6R  446   4.410   3.496   9.992 -3.2726  2.2168 -0.1706
    4SAPS   C27  447   4.395   3.353   9.829 -0.4219 -0.0977 -0.2668
    4SAPS   H7R  448   4.457   3.430   9.778 -2.8014  1.7423 -0.5804
    4SAPS   H7S  449   4.308   3.325   9.766 -0.0608 -0.0466 -0.7861
    4SAPS   C28  450   4.480   3.230   9.850  0.6943 -0.5201 -0.1439
    4SAPS   H8R  451   4.474   3.182   9.949  0.1860 -0.1673 -0.0002
    4SAPS   C29  452   4.553   3.188   9.751 -0.2756 -1.0427  0.2052
    4SAPS   H9R  453   4.619   3.101   9.765  1.4304  0.4074  1.7329
    4SAPS  C210  454   4.562   3.265   9.623  0.1702 -0.3863  0.3877
    4SAPS  H10R  455   4.623   3.355   9.644 -0.1000 -0.2049  0.3983
    4SAPS  H10S  456   4.456   3.285   9.596 -0.8340 -3.2004  1.8816
    4SAPS  C211  457   4.628   3.190   9.506  0.3625 -0.1397 -1.1856
    4SAPS  H11R  458   4.711   3.128   9.541 -0.8348 -0.9889  0.2531
    4SAPS  C212  459   4.606   3.190   9.373  0.4095  0.6263  0.5324
    4SAPS  H12R  460   4.666   3.134   9.300 -0.6379  1.5022 -1.0557
    4SAPS  C213  461   4.499   3.276   9.305 -0.2492 -0.9141  0.3535
    4SAPS  H13R  462   4.485   3.374   9.356 -0.9377 -0.6283 -0.3547
    4SAPS  H13S  463   4.402   3.224   9.319  0.0906 -1.0727  2.4851
    4SAPS  C214  464   4.532   3.310   9.164 -0.3378 -0.2980 -0.2806
    4SAPS  H14R  465   4.516   3.221   9.102 -0.0098  0.7503 -1.9485
    4SAPS  C215  466   4.580   3.424   9.101  0.2432  0.6510 -0.1584
    4SAPS  H15R  467   4.622   3.406   9.001 -0.0816  1.9196 -0.5383
    4SAPS  C216  468   4.616   3.551   9.158  0.2109  0.3158 -0.3227
    4SAPS  H16R  469   4.709   3.589   9.111  0.6993 -0.9318 -0.4009
    4SAPS  H16S  470   4.636   3.545   9.267  0.0879  1.8065 -0.1947
    4SAPS  C217  471   4.493   3.638   9.127 -0.5518  0.8293 -0.7386
    4SAPS  H17R  472   4.497   3.723   9.199  2.4770 -0.1037  0.3225
    4SAPS  H17S  473   4.400   3.586   9.160  1.1616 -2.0708 -0.1659
    4SAPS  C218  474   4.494   3.686   8.982 -0.3316 -0.4298  0.4784
    4SAPS  H18R  475   4.479   3.597   8.917 -2.6202 -0.7922  1.4142
    4SAPS  H18S  476   4.597   3.723   8.962  0.1587 -2.5195 -1.3009
    4SAPS  C219  477   4.382   3.783   8.947  0.1194  0.6044  0.5475
    4SAPS  H19R  478   4.288   3.747   8.994 -1.3682  2.0945 -1.1056
    4SAPS  H19S  479   4.357   3.800   8.840 -0.1750  0.4880  0.5956
    4SAPS  C220  480   4.400   3.920   9.005  0.1752 -0.4146  0.6047
    4SAPS  H20R  481   4.471   3.969   8.934 -1.9070 -1.0195 -2.0560
    4SAPS  H20S  482   4.420   3.926   9.114 -4.0838 -0.8675  1.5598
    4SAPS  H20T  483   4.303   3.972   8.993  0.5049  0.1352  0.2164
    4SAPS   C33  484   3.651   3.174   9.898  0.5946  0.5162  0.1774
    4SAPS   H3X  485   3.742   3.111   9.901 -0.4292 -1.0595  4.2031
    4SAPS   H3Y  486   3.672   3.278   9.931  0.8203  0.5816 -0.1651
    4SAPS   C34  487   3.631   3.172   9.748  0.4795  0.2349 -0.0653
    4SAPS   H4X  488   3.612   3.065   9.727  0.0958 -0.1289  1.9467
    4SAPS   H4Y  489   3.721   3.216   9.698 -1.0493  1.5198 -1.8296
    4SAPS   C35  490   3.512   3.252   9.708  0.4403  0.5501  0.5174
    4SAPS   H5X  491   3.508   3.358   9.739 -1.3378  0.8321 -0.5040
    4SAPS   H5Y  492   3.427   3.188   9.741  1.1654 -1.8385 -1.8318
    4SAPS   C36  493   3.505   3.280   9.556  1.0261  0.1038  0.5763
    4SAPS   H6X  494   3.502   3.182   9.504  1.1272 -0.1533  1.0528
    4SAPS   H6Y  495   3.594   3.339   9.526  0.2419  0.8249 -0.3994
    4SAPS   C37  496   3.377   3.356   9.503 -0.2638 -0.2575  0.7840
    4SAPS   H7X  497   3.400   3.464   9.509  1.1581 -0.5435  0.7497
    4SAPS   H7Y  498   3.301   3.334   9.582 -1.4611 -1.2972 -0.6130
    4SAPS   C38  499   3.313   3.311   9.373  0.1838 -0.1238  0.0001
    4SAPS   H8X  500   3.204   3.304   9.394  0.7652 -1.6962  2.9708
    4SAPS   H8Y  501   3.338   3.205   9.350  1.7967  0.3355 -0.4336
    4SAPS   C39  502   3.326   3.399   9.249 -0.1266 -0.0521  0.4606
    4SAPS   H9X  503   3.310   3.497   9.299 -1.8528 -1.5347  3.0761
    4SAPS   H9Y  504   3.245   3.384   9.174 -2.5051 -0.9054  3.0324
    4SAPS  C310  505   3.462   3.386   9.182 -0.4734  0.0688  0.0281
    4SAPS  H10X  506   3.475   3.281   9.148  1.4892 -0.3066  1.7467
    4SAPS  H10Y  507   3.543   3.400   9.257  1.9593 -0.8435 -2.2832
    4SAPS  C311  508   3.493   3.468   9.054 -0.0049  0.2877 -0.7497
    4SAPS  H11X  509   3.401   3.465   8.990  1.5274  1.6133 -3.1788
    4SAPS  H11Y  510   3.570   3.408   9.003 -1.2348 -1.9135 -0.1358
    4SAPS  C312  511   3.526   3.622   9.079 -0.0622  1.0303  0.0940
    4SAPS  H12X  512   3.626   3.640   9.125 -0.5804  1.5821  1.0539
    4SAPS  H12Y  513   3.459   3.656   9.161  1.2397 -0.7154  1.9900
    4SAPS  C313  514   3.497   3.701   8.949  0.1653  0.1197  0.1520
    4SAPS  H13X  515   3.521   3.809   8.962  1.8543  0.7153 -5.4398
    4SAPS  H13Y  516   3.390   3.689   8.923  0.8211 -0.0646 -2.8225
    4SAPS  C314  517   3.580   3.658   8.827  0.2668  0.6315 -0.5656
    4SAPS  H14X  518   3.541   3.563   8.784 -0.4984 -0.9681  3.2560
    4SAPS  H14Y  519   3.682   3.627   8.861 -0.3673 -0.7218  0.1782
    4SAPS  C315  520   3.582   3.767   8.721  0.0401  0.4000 -0.7307
    4SAPS  H15X  521   3.618   3.859   8.770  2.9002 -1.7032  1.4043
    4SAPS  H15Y  522   3.477   3.778   8.685  0.4592  0.1754 -2.0709
    4SAPS  C316  523   3.669   3.726   8.607  0.2587  0.3668 -0.4924
    4SAPS  H16X  524   3.641   3.628   8.564 -0.5752 -0.5426  1.9395
    4SAPS  H16Y  525   3.774   3.724   8.643  0.3646  0.7172 -0.7701
    4SAPS  C317  526   3.671   3.830   8.500 -0.1865 -0.4223 -0.0792
    4SAPS  H17X  527   3.741   3.911   8.532  0.8025 -0.8917 -1.0010
    4SAPS  H17Y  528   3.569   3.874   8.492 -0.2713 -0.3048  1.3358
    4SAPS  C318  529   3.708   3.781   8.362  0.3319  0.2162  0.0244
    4SAPS  H18X  530   3.648   3.692   8.335  0.2592  0.7048 -1.4956
    4SAPS  H18Y  531   3.810   3.737   8.362 -0.3603 -1.5114  1.9092
    4SAPS  H18Z  532   3.704   3.869   8.294 -0.1817  0.5119  0.4273
    5SAPS     N  533   0.401   3.114  10.808  0.2626  0.0110  0.0399
    5SAPS   HN1  534   0.367   3.205  10.771 -0.7244  0.2092  1.3765
    5SAPS   HN2  535   0.451   3.061  10.734  0.6844 -1.7661  1.5200
    5SAPS   HN3  536   0.316   3.055  10.816 -0.3911  0.5305 -2.3599
    5SAPS   C12  537   0.480   3.118  10.927 -0.3893 -0.5692 -0.8369
    5SAPS  H12A  538   0.513   3.219  10.945 -1.4084 -0.2476 -0.7550
    5SAPS   C13  539   0.400   3.065  11.050  0.5251 -0.2304 -0.5800
    5SAPS  O13A  540   0.302   2.989  11.022 -0.2974  0.1515 -0.4649
    5SAPS  O13B  541   0.436   3.075  11.168 -0.0530  0.1438  0.0314
    5SAPS   C11  542   0.594   3.010  10.903  0.0403 -0.1978  0.2812
    5SAPS  H11A  543   0.555   2.907  10.908  0.9387 -0.4921  1.7843
    5SAPS  H11B  544   0.657   3.023  10.993  0.9684  0.8449 -0.4804
    5SAPS     P  545   0.820   2.976  10.777  0.2182 -0.6154 -0.5386
    5SAPS   O13  546   0.931   3.074  10.796 -0.0370 -0.1274 -0.0527
    5SAPS   O14  547   0.834   2.857  10.863 -1.0883  0.5945 -0.3264
    5SAPS   O12  548   0.676   3.042  10.788  0.7016  1.0116 -0.4155
    5SAPS   O11  549   0.812   2.932  10.624 -0.2734  0.0921 -0.5447
    5SAPS    C1  550   0.939   2.894  10.561 -0.1960  0.7951  0.8131
    5SAPS    HA  551   1.016   2.974  10.553 -0.7623  1.1438 -2.3635
    5SAPS    HB  552   0.994   2.812  10.611  2.2985  0.6138 -1.9841
    5SAPS    C2  553   0.904   2.857  10.411  0.1895  0.2192  0.3244
    5SAPS    HS  554   0.993   2.816  10.358 -0.9385 -0.8067 -0.8289
    5SAPS   O21  555   0.853   2.977  10.349 -0.2123 -1.0995 -0.0251
    5SAPS   C21  556   0.943   3.048  10.298 -0.0559 -1.3440  0.7426
    5SAPS   O22  557   1.057   3.014  10.275 -0.1269 -0.1721 -0.4419
    5SAPS   C22  558   0.890   3.191  10.267 -0.0401 -0.9653 -0.0247
    5SAPS   H2R  559   0.833   3.168  10.175  0.7819 -0.6564 -0.6193
    5SAPS   H2S  560   0.835   3.240  10.350  1.4372  0.1777  0.3132
    5SAPS    C3  561   0.800   2.745  10.396  0.1384  0.5345 -0.6698
    5SAPS    HX  562   0.767   2.744  10.290 -0.2508 -0.7052 -0.5609
    5SAPS    HY  563   0.711   2.763  10.459 -0.6092 -0.8937 -1.2624
    5SAPS   O31  564   0.866   2.619  10.434 -0.1105 -0.1096 -0.5164
    5SAPS   C31  565   0.898   2.538  10.329  0.1590 -0.0722  1.1660
    5SAPS   O32  566   0.895   2.569  10.213 -0.6348  0.2949  0.2648
    5SAPS   C32  567   0.941   2.404  10.383 -0.6554  0.3737  0.2098
    5SAPS   H2X  568   0.873   2.335  10.329 -1.4652  0.1766  1.4434
    5SAPS   H2Y  569   0.919   2.389  10.491 -0.4244 -1.8187 -0.0078
    5SAPS   C23  570   1.010   3.289  10.238  0.4453  0.4303  0.7403
    5SAPS   H3R  571   1.079   3.241  10.166 -1.5655 -2.5386  0.5993
    5SAPS   H3S  572   1.066   3.302  10.333  3.5593 -1.0395 -0.7425
    5SAPS   C24  573   0.976   3.424  10.177 -0.2298 -0.1393  0.0287
    5SAPS   H4R  574   0.920   3.467  10.263  0.3815  0.0508  0.3409
    5SAPS   H4S  575   0.916   3.406  10.085 -1.2101  0.5319  0.5136
    5SAPS   C25  576   1.094   3.510  10.148  0.3270  0.8275 -0.2540
    5SAPS   H5R  577   1.185   3.456  10.118  0.8298  0.2454  2.0650
    5SAPS   C26  578   1.093   3.642  10.147 -0.1844  0.4268  0.4792
    5SAPS   H6R  579   1.181   3.697  10.109 -0.6670  1.3740  0.7206
    5SAPS   C27  580   0.975   3.734  10.156 -0.6604  0.0606  0.2962
    5SAPS   H7R  581   0.884   3.680  10.188  0.0078 -0.1628  1.9331
    5SAPS   H7S  582   0.965   3.776  10.053 -1.8586 -1.7746 -0.3700
    5SAPS   C28  583   1.013   3.830  10.264  0.0562 -0.7138  0.2395
    5SAPS   H8R  584   1.012   3.793  10.368  2.2415 -1.2258  0.1211
    5SAPS   C29  585   1.042   3.962  10.254  0.4939 -0.2959  0.1015
    5SAPS   H9R  586   1.069   4.015  10.346 -2.6377 -0.0576  0.9911
    5SAPS  C210  587   1.050   4.032  10.121 -0.1585  0.1364  0.1250
    5SAPS  H10R  588   1.069   3.966  10.033  0.2115  0.6229 -0.1594
    5SAPS  H10S  589   1.140   4.097  10.130  1.4970 -2.0348  0.4378
    5SAPS  C211  590   0.935   4.119  10.097  0.4561 -0.1307  0.6145
    5SAPS  H11R  591   0.893   4.167  10.187 -0.5597  0.7043 -0.2931
    5SAPS  C212  592   0.878   4.147   9.979 -0.6726  0.0283 -0.6026
    5SAPS  H12R  593   0.792   4.216   9.971 -0.1143  0.6764 -1.0636
    5SAPS  C213  594   0.924   4.109   9.841  0.5965  0.3053 -0.3028
    5SAPS  H13R  595   0.873   4.011   9.825  1.2890 -0.0205 -0.5377
    5SAPS  H13S  596   1.033   4.088   9.841  0.7131  0.9099 -0.3215
    5SAPS  C214  597   0.874   4.195   9.734  0.3742  0.3321  0.9749
    5SAPS  H14R  598   0.784   4.255   9.753 -0.9549 -1.4070  0.4638
    5SAPS  C215  599   0.930   4.193   9.609  0.4848  0.2360 -0.1592
    5SAPS  H15R  600   0.877   4.253   9.534 -0.6529  0.1621  0.5566
    5SAPS  C216  601   1.052   4.120   9.564 -0.2410 -0.1718  0.2911
    5SAPS  H16R  602   1.094   4.058   9.647  0.4875 -0.6609 -0.4257
    5SAPS  H16S  603   1.127   4.171   9.500 -1.6617 -0.8395 -2.0306
    5SAPS  C217  604   1.000   4.016   9.465 -0.3373  0.3115 -0.3910
    5SAPS  H17R  605   0.925   3.948   9.512  0.1471 -2.5459 -3.3529
    5SAPS  H17S  606   1.082   3.949   9.432 -0.5219  0.9371 -2.2694
    5SAPS  C218  607   0.928   4.062   9.338  0.7213  0.0782 -0.2638
    5SAPS  H18R  608   0.832   4.103   9.375  0.0390 -1.0323 -0.7566
    5SAPS  H18S  609   0.992   4.146   9.303 -0.2573  1.2244  0.6064
    5SAPS  C219  610   0.910   3.959   9.230  0.0716  0.0005 -0.1489
    5SAPS  H19R  611   0.838   3.884   9.271 -0.2984  0.3765 -0.0973
    5SAPS  H19S  612   1.004   3.906   9.206 -0.7915 -1.7373  0.1382
    5SAPS  C220  613   0.843   4.016   9.112 -0.5121  0.7971  0.3894
    5SAPS  H20R  614   0.738   4.046   9.132 -0.2470  0.7763  1.9541
    5SAPS  H20S  615   0.851   3.947   9.025 -1.4510  0.8604  0.2446
    5SAPS  H20T  616   0.909   4.098   9.074  0.1382 -0.7072 -1.9315
    5SAPS   C33  617   1.093   2.378  10.357  1.1365  0.0447  0.4732
    5SAPS   H3X  618   1.119   2.280  10.402  1.7873 -0.4123 -0.8508
    5SAPS   H3Y  619   1.151   2.463  10.399 -1.1051  1.5307  0.7575
    5SAPS   C34  620   1.123   2.343  10.211 -0.2224  0.0321  0.6008
    5SAPS   H4X  621   1.233   2.339  10.199 -0.2028  2.7369 -1.2071
    5SAPS   H4Y  622   1.101   2.431  10.146  0.8407 -0.6804 -0.7838
    5SAPS   C35  623   1.054   2.216  10.158  0.7126 -0.2738  0.1740
    5SAPS   H5X  624   0.945   2.230  10.174  1.2070  0.5480  3.9424
    5SAPS   H5Y  625   1.080   2.132  10.226  0.1069 -1.0462 -0.5269
    5SAPS   C36  626   1.092   2.161  10.024 -0.1168  0.0350 -0.0608
    5SAPS   H6X  627   1.046   2.061  10.008  1.2057 -0.9033  1.6350
    5SAPS   H6Y  628   1.203   2.163  10.021 -0.1218  0.5800 -0.1022
    5SAPS   C37  629   1.038   2.262   9.921  0.4843 -0.0951  0.0911
    5SAPS   H7X  630   1.108   2.347   9.931  1.7220 -1.1009  0.3548
    5SAPS   H7Y  631   0.930   2.284   9.937  0.4644 -0.5506  0.6388
    5SAPS   C38  632   1.054   2.213   9.780 -0.3986  0.7758 -0.1193
    5SAPS   H8X  633   0.985   2.129   9.755 -1.2471  1.2960  0.4177
    5SAPS   H8Y  634   1.150   2.160   9.766 -0.2504  0.6928  1.0830
    5SAPS   C39  635   1.031   2.320   9.677 -0.6194  0.2549  0.1266
    5SAPS   H9X  636   1.113   2.393   9.692 -0.2975 -0.0004 -0.3947
    5SAPS   H9Y  637   0.938   2.376   9.703  1.1593  2.8992  1.1689
    5SAPS  C310  638   1.039   2.269   9.535 -0.4376  0.6983  0.2464
    5SAPS  H10X  639   0.955   2.200   9.512  0.9868 -1.5622  1.5322
    5SAPS  H10Y  640   1.129   2.210   9.510  0.2927  2.5253 -1.7170
    5SAPS  C311  641   1.029   2.391   9.444 -0.3750  0.1332  0.7224
    5SAPS  H11X  642   1.114   2.459   9.465  2.4449 -2.4570 -1.3775
    5SAPS  H11Y  643   0.924   2.422   9.462 -1.0774 -1.3442 -0.5202
    5SAPS  C312  644   1.053   2.356   9.294  0.4410 -0.1271  1.0159
    5SAPS  H12X  645   0.996   2.263   9.272 -0.8804  0.6866  0.8799
    5SAPS  H12Y  646   1.164   2.355   9.287  0.7151  0.6356  3.9203
    5SAPS  C313  647   1.009   2.464   9.195 -0.1729 -0.1289  0.1419
    5SAPS  H13X  648   1.055   2.557   9.235 -1.6732  0.3552  0.8033
    5SAPS  H13Y  649   0.899   2.478   9.194 -0.6851 -3.2013  0.8870
    5SAPS  C314  650   1.069   2.439   9.052 -0.5435 -0.1247  0.0545
    5SAPS  H14X  651   1.020   2.347   9.015  1.4484 -1.4352  0.5111
    5SAPS  H14Y  652   1.176   2.417   9.072 -0.1708  1.5527  0.1287
    5SAPS  C315  653   1.041   2.557   8.949  0.8972  0.2609 -0.0586
    5SAPS  H15X  654   1.112   2.543   8.865  0.7327 -1.8871  0.1093
    5SAPS  H15Y  655   1.078   2.650   8.998  1.1472  0.3788 -0.4713
    5SAPS  C316  656   0.892   2.602   8.914  0.2977  0.7885  0.0477
    5SAPS  H16X  657   0.853   2.649   9.006 -0.4506  0.5969 -0.1665
    5SAPS  H16Y  658   0.838   2.513   8.873  2.0233  0.7857 -2.4750
    5SAPS  C317  659   0.885   2.721   8.829 -0.3608 -0.7952  0.6193
    5SAPS  H17X  660   0.936   2.705   8.731 -3.2041  1.0967 -1.3326
    5SAPS  H17Y  661   0.949   2.794   8.883 -0.0955  0.6911 -1.5890
    5SAPS  C318  662   0.740   2.774   8.796 -0.2309 -0.2353 -0.0365
    5SAPS  H18X  663   0.695   2.805   8.892  0.3774  0.6560 -0.0322
    5SAPS  H18Y  664   0.682   2.691   8.751 -1.1400  1.3467 -1.9029
    5SAPS  H18Z  665   0.741   2.858   8.724  2.0150  0.9812  1.2734
    6SAPS     N  666   1.283   1.944  10.691 -0.4245  0.7996 -0.6364
    6SAPS   HN1  667   1.326   1.853  10.664 -1.7165  0.5681 -2.0295
    6SAPS   HN2  668   1.318   1.953  10.789  1.0450 -0.2672 -1.0190
    6SAPS   HN3  669   1.181   1.931  10.676 -0.7322 -0.7422  2.1775
    6SAPS   C12  670   1.336   2.060  10.621  0.2472  0.3454 -0.5730
    6SAPS  H12A  671   1.308   2.043  10.518  0.1197 -1.0627 -0.3249
    6SAPS   C13  672   1.276   2.199  10.650 -0.7199  0.2797  0.0138
    6SAPS  O13A  673   1.168   2.204  10.712  0.2104  0.4210 -0.2276
    6SAPS  O13B  674   1.325   2.290  10.587 -0.1754 -0.8299 -0.3638
    6SAPS   C11  675   1.494   2.067  10.644 -0.5056 -0.2846 -0.1139
    6SAPS  H11A  676   1.513   2.101  10.748 -1.6082  1.5452 -0.4673
    6SAPS  H11B  677   1.536   2.147  10.580 -2.2230  0.2070 -0.6619
    6SAPS     P  678   1.712   1.939  10.578  0.0136  0.1687 -0.0533
    6SAPS   O13  679   1.779   2.059  10.633  0.0548  0.1403 -0.2371
    6SAPS   O14  680   1.769   1.810  10.621 -0.3334  0.5578  0.1423
    6SAPS   O12  681   1.556   1.942  10.604  0.1398 -0.4293  0.3938
    6SAPS   O11  682   1.730   1.950  10.421 -0.8659 -0.2430  0.2627
    6SAPS    C1  683   1.650   1.895  10.316  0.1489  0.8521 -1.1720
    6SAPS    HA  684   1.709   1.815  10.266  0.7919  1.2595 -1.0752
    6SAPS    HB  685   1.563   1.839  10.358  0.1871 -0.0278 -2.2071
    6SAPS    C2  686   1.606   1.989  10.206  0.7659 -0.8990 -0.6060
    6SAPS    HS  687   1.536   1.938  10.136 -1.3496 -0.7335  1.2669
    6SAPS   O21  688   1.716   2.060  10.141  0.2705 -0.0145  1.2061
    6SAPS   C21  689   1.792   1.974  10.079  0.4104  0.8315  0.6709
    6SAPS   O22  690   1.757   1.857  10.052  0.5048  0.5234 -0.8931
    6SAPS   C22  691   1.926   2.027  10.040 -0.0542  0.4659 -0.2604
    6SAPS   H2R  692   1.964   2.082  10.129  1.6319 -2.8836  1.3059
    6SAPS   H2S  693   1.988   1.938  10.016 -1.9697 -0.8426 -0.5890
    6SAPS    C3  694   1.517   2.099  10.266  0.4834 -0.1295  0.3930
    6SAPS    HX  695   1.581   2.159  10.334 -0.1504 -0.5916  1.4331
    6SAPS    HY  696   1.440   2.048  10.328  1.7726 -1.8655  0.6579
    6SAPS   O31  697   1.450   2.173  10.163 -0.1880  0.1396  0.2917
    6SAPS   C31  698   1.501   2.296  10.142 -0.0952  0.0203 -0.4421
    6SAPS   O32  699   1.577   2.354  10.217 -0.1008 -0.0199  0.1518
    6SAPS   C32  700   1.442   2.362  10.025 -0.6502 -0.1845 -0.0062
    6SAPS   H2X  701   1.434   2.472  10.039 -2.2006 -0.4480  1.3419
    6SAPS   H2Y  702   1.340   2.321  10.012 -0.3253 -0.8749 -0.4099
    6SAPS   C23  703   1.918   2.117   9.915 -0.4388 -0.2849  0.7595
    6SAPS   H3R  704   2.013   2.129   9.858 -0.1674 -0.3575  1.1898
    6SAPS   H3S  705   1.877   2.213   9.954 -0.8221 -0.0031 -0.3080
    6SAPS   C24  706   1.814   2.068   9.806  0.0871  0.4049 -0.5112
    6SAPS   H4R  707   1.712   2.060   9.851  1.0365 -0.0486  1.7226
    6SAPS   H4S  708   1.838   1.963   9.778  1.1123  0.1908  1.0344
    6SAPS   C25  709   1.792   2.148   9.684 -0.2687  0.5165  0.3308
    6SAPS   H5R  710   1.726   2.236   9.697 -0.6273  0.2276  0.5029
    6SAPS   C26  711   1.851   2.122   9.567 -0.8326 -0.7405  0.1099
    6SAPS   H6R  712   1.855   2.202   9.491  0.5069  1.7474  2.6193
    6SAPS   C27  713   1.953   2.015   9.538  0.5740 -0.6705 -0.0987
    6SAPS   H7R  714   1.925   1.975   9.438 -2.2006  1.4174 -0.2973
    6SAPS   H7S  715   1.931   1.927   9.602 -1.0214  1.4448  2.4958
    6SAPS   C28  716   2.105   2.041   9.555  0.6541  0.1735 -0.3963
    6SAPS   H8R  717   2.136   2.088   9.649 -0.1943 -0.2931  0.1288
    6SAPS   C29  718   2.193   2.016   9.463 -0.3362 -0.2432  0.3324
    6SAPS   H9R  719   2.299   2.020   9.494 -0.1687  1.5713 -0.3498
    6SAPS  C210  720   2.169   1.954   9.325 -0.0497 -0.2859  0.9813
    6SAPS  H10R  721   2.063   1.938   9.296 -0.4862  3.8432 -0.3250
    6SAPS  H10S  722   2.223   1.857   9.324 -0.5382 -0.5709  1.3471
    6SAPS  C211  723   2.218   2.045   9.215 -0.3238 -0.1599  0.3784
    6SAPS  H11R  724   2.141   2.108   9.168 -0.8460 -0.7035  0.4895
    6SAPS  C212  725   2.344   2.048   9.173 -0.5882  0.3255 -0.1679
    6SAPS  H12R  726   2.375   2.118   9.094 -1.5994  1.2847  0.2576
    6SAPS  C213  727   2.461   1.971   9.233  0.2343  0.1619 -0.3062
    6SAPS  H13R  728   2.437   1.863   9.231  0.8522  0.0241 -1.7746
    6SAPS  H13S  729   2.469   2.005   9.338  2.0282  0.1170 -0.4003
    6SAPS  C214  730   2.586   2.003   9.160 -0.8123  0.3505 -0.6154
    6SAPS  H14R  731   2.669   2.047   9.218 -0.1092 -0.5609 -0.8995
    6SAPS  C215  732   2.609   1.978   9.033  0.3228  0.2682 -0.2749
    6SAPS  H15R  733   2.707   2.005   8.990  0.5849 -0.4411 -0.1471
    6SAPS  C216  734   2.517   1.901   8.942  0.5370  0.4767 -0.1615
    6SAPS  H16R  735   2.431   1.854   8.993  0.8502  1.7604  1.6554
    6SAPS  H16S  736   2.570   1.808   8.915 -1.7458 -0.4762 -1.5622
    6SAPS  C217  737   2.462   1.966   8.816 -0.4858 -0.4484 -0.0384
    6SAPS  H17R  738   2.543   2.000   8.749  0.0047 -0.3662  0.5841
    6SAPS  H17S  739   2.410   2.059   8.848  2.1343  1.2678 -0.5011
    6SAPS  C218  740   2.372   1.866   8.747  0.5119  0.4222  0.1234
    6SAPS  H18R  741   2.297   1.921   8.687 -2.5817 -2.1714  1.3261
    6SAPS  H18S  742   2.296   1.835   8.822  0.7032  2.4651  1.2702
    6SAPS  C219  743   2.437   1.762   8.657 -0.3237  0.0283 -0.1636
    6SAPS  H19R  744   2.518   1.710   8.713 -0.2539 -0.0684 -0.3532
    6SAPS  H19S  745   2.479   1.821   8.572  1.3020 -0.7919  0.0240
    6SAPS  C220  746   2.323   1.673   8.613  0.4563  1.1299 -0.2553
    6SAPS  H20R  747   2.276   1.621   8.700  0.3493 -0.7315 -1.3639
    6SAPS  H20S  748   2.371   1.596   8.549  1.0547  0.7409  0.6276
    6SAPS  H20T  749   2.242   1.716   8.551 -2.1174 -0.9821  1.4058
    6SAPS   C33  750   1.512   2.334   9.889  0.2691  0.9436  0.7257
    6SAPS   H3X  751   1.517   2.223   9.880 -1.6318  0.9963 -2.3235
    6SAPS   H3Y  752   1.617   2.370   9.890  0.1747  1.4801 -1.8364
    6SAPS   C34  753   1.437   2.391   9.767 -0.3384  0.4123  0.8762
    6SAPS   H4X  754   1.423   2.501   9.774  0.4230  0.5652  0.2116
    6SAPS   H4Y  755   1.338   2.344   9.751 -0.1252  0.3724 -0.4754
    6SAPS   C35  756   1.515   2.381   9.627 -1.0631  0.0431  0.6113
    6SAPS   H5X  757   1.520   2.277   9.589  0.4088  0.4772 -0.4575
    6SAPS   H5Y  758   1.620   2.411   9.645 -1.0916  0.1038  0.6793
    6SAPS   C36  759   1.451   2.468   9.521  0.4885 -0.2946 -0.4901
    6SAPS   H6X  760   1.489   2.571   9.539 -0.1125 -0.2475  0.5723
    6SAPS   H6Y  761   1.341   2.459   9.528  0.4690 -1.5012 -1.8903
    6SAPS   C37  762   1.479   2.439   9.373 -0.0517  1.0156  0.7180
    6SAPS   H7X  763   1.451   2.335   9.346  1.0732  0.9790 -0.4198
    6SAPS   H7Y  764   1.589   2.444   9.358  0.8234 -4.2987  3.2101
    6SAPS   C38  765   1.411   2.537   9.269 -0.6489 -0.1453 -0.1272
    6SAPS   H8X  766   1.441   2.641   9.294 -0.6570  0.8182 -3.5752
    6SAPS   H8Y  767   1.301   2.527   9.273 -0.5751 -0.5157  1.8086
    6SAPS   C39  768   1.461   2.522   9.122  0.4049  0.1541 -0.3270
    6SAPS   H9X  769   1.419   2.427   9.084 -2.4934  1.8681 -1.7994
    6SAPS   H9Y  770   1.570   2.538   9.113 -0.0199  2.8079 -2.0469
    6SAPS  C310  771   1.405   2.635   9.036 -0.3366 -0.4003 -0.6710
    6SAPS  H10X  772   1.469   2.723   9.058  1.7306 -2.3031  1.4751
    6SAPS  H10Y  773   1.300   2.650   9.070 -0.1303  1.8246 -0.9129
    6SAPS  C311  774   1.397   2.601   8.885 -0.3959 -0.2286  0.7636
    6SAPS  H11X  775   1.325   2.517   8.886  0.1701 -0.7166  0.6842
    6SAPS  H11Y  776   1.501   2.569   8.861 -0.6154  0.0106 -0.5781
    6SAPS  C312  777   1.362   2.722   8.797  0.3777  0.4096  0.5181
    6SAPS  H12X  778   1.433   2.805   8.815  0.8178  0.1716 -0.0865
    6SAPS  H12Y  779   1.265   2.769   8.820 -0.2939  1.6594 -3.9653
    6SAPS  C313  780   1.349   2.684   8.651  0.0300  0.0334  1.0696
    6SAPS  H13X  781   1.285   2.595   8.634  1.2697 -0.9148  1.2413
    6SAPS  H13Y  782   1.449   2.650   8.616  0.3074  2.5864 -0.8537
    6SAPS  C314  783   1.299   2.806   8.566  0.2006 -0.4244 -0.8329
    6SAPS  H14X  784   1.367   2.891   8.586  0.8279  0.1531 -4.6998
    6SAPS  H14Y  785   1.203   2.834   8.615  1.4336  1.3476  0.6987
    6SAPS  C315  786   1.273   2.795   8.416 -0.0167  0.1505  0.1341
    6SAPS  H15X  787   1.163   2.792   8.396  0.2501 -0.1643 -1.4298
    6SAPS  H15Y  788   1.310   2.704   8.365  0.6241  0.3196  0.2957
    6SAPS  C316  789   1.329   2.915   8.332 -0.2413  0.4797 -0.7961
    6SAPS  H16X  790   1.287   3.009   8.376 -0.9942 -0.2622  0.1175
    6SAPS  H16Y  791   1.303   2.890   8.227 -1.7389 -1.6396  0.0167
    6SAPS  C317  792   1.484   2.907   8.329 -0.6512  0.6556  0.0880
    6SAPS  H17X  793   1.511   2.816   8.272  1.1632 -0.4027  2.4430
    6SAPS  H17Y  794   1.525   2.883   8.429  1.5173  3.2435 -0.0643
    6SAPS  C318  795   1.555   3.041   8.295  0.3994 -0.2468 -0.8673
    6SAPS  H18X  796   1.665   3.040   8.304  0.2688 -1.0363  1.5101
    6SAPS  H18Y  797   1.511   3.119   8.361  3.0424 -0.1164  0.8973
    6SAPS  H18Z  798   1.534   3.070   8.190 -3.7731  1.2056  0.1757
    7SAPS     N  799   3.570   3.907  10.765 -0.5814 -0.3440 -0.2264
    7SAPS   HN1  800   3.571   3.889  10.867 -0.4358 -1.1252 -0.3638
    7SAPS   HN2  801   3.555   3.814  10.722  3.5060 -0.8997 -0.8535
    7SAPS   HN3  802   3.666   3.936  10.737  0.4773 -0.4204  2.8885
    7SAPS   C12  803   3.471   4.023  10.729 -0.0004  0.2273 -0.5530
    7SAPS  H12A  804   3.375   3.974  10.733  0.2559 -0.2069  0.8304
    7SAPS   C13  805   3.470   4.142  10.826  0.6564 -0.0989 -0.6014
    7SAPS  O13A  806   3.511   4.119  10.942 -0.5642  0.5012 -0.0625
    7SAPS  O13B  807   3.385   4.236  10.809 -0.0813 -0.0273  0.3205
    7SAPS   C11  808   3.502   4.085  10.591 -1.0614  0.0384 -0.0644
    7SAPS  H11A  809   3.414   4.148  10.565 -2.0672 -0.3041  2.2366
    7SAPS  H11B  810   3.500   4.002  10.517 -0.3714 -0.6327  0.6565
    7SAPS     P  811   3.763   4.105  10.553 -0.0461 -0.5154 -0.0226
    7SAPS   O13  812   3.861   4.214  10.550 -0.0159 -0.0641 -0.0860
    7SAPS   O14  813   3.797   3.998  10.644 -0.1298 -0.0501 -0.4420
    7SAPS   O12  814   3.625   4.163  10.594  0.0379 -0.5027 -0.5091
    7SAPS   O11  815   3.727   4.051  10.406 -0.2150 -1.2309 -0.5162
    7SAPS    C1  816   3.828   3.994  10.332  0.2623 -0.5851  1.0429
    7SAPS    HA  817   3.903   4.069  10.296  0.6397 -1.4000  0.0826
    7SAPS    HB  818   3.887   3.930  10.400 -0.4272 -1.7900  0.5255
    7SAPS    C2  819   3.772   3.899  10.221 -0.2303  0.4739 -0.0497
    7SAPS    HS  820   3.851   3.845  10.164  0.3349  1.2056  0.0200
    7SAPS   O21  821   3.687   3.967  10.129 -0.0384 -0.0533 -0.0307
    7SAPS   C21  822   3.753   4.053  10.053  0.1289  0.4569 -0.1815
    7SAPS   O22  823   3.875   4.059  10.046  0.6618  0.1145  0.7812
    7SAPS   C22  824   3.648   4.128   9.973 -0.3504 -0.1138  0.1039
    7SAPS   H2R  825   3.565   4.065   9.935 -1.6521  1.6951 -0.1917
    7SAPS   H2S  826   3.600   4.185  10.055 -0.2317  0.1027  0.0242
    7SAPS    C3  827   3.687   3.789  10.290 -0.3091 -0.1254  0.1106
    7SAPS    HX  828   3.598   3.835  10.337 -0.9420 -1.1345 -0.0626
    7SAPS    HY  829   3.745   3.744  10.374 -0.0193  0.5792  0.2905
    7SAPS   O31  830   3.655   3.685  10.191 -1.3901 -0.4138  0.1101
    7SAPS   C31  831   3.535   3.695  10.136 -0.3100  0.0122 -0.2796
    7SAPS   O32  832   3.439   3.748  10.191 -0.3994  0.2927 -0.4249
    7SAPS   C32  833   3.533   3.610  10.012  0.2373 -0.1827  0.5929
    7SAPS   H2X  834   3.526   3.503  10.040 -1.1724 -0.4151 -0.5495
    7SAPS   H2Y  835   3.629   3.633   9.961  1.3673  0.0157  2.7225
    7SAPS   C23  836   3.707   4.215   9.865 -0.7124 -0.0679  0.3987
    7SAPS   H3R  837   3.797   4.266   9.904 -0.6016  0.6247 -0.7054
    7SAPS   H3S  838   3.644   4.303   9.840  0.9538  0.7253 -1.2542
    7SAPS   C24  839   3.741   4.147   9.731  0.5402  0.3542  0.0695
    7SAPS   H4R  840   3.791   4.051   9.758 -1.7852 -0.5201  1.5798
    7SAPS   H4S  841   3.803   4.216   9.670  1.1055  0.2370  0.5019
    7SAPS   C25  842   3.616   4.102   9.656 -0.5907  0.1302  0.2072
    7SAPS   H5R  843   3.578   4.000   9.675 -1.3607  0.8130  2.6916
    7SAPS   C26  844   3.553   4.190   9.579 -0.2650  0.1104  0.0854
    7SAPS   H6R  845   3.481   4.145   9.509 -0.1184 -1.9670  1.1807
    7SAPS   C27  846   3.591   4.337   9.551  0.1432 -0.0185 -0.4144
    7SAPS   H7R  847   3.665   4.384   9.619 -1.1465  0.1105  0.9570
    7SAPS   H7S  848   3.495   4.391   9.564  0.0640 -0.4843  1.1715
    7SAPS   C28  849   3.639   4.346   9.411  0.0887 -0.2025  0.4427
    7SAPS   H8R  850   3.724   4.277   9.395 -0.8267 -1.4451  0.8112
    7SAPS   C29  851   3.585   4.417   9.305  0.1746 -0.1829 -0.5155
    7SAPS   H9R  852   3.620   4.380   9.207 -2.8578  1.4006 -2.3148
    7SAPS  C210  853   3.478   4.519   9.301 -0.0870 -0.0113  0.9908
    7SAPS  H10R  854   3.525   4.618   9.281 -3.2341  1.6885  1.3309
    7SAPS  H10S  855   3.434   4.523   9.403  1.2786 -0.4040  1.6112
    7SAPS  C211  856   3.371   4.474   9.204  0.1191  0.2043  0.9630
    7SAPS  H11R  857   3.290   4.423   9.257  0.3569  0.5303  1.6492
    7SAPS  C212  858   3.364   4.490   9.067 -0.4145 -0.4532 -0.3928
    7SAPS  H12R  859   3.284   4.436   9.015  1.3104 -2.9308 -0.6602
    7SAPS  C213  860   3.468   4.559   8.982  0.1534 -0.0333  0.3149
    7SAPS  H13R  861   3.502   4.483   8.908 -0.8593  1.4385 -1.7741
    7SAPS  H13S  862   3.556   4.593   9.040  0.6281 -0.0308 -0.3909
    7SAPS  C214  863   3.416   4.675   8.902  0.0335 -0.1952 -0.0034
    7SAPS  H14R  864   3.322   4.724   8.932 -0.2183  0.8111 -2.2011
    7SAPS  C215  865   3.475   4.728   8.801  0.1903 -0.2075  0.2194
    7SAPS  H15R  866   3.436   4.823   8.761  1.1097  0.0020 -0.2155
    7SAPS  C216  867   3.604   4.684   8.734 -0.1190 -0.3406 -0.8339
    7SAPS  H16R  868   3.665   4.621   8.804  1.1831  2.3816  0.6547
    7SAPS  H16S  869   3.672   4.769   8.712  1.0669 -0.8108  0.7299
    7SAPS  C217  870   3.588   4.593   8.607 -0.0006 -0.1537 -0.3244
    7SAPS  H17R  871   3.513   4.641   8.541  0.7326  1.5747  0.0621
    7SAPS  H17S  872   3.553   4.489   8.626 -1.9449  0.7163  1.2503
    7SAPS  C218  873   3.728   4.580   8.534  0.3035  0.8748 -0.0285
    7SAPS  H18R  874   3.806   4.558   8.610  0.0879  0.0119 -0.0484
    7SAPS  H18S  875   3.759   4.679   8.494 -0.1285 -0.0198 -2.8256
    7SAPS  C219  876   3.744   4.485   8.411 -0.1508 -0.2891  0.6644
    7SAPS  H19R  877   3.723   4.382   8.448 -2.3343 -0.4544 -0.8436
    7SAPS  H19S  878   3.845   4.480   8.365 -0.8141 -0.8690 -0.7870
    7SAPS  C220  879   3.631   4.499   8.303 -0.4262 -0.0036  0.3389
    7SAPS  H20R  880   3.670   4.435   8.221  0.3476 -0.0683  0.7454
    7SAPS  H20S  881   3.612   4.604   8.270 -0.7507 -0.6053 -1.5394
    7SAPS  H20T  882   3.533   4.452   8.327 -0.1496 -1.1451 -0.6670
    7SAPS   C33  883   3.415   3.642   9.913  0.1445 -0.6318  0.0381
    7SAPS   H3X  884   3.323   3.657   9.975  1.5357  1.4724  1.7179
    7SAPS   H3Y  885   3.408   3.556   9.843 -1.9929 -0.4336 -0.0821
    7SAPS   C34  886   3.436   3.769   9.839  0.2664  0.1003  1.0026
    7SAPS   H4X  887   3.528   3.775   9.777 -1.8928  3.5494 -2.3773
    7SAPS   H4Y  888   3.454   3.854   9.909  1.7104 -0.4174  1.2769
    7SAPS   C35  889   3.317   3.817   9.755  0.8213 -0.3266  0.1632
    7SAPS   H5X  890   3.329   3.925   9.732 -2.0035  0.4536  1.7821
    7SAPS   H5Y  891   3.223   3.805   9.814  0.7085 -0.2672 -0.0077
    7SAPS   C36  892   3.306   3.749   9.621  0.2327  0.0260  0.5791
    7SAPS   H6X  893   3.302   3.640   9.640 -0.9508 -0.5753 -2.5418
    7SAPS   H6Y  894   3.405   3.762   9.572  0.9599  0.7503  2.1650
    7SAPS   C37  895   3.174   3.788   9.548  1.1715  0.1935  0.8786
    7SAPS   H7X  896   3.151   3.894   9.571  0.3291  0.6927 -1.8284
    7SAPS   H7Y  897   3.091   3.720   9.575  0.0601  1.0807 -0.1418
    7SAPS   C38  898   3.190   3.771   9.396  0.7314  0.6619 -0.7394
    7SAPS   H8X  899   3.089   3.788   9.353  0.0514 -3.9572 -1.5217
    7SAPS   H8Y  900   3.221   3.670   9.364 -1.8988  0.3207 -2.5388
    7SAPS   C39  901   3.285   3.870   9.334 -0.1348 -0.4053  0.1282
    7SAPS   H9X  902   3.390   3.854   9.367 -0.7886 -2.1037  1.5650
    7SAPS   H9Y  903   3.258   3.967   9.379  0.7487  0.4496 -1.1207
    7SAPS  C310  904   3.275   3.893   9.186  0.1097  0.5076  0.0343
    7SAPS  H10X  905   3.168   3.896   9.156 -0.4316 -2.1960  1.3576
    7SAPS  H10Y  906   3.323   3.812   9.128 -1.5890  0.3520 -1.2083
    7SAPS  C311  907   3.339   4.025   9.152  0.1979  0.4024 -0.2776
    7SAPS  H11X  908   3.446   4.020   9.183 -0.2212  0.1926  1.2454
    7SAPS  H11Y  909   3.292   4.107   9.210 -2.5721  0.4767 -2.3972
    7SAPS  C312  910   3.353   4.060   9.006 -1.5336  0.3594  0.3307
    7SAPS  H12X  911   3.278   4.138   8.982 -2.3847 -0.9989 -1.8187
    7SAPS  H12Y  912   3.319   3.978   8.939  0.7668  1.1136 -1.9248
    7SAPS  C313  913   3.489   4.107   8.955  0.5074 -0.3313 -0.7699
    7SAPS  H13X  914   3.562   4.028   8.980 -0.3257 -0.8893 -0.0351
    7SAPS  H13Y  915   3.517   4.193   9.019 -2.9730  0.9745 -0.7596
    7SAPS  C314  916   3.497   4.161   8.809  0.2853  0.0558  0.3406
    7SAPS  H14X  917   3.400   4.213   8.789 -0.5611 -0.5308  2.5793
    7SAPS  H14Y  918   3.500   4.079   8.734 -1.7043 -1.0798  1.4279
    7SAPS  C315  919   3.619   4.248   8.789 -0.2911 -0.6789  0.5749
    7SAPS  H15X  920   3.627   4.318   8.875  1.4166 -1.9841  1.5395
    7SAPS  H15Y  921   3.615   4.319   8.703 -2.0716 -0.1559  1.0341
    7SAPS  C316  922   3.759   4.175   8.785  0.0498  0.2517 -0.0666
    7SAPS  H16X  923   3.766   4.120   8.688  0.0077  0.2313 -0.0576
    7SAPS  H16Y  924   3.748   4.098   8.864 -0.3367 -0.9259 -1.2117
    7SAPS  C317  925   3.869   4.275   8.797 -0.7316 -0.0481 -0.2693
    7SAPS  H17X  926   3.885   4.301   8.904  0.0202  0.3591 -0.4788
    7SAPS  H17Y  927   3.842   4.368   8.744  0.9093 -0.3373 -1.7056
    7SAPS  C318  928   4.005   4.218   8.759  0.2290  0.2145 -0.0434
    7SAPS  H18X  929   4.006   4.186   8.653 -0.8716 -0.8701  0.2450
    7SAPS  H18Y  930   4.005   4.120   8.812  2.4626 -1.4767 -2.9046
    7SAPS  H18Z  931   4.091   4.279   8.793 -0.0516  1.7333 -1.8948
    8SAPS     N  932   0.119   6.217  11.441  0.2565  0.1049  0.1448
    8SAPS   HN1  933   0.093   6.300  11.498 -0.0504 -0.9094  1.5254
    8SAPS   HN2  934   0.025   6.180  11.418  0.6615 -1.3098  0.6362
    8SAPS   HN3  935   0.171   6.151  11.503 -1.0336 -0.5854  0.5276
    8SAPS   C12  936   0.193   6.268  11.322 -0.0767 -0.3888 -0.4098
    8SAPS  H12A  937   0.288   6.300  11.363 -0.4204  1.0460 -0.6793
    8SAPS   C13  938   0.230   6.171  11.213  0.9675  0.7710 -0.2231
    8SAPS  O13A  939   0.202   6.046  11.228 -0.0141 -0.2962 -0.4622
    8SAPS  O13B  940   0.303   6.206  11.120 -0.5293 -0.0863  0.0342
    8SAPS   C11  941   0.117   6.388  11.252 -0.5741  0.0364  0.2736
    8SAPS  H11A  942   0.189   6.422  11.174  1.1687  0.7905  2.1311
    8SAPS  H11B  943   0.096   6.470  11.324 -0.7627  1.0516 -0.9061
    8SAPS     P  944  -0.071   6.424  11.072 -0.5087  0.0390 -0.3383
    8SAPS   O13  945  -0.217   6.422  11.093 -0.7929  0.6027  0.2699
    8SAPS   O14  946  -0.005   6.555  11.055 -0.4939  0.8022 -0.9961
    8SAPS   O12  947  -0.006   6.350  11.198 -0.3844  0.4845  0.3349
    8SAPS   O11  948  -0.038   6.325  10.956  0.2867 -0.5627 -0.0742
    8SAPS    C1  949  -0.039   6.182  10.963 -0.9794  0.0619 -0.3411
    8SAPS    HA  950   0.037   6.153  11.038 -1.4381 -0.1069  0.0609
    8SAPS    HB  951  -0.134   6.145  11.008  0.1514 -1.3085  1.0363
    8SAPS    C2  952  -0.014   6.108  10.832  0.0711  0.0961  0.2329
    8SAPS    HS  953   0.084   6.141  10.792  0.6035 -2.1033 -0.4430
    8SAPS   O21  954  -0.132   6.132  10.747 -0.4024  0.3556 -0.3791
    8SAPS   C21  955  -0.103   6.180  10.625 -0.7978  0.4151  0.2569
    8SAPS   O22  956   0.012   6.186  10.579  0.0019 -0.2576  0.1979
    8SAPS   C22  957  -0.223   6.220  10.546  0.3875 -0.0095 -1.4158
    8SAPS   H2R  958  -0.285   6.290  10.607  2.3334  0.9740 -0.4660
    8SAPS   H2S  959  -0.188   6.280  10.459 -1.2620 -0.5966 -2.5174
    8SAPS    C3  960  -0.002   5.957  10.850 -0.3721  0.3808  0.4850
    8SAPS    HX  961  -0.072   5.931  10.932  1.1229 -1.4293  1.2522
    8SAPS    HY  962   0.105   5.948  10.877 -0.2121  2.1845  0.5367
    8SAPS   O31  963  -0.037   5.869  10.739 -0.2874  0.0737 -0.0944
    8SAPS   C31  964   0.061   5.817  10.667 -0.3110 -0.4774  0.1804
    8SAPS   O32  965   0.178   5.850  10.675 -0.8192  0.0974  0.4350
    8SAPS   C32  966   0.008   5.697  10.592  0.0379 -0.1608  0.4569
    8SAPS   H2X  967  -0.101   5.714  10.577  0.1647  0.3314  0.0698
    8SAPS   H2Y  968   0.017   5.611  10.662  0.0023  0.6435  1.4758
    8SAPS   C23  969  -0.316   6.108  10.491 -0.2065 -0.1254 -0.3987
    8SAPS   H3R  970  -0.371   6.063  10.577  2.1821  1.9229  2.3727
    8SAPS   H3S  971  -0.256   6.029  10.441 -1.5615 -2.2446  1.0952
    8SAPS   C24  972  -0.396   6.168  10.376  0.8281  0.0178  0.8824
    8SAPS   H4R  973  -0.445   6.093  10.310  3.4917  0.6519 -2.1147
    8SAPS   H4S  974  -0.327   6.217  10.304  0.2439 -1.3640 -0.6792
    8SAPS   C25  975  -0.498   6.273  10.429 -0.4176  0.0461  0.5745
    8SAPS   H5R  976  -0.458   6.343  10.505  0.3545 -0.8715  1.0366
    8SAPS   C26  977  -0.624   6.295  10.390 -1.0649  0.1685 -0.1637
    8SAPS   H6R  978  -0.682   6.385  10.419 -0.5121 -0.1823  2.2578
    8SAPS   C27  979  -0.701   6.220  10.281  0.0748 -0.1593 -0.5548
    8SAPS   H7R  980  -0.653   6.121  10.268 -0.8499 -0.6002 -0.6516
    8SAPS   H7S  981  -0.688   6.288  10.195 -3.9976  0.6361 -0.7117
    8SAPS   C28  982  -0.844   6.196  10.318  0.4118  0.3855  0.2410
    8SAPS   H8R  983  -0.868   6.193  10.425  0.5948  0.6648  0.2920
    8SAPS   C29  984  -0.944   6.161  10.232 -0.1222 -0.0991 -0.2455
    8SAPS   H9R  985  -1.043   6.141  10.277 -1.1784  1.4231 -1.7587
    8SAPS  C210  986  -0.929   6.148  10.081  0.1610  1.0096  0.7184
    8SAPS  H10R  987  -0.898   6.043  10.063 -1.6881  0.4915  0.3358
    8SAPS  H10S  988  -0.847   6.214  10.045 -1.0309  1.1562 -2.0218
    8SAPS  C211  989  -1.051   6.175   9.999  0.3308 -0.2824  0.0927
    8SAPS  H11R  990  -1.128   6.223  10.062  1.3688  2.7575 -0.7527
    8SAPS  C212  991  -1.069   6.135   9.868 -0.1341 -0.2450 -0.2165
    8SAPS  H12R  992  -1.164   6.153   9.817  0.8679  1.5089 -1.5564
    8SAPS  C213  993  -0.965   6.071   9.782  0.4689  0.1651  0.2923
    8SAPS  H13R  994  -0.861   6.099   9.811  0.8903  0.9638 -1.8094
    8SAPS  H13S  995  -0.964   6.107   9.677  2.0520 -0.0754  0.1883
    8SAPS  C214  996  -0.963   5.926   9.778 -0.5936  0.2217  0.0203
    8SAPS  H14R  997  -0.986   5.893   9.881 -2.0648  1.9158  0.2828
    8SAPS  C215  998  -0.944   5.845   9.668 -1.4456 -0.2916  0.1160
    8SAPS  H15R  999  -0.948   5.736   9.679 -1.4590 -0.2155  0.9028
    8SAPS  C216 1000  -0.920   5.897   9.526  0.5050  0.4216 -0.0511
    8SAPS  H16R 1001  -0.997   5.975   9.512 -0.5934 -0.2742  1.6918
    8SAPS  H16S 1002  -0.932   5.812   9.455 -0.0913 -0.8728  1.5284
    8SAPS  C217 1003  -0.780   5.960   9.505 -0.1912  0.2449  0.5946
    8SAPS  H17R 1004  -0.701   5.883   9.521 -0.6122 -0.4653 -0.5990
    8SAPS  H17S 1005  -0.762   6.038   9.582  2.6268 -0.5918  0.9082
    8SAPS  C218 1006  -0.757   6.031   9.373 -0.2065 -0.2721 -0.1616
    8SAPS  H18R 1007  -0.663   6.091   9.380 -0.3137 -0.1685  0.4467
    8SAPS  H18S 1008  -0.834   6.111   9.363  0.5043  0.6064  1.0531
    8SAPS  C219 1009  -0.754   5.936   9.260  0.0496 -0.2109 -0.1050
    8SAPS  H19R 1010  -0.851   5.886   9.241  0.5366 -0.6646 -1.5141
    8SAPS  H19S 1011  -0.692   5.846   9.279 -0.7788 -0.6728  0.4799
    8SAPS  C220 1012  -0.709   5.999   9.123  0.3718  0.7461 -0.3031
    8SAPS  H20R 1013  -0.772   6.085   9.090  0.1506  0.3974 -0.8032
    8SAPS  H20S 1014  -0.711   5.917   9.048  1.4903 -1.2481  1.7050
    8SAPS  H20T 1015  -0.602   6.031   9.127  0.2172  1.1295  1.4308
    8SAPS   C33 1016   0.061   5.656  10.455  0.1167  0.4732 -0.3362
    8SAPS   H3X 1017   0.029   5.553  10.427 -1.8581  0.5921  1.3076
    8SAPS   H3Y 1018   0.172   5.661  10.464 -0.0981  1.8891  2.3351
    8SAPS   C34 1019   0.008   5.739  10.341 -0.5220  0.1077  0.0838
    8SAPS   H4X 1020   0.053   5.839  10.360 -0.0496 -0.0790 -0.0271
    8SAPS   H4Y 1021  -0.099   5.765  10.353 -0.9193 -1.7380  0.8850
    8SAPS   C35 1022   0.035   5.680  10.203 -0.1267 -0.2180  0.6190
    8SAPS   H5X 1023  -0.029   5.593  10.177 -0.4414  0.6914 -1.9032
    8SAPS   H5Y 1024   0.143   5.652  10.207  0.4403  1.3505 -1.6835
    8SAPS   C36 1025   0.018   5.779  10.084 -0.1970  0.4524 -1.1392
    8SAPS   H6X 1026   0.076   5.870  10.109 -1.3041  0.0684  4.0194
    8SAPS   H6Y 1027  -0.088   5.812  10.080  0.0269  1.8452  1.7280
    8SAPS   C37 1028   0.048   5.714   9.952  0.2298  0.6749  0.4085
    8SAPS   H7X 1029  -0.034   5.646   9.921  0.8412  0.0665  0.1105
    8SAPS   H7Y 1030   0.144   5.659   9.956  1.3667  2.5812  0.3917
    8SAPS   C38 1031   0.061   5.821   9.841  0.0572 -0.3993  0.4701
    8SAPS   H8X 1032   0.126   5.904   9.877  0.5587 -0.3028 -0.6300
    8SAPS   H8Y 1033  -0.037   5.864   9.810  0.3284  1.6686  2.1812
    8SAPS   C39 1034   0.118   5.760   9.712 -0.4897 -0.2946  0.3634
    8SAPS   H9X 1035   0.072   5.660   9.697 -1.5214  0.4579 -1.8267
    8SAPS   H9Y 1036   0.226   5.735   9.727 -0.4100 -0.5498 -0.5855
    8SAPS  C310 1037   0.089   5.845   9.583  0.3752 -0.3169 -0.0482
    8SAPS  H10X 1038   0.145   5.940   9.599 -1.6064  1.1763 -1.4965
    8SAPS  H10Y 1039  -0.020   5.864   9.576  0.4884 -0.0573 -1.4395
    8SAPS  C311 1040   0.125   5.775   9.460 -0.3727 -0.1244  0.8812
    8SAPS  H11X 1041   0.065   5.684   9.436  2.1594 -1.6418 -0.0770
    8SAPS  H11Y 1042   0.222   5.724   9.477 -0.9595 -1.4548  0.4506
    8SAPS  C312 1043   0.127   5.848   9.324 -0.3529 -0.4716  0.9392
    8SAPS  H12X 1044   0.180   5.946   9.328 -1.0784  0.2120 -2.7948
    8SAPS  H12Y 1045   0.023   5.868   9.290 -0.0554  1.7297  1.2107
    8SAPS  C313 1046   0.196   5.763   9.211  0.8895  0.1574  0.4604
    8SAPS  H13X 1047   0.152   5.661   9.216 -1.0498  0.9268 -0.0314
    8SAPS  H13Y 1048   0.306   5.773   9.222  0.5673  1.6806  2.9263
    8SAPS  C314 1049   0.164   5.823   9.067  0.7404 -0.3036  0.3548
    8SAPS  H14X 1050   0.227   5.915   9.061 -0.6370  0.9745  3.3935
    8SAPS  H14Y 1051   0.056   5.850   9.062  0.9568  0.6117  0.4698
    8SAPS  C315 1052   0.200   5.730   8.954 -0.4728  0.2161 -0.1009
    8SAPS  H15X 1053   0.117   5.657   8.943 -2.0421  1.8603  0.3551
    8SAPS  H15Y 1054   0.287   5.671   8.990 -0.8654 -0.5213 -0.3540
    8SAPS  C316 1055   0.228   5.790   8.817  0.1336 -0.3977 -0.1638
    8SAPS  H16X 1056   0.329   5.835   8.812  0.7062 -1.6410 -0.2296
    8SAPS  H16Y 1057   0.161   5.879   8.814 -0.1048 -0.3086  3.4905
    8SAPS  C317 1058   0.194   5.706   8.696 -0.7017  0.1883 -0.1181
    8SAPS  H17X 1059   0.085   5.718   8.678 -0.6214  0.7611 -0.2491
    8SAPS  H17Y 1060   0.220   5.600   8.714 -0.3118  0.2581 -0.2399
    8SAPS  C318 1061   0.255   5.768   8.566 -0.3229  0.4237 -0.0839
    8SAPS  H18X 1062   0.365   5.780   8.575  0.2280 -3.5509  0.2470
    8SAPS  H18Y 1063   0.207   5.868   8.568  1.1290  1.1382  0.4993
    8SAPS  H18Z 1064   0.229   5.709   8.476 -0.2027  0.6315 -0.2566
    9SAPS     N 1065   3.237   2.002   6.439 -0.0917  0.2016 -0.0009
    9SAPS   HN1 1066   3.249   1.930   6.513 -3.1323 -0.4272 -0.0054
    9SAPS   HN2 1067   3.260   2.095   6.479 -0.4772  1.4877 -2.5602
    9SAPS   HN3 1068   3.136   2.003   6.415 -1.3209  3.2034  4.2017
    9SAPS   C12 1069   3.342   1.983   6.340  0.4016 -0.6492 -0.4803
    9SAPS  H12A 1070   3.306   1.900   6.281 -2.8979  1.8466 -2.3026
    9SAPS   C13 1071   3.358   2.097   6.241  0.4568  0.4438 -0.1245
    9SAPS  O13A 1072   3.267   2.185   6.233  0.2562 -0.4293  0.0873
    9SAPS  O13B 1073   3.439   2.079   6.143 -0.3575  0.1040  0.1912
    9SAPS   C11 1074   3.468   1.941   6.412  0.9138 -0.7179 -0.3100
    9SAPS  H11A 1075   3.483   2.023   6.484 -1.5774  0.7716 -1.3466
    9SAPS  H11B 1076   3.547   1.930   6.335  0.7559  0.5428 -0.6687
    9SAPS     P 1077   3.577   1.750   6.568  0.3573  0.1821  0.0356
    9SAPS   O13 1078   3.528   1.644   6.659  0.2258  0.0154  0.5018
    9SAPS   O14 1079   3.680   1.702   6.472  0.3330  0.1015  0.4709
    9SAPS   O12 1080   3.457   1.810   6.476 -0.0079  0.4309 -0.2224
    9SAPS   O11 1081   3.630   1.869   6.645 -0.5435  0.3244 -0.1098
    9SAPS    C1 1082   3.579   1.905   6.771  0.3982  0.4710  0.2280
    9SAPS    HA 1083   3.470   1.886   6.761  0.7102 -0.5898 -1.6555
    9SAPS    HB 1084   3.619   1.835   6.848  2.4123  0.1116 -1.0856
    9SAPS    C2 1085   3.603   2.050   6.795 -0.0806 -0.2928 -0.1951
    9SAPS    HS 1086   3.612   2.108   6.700  1.3398  2.1483  1.3243
    9SAPS   O21 1087   3.728   2.066   6.870  0.6409 -0.0870  0.1690
    9SAPS   C21 1088   3.839   2.022   6.815  0.2966 -0.5098 -0.4197
    9SAPS   O22 1089   3.863   2.001   6.696  0.3361  0.3805  0.0188
    9SAPS   C22 1090   3.935   1.996   6.934  0.2623  0.7748  0.5745
    9SAPS   H2R 1091   3.905   2.060   7.019  1.3810  0.3520  1.3047
    9SAPS   H2S 1092   3.922   1.887   6.955 -0.7079  0.5356 -1.0541
    9SAPS    C3 1093   3.487   2.121   6.873 -0.1816 -0.2577  0.1125
    9SAPS    HX 1094   3.396   2.110   6.811  0.8460 -1.9333 -1.2002
    9SAPS    HY 1095   3.508   2.230   6.878  1.3641 -0.5409  0.5829
    9SAPS   O31 1096   3.467   2.078   7.009 -0.2931  0.3563  0.8046
    9SAPS   C31 1097   3.361   1.994   7.026 -0.3533 -0.4358  0.3561
    9SAPS   O32 1098   3.287   1.958   6.935  0.6776 -0.4139  0.0465
    9SAPS   C32 1099   3.362   1.941   7.162  0.2190 -0.1002 -1.2037
    9SAPS   H2X 1100   3.381   1.832   7.156  0.9322  0.0101 -1.0408
    9SAPS   H2Y 1101   3.256   1.942   7.195  0.1846 -0.3698 -1.3082
    9SAPS   C23 1102   4.083   2.012   6.892 -0.9973 -0.2796  0.5748
    9SAPS   H3R 1103   4.105   2.119   6.874 -0.1467  0.1005  3.3979
    9SAPS   H3S 1104   4.109   1.958   6.798  2.7724  1.6036  0.3342
    9SAPS   C24 1105   4.175   1.974   7.007  0.4383 -0.6305  0.2832
    9SAPS   H4R 1106   4.281   1.970   6.975  0.7238  2.5379  0.5065
    9SAPS   H4S 1107   4.145   1.876   7.050 -2.5518  0.4251  0.8455
    9SAPS   C25 1108   4.177   2.085   7.108 -0.0646 -0.8444 -0.3305
    9SAPS   H5R 1109   4.209   2.181   7.066  0.9481 -2.0516 -2.4943
    9SAPS   C26 1110   4.117   2.082   7.226 -0.8142  0.1184 -0.7184
    9SAPS   H6R 1111   4.118   2.175   7.285 -1.1903 -0.4241  0.1667
    9SAPS   C27 1112   4.043   1.971   7.293  0.5188 -0.0432 -0.0225
    9SAPS   H7R 1113   4.081   1.964   7.398  1.0503  0.1869 -0.1960
    9SAPS   H7S 1114   4.070   1.871   7.253  0.7421  0.4274 -1.0830
    9SAPS   C28 1115   3.891   1.987   7.290  0.6857  0.0469 -0.3158
    9SAPS   H8R 1116   3.850   2.027   7.197 -1.7256 -0.4191  0.4731
    9SAPS   C29 1117   3.803   1.943   7.387  0.0846  0.3149 -0.0696
    9SAPS   H9R 1118   3.694   1.940   7.371 -0.0677 -0.7353  1.0528
    9SAPS  C210 1119   3.835   1.894   7.522 -0.4685 -0.1087  0.8320
    9SAPS  H10R 1120   3.904   1.807   7.512 -0.8647 -0.4076  0.7058
    9SAPS  H10S 1121   3.744   1.852   7.568 -0.6212 -1.3846 -0.5532
    9SAPS  C211 1122   3.897   1.987   7.621  0.6049  0.2336  1.1854
    9SAPS  H11R 1123   3.962   2.064   7.576 -1.8729  1.6782 -0.1159
    9SAPS  C212 1124   3.876   1.998   7.751 -0.5020  0.7349 -0.6507
    9SAPS  H12R 1125   3.938   2.074   7.800  1.5998 -0.1630 -1.7605
    9SAPS  C213 1126   3.785   1.914   7.841  0.0764  0.8022  0.1102
    9SAPS  H13R 1127   3.701   1.875   7.779 -0.1228  2.8677 -1.0070
    9SAPS  H13S 1128   3.728   1.978   7.912 -1.2594 -1.5137  1.2472
    9SAPS  C214 1129   3.855   1.797   7.919  0.6711 -0.3701  0.3519
    9SAPS  H14R 1130   3.877   1.702   7.869  1.7374 -0.0858  0.2486
    9SAPS  C215 1131   3.882   1.797   8.050  0.4862 -0.7611 -0.8498
    9SAPS  H15R 1132   3.921   1.707   8.099  1.7379 -0.5140 -1.3580
    9SAPS  C216 1133   3.851   1.914   8.154 -0.3045 -0.0964  1.0941
    9SAPS  H16R 1134   3.815   2.015   8.123 -1.0857 -0.6834  0.0449
    9SAPS  H16S 1135   3.947   1.922   8.210 -0.4758 -0.8360  1.5074
    9SAPS  C217 1136   3.740   1.869   8.256 -0.0276  0.0003 -0.1851
    9SAPS  H17R 1137   3.744   1.937   8.343  0.1748  0.7840 -0.7974
    9SAPS  H17S 1138   3.793   1.783   8.303 -0.3160 -0.1322 -0.0980
    9SAPS  C218 1139   3.598   1.850   8.196 -0.0678  0.5668 -0.2951
    9SAPS  H18R 1140   3.542   1.772   8.252 -0.7289  2.6580  2.1278
    9SAPS  H18S 1141   3.611   1.817   8.091  0.0513  0.4158 -0.2324
    9SAPS  C219 1142   3.515   1.979   8.189  0.1235 -0.2401  0.1196
    9SAPS  H19R 1143   3.563   2.056   8.126 -1.2963  0.1382 -0.5461
    9SAPS  H19S 1144   3.520   2.027   8.290 -0.8255  2.0612 -0.8438
    9SAPS  C220 1145   3.374   1.953   8.130 -0.1065  0.4822  0.8933
    9SAPS  H20R 1146   3.306   2.041   8.120 -0.4861  0.0013 -1.2772
    9SAPS  H20S 1147   3.319   1.871   8.181 -1.8859  1.5305  0.7458
    9SAPS  H20T 1148   3.379   1.910   8.028 -0.8496  1.8222  0.2557
    9SAPS   C33 1149   3.430   2.033   7.272  0.4277 -0.1315  0.3643
    9SAPS   H3X 1150   3.386   2.135   7.261  1.7850  0.6091  1.5163
    9SAPS   H3Y 1151   3.537   2.033   7.242  1.0831  0.1848  2.5441
    9SAPS   C34 1152   3.424   1.989   7.414  0.5104 -0.1713  0.1417
    9SAPS   H4X 1153   3.491   2.056   7.472 -0.7615  0.2642  1.1606
    9SAPS   H4Y 1154   3.488   1.898   7.421 -0.8488 -1.2524 -0.9350
    9SAPS   C35 1155   3.283   1.968   7.470 -0.3210  0.1094 -0.0106
    9SAPS   H5X 1156   3.235   1.893   7.404  0.6383 -1.1993  0.7478
    9SAPS   H5Y 1157   3.228   2.064   7.465 -0.2669  0.2278  1.2483
    9SAPS   C36 1158   3.273   1.910   7.614 -0.4205  0.8140 -0.0077
    9SAPS   H6X 1159   3.342   1.967   7.680  1.3427 -0.2043 -0.8947
    9SAPS   H6Y 1160   3.291   1.801   7.613 -2.8234  0.3500  1.2301
    9SAPS   C37 1161   3.141   1.929   7.689  0.0211 -0.0054 -0.8159
    9SAPS   H7X 1162   3.060   1.864   7.651 -0.6986  2.0554 -3.1338
    9SAPS   H7Y 1163   3.104   2.033   7.671  0.8666  0.5567  0.5733
    9SAPS   C38 1164   3.163   1.907   7.844 -1.5194  0.4895  0.8254
    9SAPS   H8X 1165   3.212   1.999   7.882  0.0515 -0.2860  0.7462
    9SAPS   H8Y 1166   3.229   1.821   7.866  0.0576  1.9256  1.9541
    9SAPS   C39 1167   3.040   1.868   7.920  0.2751 -0.4876 -0.1647
    9SAPS   H9X 1168   2.998   1.783   7.862 -0.3318  0.9571 -1.9433
    9SAPS   H9Y 1169   2.965   1.945   7.893 -2.3053 -1.0097  4.4859
    9SAPS  C310 1170   3.041   1.844   8.071  0.5718 -0.3912 -0.1359
    9SAPS  H10X 1171   3.093   1.925   8.126  0.0625 -1.5090  2.1012
    9SAPS  H10Y 1172   3.113   1.760   8.084 -0.0686 -0.7619  1.1624
    9SAPS  C311 1173   2.910   1.796   8.131 -0.5161  0.0672  0.5379
    9SAPS  H11X 1174   2.870   1.713   8.068  4.5471 -1.8413 -0.5848
    9SAPS  H11Y 1175   2.842   1.883   8.123  0.0636  0.5337  0.6589
    9SAPS  C312 1176   2.917   1.748   8.275 -0.4855 -0.0016  0.2608
    9SAPS  H12X 1177   2.941   1.834   8.342 -1.5232  0.1421  0.4600
    9SAPS  H12Y 1178   2.989   1.663   8.282  0.9728  1.1747  0.0989
    9SAPS  C313 1179   2.785   1.686   8.335  0.0796 -0.7832 -0.4680
    9SAPS  H13X 1180   2.752   1.600   8.273 -2.4123  0.0444 -0.3678
    9SAPS  H13Y 1181   2.701   1.758   8.339  0.5426 -0.2998  1.8267
    9SAPS  C314 1182   2.793   1.632   8.475  0.4995 -1.1076  0.3137
    9SAPS  H14X 1183   2.860   1.544   8.471  0.1833 -1.3030 -1.0901
    9SAPS  H14Y 1184   2.691   1.596   8.502 -2.2253  3.8591 -1.9501
    9SAPS  C315 1185   2.844   1.742   8.569  0.6723  0.0359  0.1065
    9SAPS  H15X 1186   2.777   1.831   8.571 -0.2139 -0.6122  2.4141
    9SAPS  H15Y 1187   2.947   1.778   8.549  0.9477 -0.7737  0.0311
    9SAPS  C316 1188   2.856   1.702   8.720  0.0317 -0.5070 -0.2481
    9SAPS  H16X 1189   2.908   1.604   8.714  0.4053 -0.2165 -2.4145
    9SAPS  H16Y 1190   2.752   1.679   8.750 -0.3000 -0.7447 -1.5524
    9SAPS  C317 1191   2.910   1.808   8.821  0.4932 -0.2658  0.1753
    9SAPS  H17X 1192   2.841   1.895   8.825  0.7450 -0.0267 -0.4760
    9SAPS  H17Y 1193   3.011   1.836   8.785 -0.1957  0.1693 -1.5463
    9SAPS  C318 1194   2.912   1.747   8.960 -0.3274  0.8068 -0.3847
    9SAPS  H18X 1195   2.814   1.697   8.976  1.0971 -2.2773 -0.6392
    9SAPS  H18Y 1196   2.933   1.823   9.038  2.7342  1.2447 -1.4763
    9SAPS  H18Z 1197   2.993   1.672   8.970 -0.2172  1.1745  1.7995
   10SAPS     N 1198   3.094   0.822   6.051 -0.3360  0.1682 -0.1524
   10SAPS   HN1 1199   3.045   0.784   5.967 -0.6798  0.2159  0.0242
   10SAPS   HN2 1200   3.193   0.791   6.055 -0.5540 -0.5013  0.1686
   10SAPS   HN3 1201   3.053   0.775   6.134  0.5351 -1.9239 -0.8392
   10SAPS   C12 1202   3.105   0.968   6.055  0.3628 -0.0636 -0.3104
   10SAPS  H12A 1203   3.206   0.998   6.033  0.2428 -1.0854 -2.4938
   10SAPS   C13 1204   3.005   1.044   5.955 -0.1547 -0.3901 -0.7404
   10SAPS  O13A 1205   2.925   0.982   5.883  0.7993 -0.2164  0.4867
   10SAPS  O13B 1206   3.025   1.166   5.929 -0.5029 -0.2697 -0.5331
   10SAPS   C11 1207   3.071   1.025   6.195 -0.1292  0.5122 -0.6584
   10SAPS  H11A 1208   2.972   0.990   6.232 -1.6182  3.1880 -1.8011
   10SAPS  H11B 1209   3.066   1.136   6.192 -1.0185  0.5282  0.7686
   10SAPS     P 1210   3.298   1.066   6.330  0.0408 -0.0521 -0.2605
   10SAPS   O13 1211   3.396   1.082   6.219  0.1560 -0.0931 -0.1735
   10SAPS   O14 1212   3.251   1.189   6.394  0.1388  0.2940 -1.3145
   10SAPS   O12 1213   3.173   0.977   6.286  0.4445 -0.1008  0.0927
   10SAPS   O11 1214   3.378   0.974   6.434  0.1817  0.7568  0.0595
   10SAPS    C1 1215   3.296   0.891   6.515  0.4834  0.6917 -0.2723
   10SAPS    HA 1216   3.197   0.936   6.541 -0.1699 -0.5174 -0.5817
   10SAPS    HB 1217   3.264   0.803   6.456  0.9441 -1.9482  3.0916
   10SAPS    C2 1218   3.358   0.832   6.647  0.3643  1.1566 -0.1906
   10SAPS    HS 1219   3.380   0.921   6.710 -0.9496  0.0315  1.9726
   10SAPS   O21 1220   3.479   0.764   6.607  0.0660 -0.5180 -0.1435
   10SAPS   C21 1221   3.573   0.770   6.700  0.5947  0.4699 -0.4034
   10SAPS   O22 1222   3.593   0.848   6.789  0.7301  0.1289 -0.0668
   10SAPS   C22 1223   3.682   0.672   6.664  0.2086 -0.4608  0.2971
   10SAPS   H2R 1224   3.639   0.573   6.636  1.0893 -0.5761 -0.7446
   10SAPS   H2S 1225   3.732   0.713   6.574 -2.0993 -0.1938 -0.9369
   10SAPS    C3 1226   3.264   0.731   6.724  0.0246  0.7382 -0.3007
   10SAPS    HX 1227   3.248   0.646   6.654 -0.6649  0.9877 -0.4568
   10SAPS    HY 1228   3.164   0.779   6.734  0.0783  0.8652 -0.3789
   10SAPS   O31 1229   3.317   0.687   6.858  0.6596  0.5055 -0.3764
   10SAPS   C31 1230   3.313   0.789   6.940 -0.5159 -0.7374 -0.0561
   10SAPS   O32 1231   3.293   0.907   6.911  0.2881  0.0459 -0.3424
   10SAPS   C32 1232   3.348   0.742   7.076 -0.1364 -0.1573  0.1517
   10SAPS   H2X 1233   3.414   0.653   7.068  1.4694  0.8344  1.6794
   10SAPS   H2Y 1234   3.254   0.711   7.127 -0.3284  0.6731  0.3217
   10SAPS   C23 1235   3.783   0.671   6.777 -0.1735 -0.5553 -0.3920
   10SAPS   H3R 1236   3.794   0.769   6.829  0.2595 -1.5686  1.5212
   10SAPS   H3S 1237   3.888   0.654   6.744  0.7566  2.2252  0.7913
   10SAPS   C24 1238   3.755   0.562   6.886  0.4465  0.0551  0.4890
   10SAPS   H4R 1239   3.720   0.477   6.823  1.8412 -1.0917  1.1896
   10SAPS   H4S 1240   3.671   0.598   6.949  0.2179 -1.7280  1.2857
   10SAPS   C25 1241   3.863   0.498   6.973  0.1063 -0.2832  0.0805
   10SAPS   H5R 1242   3.947   0.454   6.916  3.3212  0.2215  4.0240
   10SAPS   C26 1243   3.869   0.488   7.113 -0.2369 -0.3599  0.5669
   10SAPS   H6R 1244   3.967   0.465   7.157  0.7273  1.7612 -0.3396
   10SAPS   C27 1245   3.767   0.536   7.214 -0.4419  0.3126  0.0628
   10SAPS   H7R 1246   3.753   0.440   7.268 -0.3118  0.1225 -0.2354
   10SAPS   H7S 1247   3.673   0.570   7.167  0.3601  1.0408 -1.0626
   10SAPS   C28 1248   3.810   0.640   7.309 -1.4437 -0.2124  0.1563
   10SAPS   H8R 1249   3.851   0.728   7.258  1.2421 -1.1084  0.6307
   10SAPS   C29 1250   3.811   0.630   7.444  0.6217  0.2270 -0.6398
   10SAPS   H9R 1251   3.846   0.711   7.510 -2.8090  0.3993  1.2016
   10SAPS  C210 1252   3.775   0.512   7.532 -0.1434 -1.1512 -0.2292
   10SAPS  H10R 1253   3.732   0.428   7.474  0.2048 -2.2236  1.0374
   10SAPS  H10S 1254   3.703   0.539   7.612  0.4491 -1.9839  0.5999
   10SAPS  C211 1255   3.901   0.465   7.600  0.2232  0.2929 -0.4898
   10SAPS  H11R 1256   3.985   0.454   7.529  0.0986  1.0528 -0.7571
   10SAPS  C212 1257   3.918   0.427   7.729 -0.7393  0.1001 -0.0493
   10SAPS  H12R 1258   4.022   0.401   7.756  0.3700  0.6658 -3.3759
   10SAPS  C213 1259   3.808   0.418   7.829  0.7244 -0.2490 -0.0697
   10SAPS  H13R 1260   3.710   0.424   7.777  0.5390  1.2326  0.4161
   10SAPS  H13S 1261   3.798   0.510   7.891 -3.5384  0.0672 -0.9348
   10SAPS  C214 1262   3.800   0.293   7.912 -0.4176 -0.2055  0.2270
   10SAPS  H14R 1263   3.803   0.204   7.846  1.8026  0.4131 -0.6174
   10SAPS  C215 1264   3.783   0.279   8.043 -0.4011 -0.1455 -0.1413
   10SAPS  H15R 1265   3.751   0.185   8.090 -1.5199  0.8377  1.1246
   10SAPS  C216 1266   3.766   0.398   8.139 -0.6306  0.7530 -0.1531
   10SAPS  H16R 1267   3.789   0.502   8.106 -1.2291  1.6628  2.1091
   10SAPS  H16S 1268   3.841   0.373   8.218  1.8790  2.4838 -1.8374
   10SAPS  C217 1269   3.629   0.403   8.208 -1.1377 -0.5595  0.3200
   10SAPS  H17R 1270   3.612   0.302   8.252 -0.6392 -1.2819 -1.0635
   10SAPS  H17S 1271   3.558   0.420   8.125  0.6863  2.2669 -0.8131
   10SAPS  C218 1272   3.636   0.514   8.315  0.3799  0.0504  0.3730
   10SAPS  H18R 1273   3.624   0.609   8.260 -0.2711  0.5039  1.2720
   10SAPS  H18S 1274   3.728   0.506   8.378  0.1576 -0.4082  0.6463
   10SAPS  C219 1275   3.518   0.506   8.404 -0.2953  0.7416 -0.2256
   10SAPS  H19R 1276   3.513   0.399   8.435  0.2668  1.2169  1.6948
   10SAPS  H19S 1277   3.425   0.528   8.347 -1.0025  0.3078  0.7274
   10SAPS  C220 1278   3.527   0.587   8.527  0.5999  0.0234  0.1943
   10SAPS  H20R 1279   3.439   0.560   8.589  1.0768 -5.7192 -1.0599
   10SAPS  H20S 1280   3.521   0.697   8.511  1.8109 -0.0662 -1.1063
   10SAPS  H20T 1281   3.622   0.555   8.574  0.7701 -2.4328 -1.5929
   10SAPS   C33 1282   3.417   0.843   7.171 -0.2526  0.3391 -0.3738
   10SAPS   H3X 1283   3.366   0.941   7.180 -2.5443 -0.3203 -4.0112
   10SAPS   H3Y 1284   3.520   0.862   7.133  0.4361 -1.3939  0.4923
   10SAPS   C34 1285   3.420   0.778   7.315  0.4836 -0.4144  0.2654
   10SAPS   H4X 1286   3.480   0.687   7.292  0.8399 -0.1115 -0.0262
   10SAPS   H4Y 1287   3.320   0.751   7.355 -0.1054 -2.4236 -2.2488
   10SAPS   C35 1288   3.490   0.868   7.417  0.4995  0.4661  0.0008
   10SAPS   H5X 1289   3.419   0.954   7.415  1.2607  1.0858 -1.3643
   10SAPS   H5Y 1290   3.594   0.896   7.391 -0.0492  1.1601 -1.6089
   10SAPS   C36 1291   3.479   0.800   7.551  0.4402 -0.2290 -0.1758
   10SAPS   H6X 1292   3.536   0.705   7.552 -0.2784 -0.6718  1.0413
   10SAPS   H6Y 1293   3.372   0.777   7.571  0.9476 -2.9776 -0.2972
   10SAPS   C37 1294   3.552   0.881   7.660 -0.3712  0.2177  0.6195
   10SAPS   H7X 1295   3.487   0.970   7.673 -0.4766 -0.2070  3.9776
   10SAPS   H7Y 1296   3.646   0.925   7.621  0.4154 -0.5195  1.6325
   10SAPS   C38 1297   3.579   0.807   7.786  0.1522  0.0422 -0.9118
   10SAPS   H8X 1298   3.664   0.738   7.769  0.6045  0.1677  0.6418
   10SAPS   H8Y 1299   3.488   0.745   7.803 -0.0506  0.6105  0.2203
   10SAPS   C39 1300   3.619   0.898   7.909  0.4380  0.2176  0.1263
   10SAPS   H9X 1301   3.536   0.968   7.931  0.8610  0.1219  2.2607
   10SAPS   H9Y 1302   3.708   0.954   7.871  0.2381 -0.0327 -0.7454
   10SAPS  C310 1303   3.655   0.833   8.045  0.4644 -0.0457 -0.5510
   10SAPS  H10X 1304   3.738   0.759   8.040 -2.0234 -3.0877 -0.6012
   10SAPS  H10Y 1305   3.565   0.775   8.077  0.7254 -0.7394 -1.0534
   10SAPS  C311 1306   3.687   0.943   8.152  0.1689 -0.5609  0.9922
   10SAPS  H11X 1307   3.688   0.886   8.247 -0.6017 -3.4927 -0.6098
   10SAPS  H11Y 1308   3.607   1.019   8.158 -1.3766 -2.2604  3.2157
   10SAPS  C312 1309   3.813   1.026   8.119 -0.0248  0.7100 -0.9695
   10SAPS  H12X 1310   3.809   1.090   8.028  0.3774  0.1479 -1.3920
   10SAPS  H12Y 1311   3.896   0.954   8.102  1.0007  1.3437  1.0990
   10SAPS  C313 1312   3.852   1.115   8.237  0.0700  0.2376 -0.0674
   10SAPS  H13X 1313   3.877   1.046   8.320  5.2200  2.7309  0.8567
   10SAPS  H13Y 1314   3.759   1.167   8.269  0.7590  1.6536 -0.2722
   10SAPS  C314 1315   3.980   1.198   8.225  0.7487 -0.2892 -0.0246
   10SAPS  H14X 1316   4.057   1.130   8.180 -1.0281 -1.9561 -0.6785
   10SAPS  H14Y 1317   4.022   1.231   8.323  1.0845 -1.5367  0.2651
   10SAPS  C315 1318   3.970   1.323   8.142 -0.6355  0.6002  0.4912
   10SAPS  H15X 1319   3.902   1.395   8.192 -1.1405  1.1446 -0.9033
   10SAPS  H15Y 1320   3.928   1.294   8.043 -1.2358  1.3035  0.5281
   10SAPS  C316 1321   4.104   1.390   8.110 -0.0496  0.3505 -0.8609
   10SAPS  H16X 1322   4.073   1.465   8.035  0.3009 -1.2848 -2.7301
   10SAPS  H16Y 1323   4.167   1.310   8.065  1.2091 -0.9007  2.7390
   10SAPS  C317 1324   4.167   1.461   8.229 -0.5404 -0.6657  1.0293
   10SAPS  H17X 1325   4.277   1.474   8.222 -0.7613  1.1723  0.2607
   10SAPS  H17Y 1326   4.142   1.405   8.322 -2.0239 -1.8708 -0.0266
   10SAPS  C318 1327   4.097   1.598   8.239 -0.0376 -0.3153  0.0174
   10SAPS  H18X 1328   3.987   1.584   8.239  0.2251 -2.9558 -0.1542
   10SAPS  H18Y 1329   4.131   1.671   8.163 -0.1089  1.1592  1.3478
   10SAPS  H18Z 1330   4.139   1.651   8.327  1.9790  0.9018 -1.5841
   11SAPS     N 1331   5.680   1.842   6.054 -0.4581  0.5386 -0.6487
   11SAPS   HN1 1332   5.782   1.857   6.068  0.2627 -1.0109 -3.3962
   11SAPS   HN2 1333   5.630   1.906   6.118  2.5954  0.0404  2.5614
   11SAPS   HN3 1334   5.658   1.746   6.086  0.5818  1.2534  2.5296
   11SAPS   C12 1335   5.629   1.871   5.913  0.6015 -0.2964  0.1150
   11SAPS  H12A 1336   5.648   1.972   5.881 -2.1118  0.4431  0.5549
   11SAPS   C13 1337   5.702   1.792   5.804  0.1884 -0.1909  0.5590
   11SAPS  O13A 1338   5.798   1.722   5.835 -0.3188 -0.6681 -0.2979
   11SAPS  O13B 1339   5.675   1.807   5.679 -0.3107 -0.5912 -0.0801
   11SAPS   C11 1340   5.468   1.846   5.919 -0.2727 -0.3137  0.0129
   11SAPS  H11A 1341   5.439   1.744   5.950  1.6239 -0.8174  0.2742
   11SAPS  H11B 1342   5.434   1.868   5.816  0.2855  0.4909 -0.0104
   11SAPS     P 1343   5.253   1.983   5.992  0.4639  0.0029 -0.4023
   11SAPS   O13 1344   5.244   2.126   6.010 -0.1392  0.2958  0.5200
   11SAPS   O14 1345   5.194   1.927   5.865 -0.9727 -0.4437  0.2401
   11SAPS   O12 1346   5.404   1.940   6.004  0.2220  0.3311  0.7742
   11SAPS   O11 1347   5.188   1.908   6.116  0.0415 -0.2112  0.0503
   11SAPS    C1 1348   5.247   1.911   6.245 -0.7006  0.0701 -0.2936
   11SAPS    HA 1349   5.350   1.868   6.245 -0.8574 -0.3317 -1.2568
   11SAPS    HB 1350   5.250   2.016   6.281  1.9164  0.4431 -1.3395
   11SAPS    C2 1351   5.163   1.819   6.341 -0.1139  0.3903  0.8085
   11SAPS    HS 1352   5.149   1.722   6.289  1.0004 -0.2969  1.7299
   11SAPS   O21 1353   5.036   1.885   6.355  0.1008 -0.5038  0.2848
   11SAPS   C21 1354   4.938   1.808   6.401  0.4265 -0.6957  0.2522
   11SAPS   O22 1355   4.955   1.689   6.423 -0.0373  0.3364  0.2713
   11SAPS   C22 1356   4.813   1.891   6.423 -0.0060 -0.0723 -0.6323
   11SAPS   H2R 1357   4.791   1.957   6.337  0.4806  1.7482  0.5830
   11SAPS   H2S 1358   4.725   1.826   6.445 -1.6581  1.3834 -2.5172
   11SAPS    C3 1359   5.229   1.795   6.479  0.3157 -0.1761 -0.6476
   11SAPS    HX 1360   5.322   1.736   6.467  0.2661 -0.5811  0.8596
   11SAPS    HY 1361   5.164   1.728   6.538 -0.7552  0.7744 -0.7259
   11SAPS   O31 1362   5.251   1.910   6.563 -0.0242 -0.3914 -0.1276
   11SAPS   C31 1363   5.375   1.966   6.558  0.2447 -0.2006 -0.1502
   11SAPS   O32 1364   5.460   1.942   6.475 -0.6402  0.2166 -0.0407
   11SAPS   C32 1365   5.409   2.067   6.666  0.3892  0.3412 -0.4475
   11SAPS   H2X 1366   5.380   2.168   6.630 -0.7635  0.7543  1.4591
   11SAPS   H2Y 1367   5.517   2.061   6.690  0.2841 -1.1076 -0.2144
   11SAPS   C23 1368   4.836   1.992   6.545  0.0409 -0.7050  0.0606
   11SAPS   H3R 1369   4.769   2.077   6.520  1.7669  1.3522  1.9395
   11SAPS   H3S 1370   4.940   2.031   6.543  0.8268 -2.6708  0.2690
   11SAPS   C24 1371   4.817   1.932   6.682 -0.2837  0.7057 -1.0324
   11SAPS   H4R 1372   4.723   1.875   6.698  0.6664 -0.1787  2.0347
   11SAPS   H4S 1373   4.807   2.020   6.748  1.9043 -0.1827  0.6199
   11SAPS   C25 1374   4.936   1.853   6.732  0.9705 -0.2454 -0.7911
   11SAPS   H5R 1375   5.025   1.915   6.749 -0.4477  1.2036  2.0694
   11SAPS   C26 1376   4.941   1.718   6.771  0.2186  0.5900  0.4807
   11SAPS   H6R 1377   5.034   1.682   6.817 -0.5087 -0.1736  1.3887
   11SAPS   C27 1378   4.821   1.629   6.755 -0.2902  0.3713 -0.4036
   11SAPS   H7R 1379   4.816   1.592   6.650 -0.4563  2.9439 -1.3848
   11SAPS   H7S 1380   4.727   1.683   6.781 -0.4789 -0.1979  0.1370
   11SAPS   C28 1381   4.832   1.516   6.852 -0.4912  0.1370 -0.4360
   11SAPS   H8R 1382   4.882   1.423   6.820  0.0606 -0.2453  1.4117
   11SAPS   C29 1383   4.793   1.522   6.984  0.5938  0.3244 -0.3907
   11SAPS   H9R 1384   4.801   1.436   7.051 -1.4589  0.4036  0.0276
   11SAPS  C210 1385   4.731   1.639   7.054  0.0702 -0.2363  0.2313
   11SAPS  H10R 1386   4.679   1.601   7.144  0.3828 -1.2503 -0.0050
   11SAPS  H10S 1387   4.649   1.687   6.996 -1.4657  0.7391  3.0416
   11SAPS  C211 1388   4.825   1.746   7.105  0.0454  0.4217 -0.0637
   11SAPS  H11R 1389   4.831   1.836   7.041 -0.3502  1.1252  0.8691
   11SAPS  C212 1390   4.900   1.738   7.212 -0.4655  0.4048  0.2472
   11SAPS  H12R 1391   4.975   1.814   7.239 -0.4429  1.7098 -3.0441
   11SAPS  C213 1392   4.889   1.621   7.307 -0.4352 -0.4012  0.5958
   11SAPS  H13R 1393   4.883   1.521   7.257 -3.3993 -0.2899  0.5118
   11SAPS  H13S 1394   4.795   1.644   7.363  0.4669  2.1643  1.1663
   11SAPS  C214 1395   5.006   1.618   7.406  0.3292  0.7826 -0.7207
   11SAPS  H14R 1396   5.103   1.599   7.359 -0.1272 -1.8150 -0.7329
   11SAPS  C215 1397   4.991   1.633   7.538  0.3830  0.5123  0.0205
   11SAPS  H15R 1398   5.077   1.632   7.608 -1.5020 -1.1883  2.5013
   11SAPS  C216 1399   4.866   1.654   7.623 -0.8885  0.1385  0.1949
   11SAPS  H16R 1400   4.796   1.571   7.598  0.0250 -0.9038  0.9993
   11SAPS  H16S 1401   4.810   1.740   7.580 -1.6266 -1.6773 -2.8351
   11SAPS  C217 1402   4.895   1.658   7.772 -0.3168  0.1489 -0.3023
   11SAPS  H17R 1403   4.803   1.702   7.816 -0.5087 -2.7171  2.5233
   11SAPS  H17S 1404   4.979   1.730   7.786  0.8821 -1.1983 -0.3632
   11SAPS  C218 1405   4.906   1.522   7.837 -0.2756  0.2144 -0.0489
   11SAPS  H18R 1406   4.990   1.471   7.786  0.2170 -1.0048  1.8722
   11SAPS  H18S 1407   4.812   1.465   7.819 -1.6983  1.2748  3.2916
   11SAPS  C219 1408   4.934   1.536   7.988  0.4186 -0.1545  1.3149
   11SAPS  H19R 1409   4.859   1.608   8.028  0.0580  0.8597 -1.0126
   11SAPS  H19S 1410   5.035   1.580   7.998  0.0354  0.9532  0.5131
   11SAPS  C220 1411   4.908   1.407   8.070 -0.6283 -1.1056  0.9340
   11SAPS  H20R 1412   4.983   1.335   8.032  0.6275  0.7629 -0.2541
   11SAPS  H20S 1413   4.802   1.377   8.055 -1.1889  1.2574 -0.2598
   11SAPS  H20T 1414   4.925   1.425   8.178 -0.7854 -1.0042  0.9425
   11SAPS   C33 1415   5.328   2.044   6.799  0.8776 -0.0992 -0.5775
   11SAPS   H3X 1416   5.217   2.042   6.798  0.8097 -0.6178  2.0009
   11SAPS   H3Y 1417   5.361   2.122   6.871  2.2617 -1.2504  0.0922
   11SAPS   C34 1418   5.381   1.913   6.866  0.4766 -0.0333  0.1999
   11SAPS   H4X 1419   5.488   1.909   6.898  1.0526  0.1778 -1.5666
   11SAPS   H4Y 1420   5.399   1.837   6.787 -1.2189  0.9584 -1.2221
   11SAPS   C35 1421   5.285   1.884   6.987 -0.0982  0.0511 -0.3215
   11SAPS   H5X 1422   5.285   1.773   6.995  0.8980  0.0410 -0.4029
   11SAPS   H5Y 1423   5.176   1.905   6.973 -0.1555  0.1857  0.2764
   11SAPS   C36 1424   5.340   1.950   7.117  0.1278 -0.2001  1.1745
   11SAPS   H6X 1425   5.332   2.060   7.110 -1.7432 -0.3796 -0.1230
   11SAPS   H6Y 1426   5.448   1.928   7.130  0.1779 -0.3129  0.6014
   11SAPS   C37 1427   5.274   1.907   7.238  0.1238  0.2025 -0.4171
   11SAPS   H7X 1428   5.258   1.797   7.230 -2.5289  0.5913 -1.7110
   11SAPS   H7Y 1429   5.173   1.952   7.251 -0.0361 -0.1152 -0.5501
   11SAPS   C38 1430   5.357   1.934   7.370  0.3666  0.4250  0.0871
   11SAPS   H8X 1431   5.360   2.045   7.374 -2.3732  0.5658  0.6347
   11SAPS   H8Y 1432   5.461   1.898   7.354  0.1155 -0.0693 -0.4920
   11SAPS   C39 1433   5.290   1.871   7.501 -0.7986  0.8253 -0.1593
   11SAPS   H9X 1434   5.307   1.761   7.509  1.0905  1.1278  0.5888
   11SAPS   H9Y 1435   5.183   1.896   7.488 -0.9356 -0.0859 -0.8946
   11SAPS  C310 1436   5.357   1.940   7.629  0.3841  0.1249 -0.4167
   11SAPS  H10X 1437   5.337   2.048   7.614 -0.0917  0.0111 -0.6323
   11SAPS  H10Y 1438   5.466   1.922   7.625  0.3371 -0.1116 -0.7692
   11SAPS  C311 1439   5.300   1.888   7.765  0.7180  0.6821  0.6113
   11SAPS  H11X 1440   5.389   1.890   7.832  0.2507  2.7174  1.2528
   11SAPS  H11Y 1441   5.264   1.784   7.760 -0.9825  1.2819 -0.5021
   11SAPS  C312 1442   5.183   1.978   7.816 -0.3192  0.3397 -0.3419
   11SAPS  H12X 1443   5.118   1.981   7.726 -0.0805  1.6668 -0.4867
   11SAPS  H12Y 1444   5.208   2.085   7.835  0.7956 -0.2066  1.5628
   11SAPS  C313 1445   5.121   1.911   7.940  0.5347 -0.0167 -0.4508
   11SAPS  H13X 1446   5.106   1.803   7.921 -1.1894  0.2362 -0.7070
   11SAPS  H13Y 1447   5.022   1.953   7.966  0.1702 -1.0202 -0.1876
   11SAPS  C314 1448   5.204   1.916   8.073  1.0739  0.2297 -0.2358
   11SAPS  H14X 1449   5.220   2.021   8.107  2.0448 -0.1147  0.4294
   11SAPS  H14Y 1450   5.307   1.874   8.071  1.7770  1.8749 -1.1992
   11SAPS  C315 1451   5.126   1.856   8.196 -0.2454  0.0030 -0.4674
   11SAPS  H15X 1452   5.184   1.881   8.287  0.0597 -1.4816 -0.2277
   11SAPS  H15Y 1453   5.130   1.745   8.190 -2.5219 -0.1897  0.4993
   11SAPS  C316 1454   4.988   1.919   8.221  0.3063 -0.2449  0.4555
   11SAPS  H16X 1455   4.924   1.922   8.131  0.5349 -2.2229  0.2001
   11SAPS  H16Y 1456   4.997   2.026   8.251  0.5312 -0.5859  1.6575
   11SAPS  C317 1457   4.913   1.846   8.330  0.9890  0.2316  0.0254
   11SAPS  H17X 1458   4.974   1.836   8.422  2.9011 -0.0093 -1.2126
   11SAPS  H17Y 1459   4.882   1.746   8.292  1.0280  0.3720 -0.3809
   11SAPS  C318 1460   4.786   1.930   8.357  0.1783  0.1433  0.3533
   11SAPS  H18X 1461   4.715   1.872   8.420  1.9155 -0.4662  1.8552
   11SAPS  H18Y 1462   4.732   1.959   8.265  1.7644 -0.8123 -0.9318
   11SAPS  H18Z 1463   4.830   2.020   8.406  2.6935 -1.6012  1.5729
   12SAPS     N 1464   5.177   4.859   6.002 -0.1917 -0.0738  0.0154
   12SAPS   HN1 1465   5.214   4.779   6.058  0.8700 -1.3660 -2.3793
   12SAPS   HN2 1466   5.111   4.916   6.058  0.5040  0.1261  0.6542
   12SAPS   HN3 1467   5.123   4.820   5.923  1.7808 -1.2383 -0.8419
   12SAPS   C12 1468   5.293   4.938   5.963 -0.5314  0.5024  0.6523
   12SAPS  H12A 1469   5.335   4.903   5.870 -2.5314  0.8021 -0.4352
   12SAPS   C13 1470   5.263   5.089   5.925  0.0876  0.2465 -0.2346
   12SAPS  O13A 1471   5.148   5.136   5.922 -0.0853 -0.1161 -0.6045
   12SAPS  O13B 1472   5.361   5.167   5.931  0.3135  0.3504  0.5541
   12SAPS   C11 1473   5.413   4.933   6.069 -0.3889  0.8906  0.6614
   12SAPS  H11A 1474   5.380   4.982   6.163 -0.0644 -0.1841  1.3453
   12SAPS  H11B 1475   5.500   4.988   6.028 -0.5977  1.0074  0.3677
   12SAPS     P 1476   5.441   4.705   6.196 -0.1103 -0.2280  0.2304
   12SAPS   O13 1477   5.300   4.679   6.206  0.8941 -0.0333  0.0838
   12SAPS   O14 1478   5.528   4.588   6.187  0.9917  1.1269  0.5275
   12SAPS   O12 1479   5.459   4.796   6.075  0.4719 -0.1019  0.5321
   12SAPS   O11 1480   5.498   4.799   6.307  0.4437  0.2321 -0.3407
   12SAPS    C1 1481   5.593   4.742   6.398 -0.0051 -0.8254 -0.3716
   12SAPS    HA 1482   5.587   4.632   6.406  1.2205 -0.9149 -0.5017
   12SAPS    HB 1483   5.690   4.757   6.348  0.3152 -0.8358  0.2402
   12SAPS    C2 1484   5.585   4.801   6.542 -0.2393 -0.0116  0.4620
   12SAPS    HS 1485   5.665   4.748   6.598 -0.1372  2.0171  2.3950
   12SAPS   O21 1486   5.447   4.803   6.599 -0.0256  0.2567 -0.1971
   12SAPS   C21 1487   5.393   4.680   6.609  0.1292 -0.2681  0.1599
   12SAPS   O22 1488   5.458   4.576   6.608 -0.2389  0.2986  0.0611
   12SAPS   C22 1489   5.250   4.696   6.639 -0.0111 -0.2706 -0.1478
   12SAPS   H2R 1490   5.234   4.663   6.743  2.5429  0.7007  0.6401
   12SAPS   H2S 1491   5.228   4.805   6.638  2.3117  0.3298 -3.3176
   12SAPS    C3 1492   5.634   4.943   6.547 -0.3879 -0.2073  0.1729
   12SAPS    HX 1493   5.598   5.005   6.461 -0.9753 -0.3727  0.2948
   12SAPS    HY 1494   5.743   4.934   6.531 -0.7059  0.1584 -2.7843
   12SAPS   O31 1495   5.619   5.010   6.675  0.4381  0.3836  0.0073
   12SAPS   C31 1496   5.549   5.120   6.683  0.6384  0.4202  0.7151
   12SAPS   O32 1497   5.493   5.169   6.583  0.1319 -0.1358  0.0036
   12SAPS   C32 1498   5.574   5.189   6.812 -0.1550  0.4520 -0.7529
   12SAPS   H2X 1499   5.584   5.299   6.800 -0.0650  0.4764 -0.4695
   12SAPS   H2Y 1500   5.671   5.163   6.860 -0.8393  1.7808  1.5083
   12SAPS   C23 1501   5.175   4.619   6.529  0.3911 -0.0831 -1.0945
   12SAPS   H3R 1502   5.153   4.516   6.565  0.3459  0.0911 -0.6167
   12SAPS   H3S 1503   5.236   4.605   6.437  1.7083 -2.9571  0.0777
   12SAPS   C24 1504   5.035   4.695   6.493  0.3079 -0.0256  0.1244
   12SAPS   H4R 1505   4.985   4.632   6.416 -0.2347 -0.4187  0.7833
   12SAPS   H4S 1506   5.060   4.794   6.448  3.4671 -0.7986 -0.0997
   12SAPS   C25 1507   4.941   4.694   6.616 -0.3901  0.2771  0.2965
   12SAPS   H5R 1508   4.955   4.617   6.693  2.0684  1.5814  1.2629
   12SAPS   C26 1509   4.850   4.789   6.638 -0.7768 -0.2654 -0.1603
   12SAPS   H6R 1510   4.776   4.764   6.716 -0.5776  0.7899  0.3895
   12SAPS   C27 1511   4.824   4.922   6.569  0.2310 -0.1791  0.1186
   12SAPS   H7R 1512   4.741   4.907   6.496 -0.4164  0.4504  0.7176
   12SAPS   H7S 1513   4.919   4.944   6.516  0.0284 -2.4983 -1.3626
   12SAPS   C28 1514   4.797   5.060   6.633  0.2635  0.3460 -0.4414
   12SAPS   H8R 1515   4.725   5.126   6.582  0.8475  2.3348  1.1815
   12SAPS   C29 1516   4.855   5.111   6.743 -1.7034  0.0082  0.2177
   12SAPS   H9R 1517   4.828   5.213   6.774 -0.7382 -0.1705  1.7386
   12SAPS  C210 1518   4.950   5.037   6.830 -0.4223 -0.2508 -0.1345
   12SAPS  H10R 1519   5.001   4.948   6.787 -0.4223  0.4441 -1.6273
   12SAPS  H10S 1520   4.895   4.978   6.908 -1.4408 -0.4511 -0.9823
   12SAPS  C211 1521   5.058   5.127   6.882 -0.1911  0.3903  0.4864
   12SAPS  H11R 1522   5.136   5.130   6.804 -1.3325 -0.5459 -0.7419
   12SAPS  C212 1523   5.079   5.183   7.000  0.5087 -1.2007  0.6284
   12SAPS  H12R 1524   5.171   5.242   7.010  0.5139 -0.6300 -2.0051
   12SAPS  C213 1525   4.996   5.170   7.121  1.1044 -0.5219  0.4532
   12SAPS  H13R 1526   4.982   5.062   7.143 -0.5726 -0.4203  0.0846
   12SAPS  H13S 1527   4.895   5.214   7.102  1.3358 -0.0315  0.3328
   12SAPS  C214 1528   5.044   5.239   7.241  0.9063  0.5898  0.3657
   12SAPS  H14R 1529   4.980   5.322   7.273 -0.0734  0.0942 -0.2794
   12SAPS  C215 1530   5.124   5.190   7.338 -0.2615  0.3250  0.3491
   12SAPS  H15R 1531   5.147   5.251   7.427 -0.9973  1.3550 -0.1397
   12SAPS  C216 1532   5.189   5.051   7.344  0.0356 -0.6570  0.2353
   12SAPS  H16R 1533   5.291   5.064   7.302 -0.1253 -1.1685 -0.3257
   12SAPS  H16S 1534   5.138   4.977   7.278 -0.4380 -1.5954  1.6017
   12SAPS  C217 1535   5.202   4.984   7.485  0.8299 -0.5103 -0.4742
   12SAPS  H17R 1536   5.232   5.060   7.560 -2.5878 -0.7136  1.3155
   12SAPS  H17S 1537   5.262   4.891   7.486 -1.6679 -2.2654  1.2169
   12SAPS  C218 1538   5.059   4.939   7.537  0.1653 -0.2427 -0.6314
   12SAPS  H18R 1539   5.029   4.871   7.454 -1.5070 -0.1718 -0.1035
   12SAPS  H18S 1540   4.982   5.017   7.551  0.8459  0.3529 -0.1222
   12SAPS  C219 1541   5.056   4.871   7.674  0.4097 -0.5084 -0.1625
   12SAPS  H19R 1542   5.105   4.945   7.740  0.7211 -0.1293 -0.8132
   12SAPS  H19S 1543   5.116   4.777   7.675  0.4598 -0.4995  2.1420
   12SAPS  C220 1544   4.911   4.832   7.701  0.5023  0.1152 -0.0731
   12SAPS  H20R 1545   4.842   4.917   7.680  0.6253  0.0058 -0.9638
   12SAPS  H20S 1546   4.900   4.803   7.807 -2.0385  1.3373  0.0719
   12SAPS  H20T 1547   4.884   4.748   7.633  3.4968  0.4466 -1.8761
   12SAPS   C33 1548   5.452   5.153   6.909  0.6066 -0.5247  0.2111
   12SAPS   H3X 1549   5.451   5.042   6.907  1.2463 -0.5402  0.5634
   12SAPS   H3Y 1550   5.358   5.195   6.867  1.4919  0.6497 -0.6599
   12SAPS   C34 1551   5.472   5.208   7.048 -0.5105  0.8624 -1.1315
   12SAPS   H4X 1552   5.565   5.171   7.097 -0.6986 -0.3864 -1.6536
   12SAPS   H4Y 1553   5.383   5.159   7.094  2.0953 -3.3035 -0.0157
   12SAPS   C35 1554   5.462   5.363   7.072 -0.1115  0.5475  0.5842
   12SAPS   H5X 1555   5.391   5.403   6.996  1.4284 -0.1152 -1.2883
   12SAPS   H5Y 1556   5.560   5.411   7.053 -0.6045  0.9953 -0.9759
   12SAPS   C36 1557   5.411   5.389   7.216 -0.6117  0.6039  0.5685
   12SAPS   H6X 1558   5.467   5.316   7.279  0.1355  0.2989 -0.4229
   12SAPS   H6Y 1559   5.303   5.361   7.215 -0.1559 -1.3875  1.3748
   12SAPS   C37 1560   5.423   5.529   7.262 -0.2509 -0.0010 -0.4006
   12SAPS   H7X 1561   5.380   5.600   7.188  2.6078  0.8415 -1.4212
   12SAPS   H7Y 1562   5.532   5.553   7.262  0.5964 -3.1829  1.9276
   12SAPS   C38 1563   5.364   5.565   7.404 -0.0132  0.4452 -0.3261
   12SAPS   H8X 1564   5.256   5.562   7.429  1.0275  0.8740  5.7613
   12SAPS   H8Y 1565   5.390   5.671   7.425 -0.5260  0.2495  1.4518
   12SAPS   C39 1566   5.437   5.487   7.522 -0.0980 -0.8383 -0.2513
   12SAPS   H9X 1567   5.537   5.452   7.489  0.1760  0.0346 -0.3710
   12SAPS   H9Y 1568   5.369   5.408   7.560  1.5979 -0.9930  2.7602
   12SAPS  C310 1569   5.479   5.574   7.646  0.0192  0.3554 -0.1540
   12SAPS  H10X 1570   5.391   5.638   7.667  0.6800  1.3057 -0.2423
   12SAPS  H10Y 1571   5.560   5.644   7.617  0.5908  0.0778  0.7079
   12SAPS  C311 1572   5.524   5.486   7.767 -0.1613  0.0551 -0.8216
   12SAPS  H11X 1573   5.570   5.551   7.845  0.7842 -0.8563 -0.5979
   12SAPS  H11Y 1574   5.597   5.411   7.728  0.4206 -0.6113  1.3795
   12SAPS  C312 1575   5.414   5.398   7.836  1.0242 -0.2395  0.2617
   12SAPS  H12X 1576   5.351   5.362   7.752 -0.6138  3.9820 -0.6004
   12SAPS  H12Y 1577   5.358   5.466   7.903  0.0224 -1.2861  0.5142
   12SAPS  C313 1578   5.474   5.280   7.915 -0.0950 -0.0617 -0.1965
   12SAPS  H13X 1579   5.543   5.332   7.985 -1.2257  0.3958  0.5979
   12SAPS  H13Y 1580   5.535   5.229   7.837 -0.5604  0.8174 -1.1563
   12SAPS  C314 1581   5.371   5.195   7.981  0.2480 -0.6593  0.2892
   12SAPS  H14X 1582   5.299   5.158   7.906  0.9099  3.1291 -2.5348
   12SAPS  H14Y 1583   5.319   5.260   8.055 -1.1398  0.4238 -1.5473
   12SAPS  C315 1584   5.416   5.065   8.046  0.2553  0.1744 -0.0259
   12SAPS  H15X 1585   5.499   5.082   8.119  0.3272 -0.1293 -0.0333
   12SAPS  H15Y 1586   5.453   4.992   7.970 -0.9985 -1.4597  0.8764
   12SAPS  C316 1587   5.292   4.997   8.110  0.0990 -0.1961  0.0173
   12SAPS  H16X 1588   5.216   4.958   8.038 -2.5792 -0.3305  2.7277
   12SAPS  H16Y 1589   5.230   5.071   8.165  0.8690  1.4637 -1.2676
   12SAPS  C317 1590   5.342   4.903   8.218  0.1564 -0.5746  0.4793
   12SAPS  H17X 1591   5.249   4.856   8.257 -1.8478  1.1391 -1.9374
   12SAPS  H17Y 1592   5.394   4.955   8.301 -1.7681  1.1908  0.6537
   12SAPS  C318 1593   5.441   4.806   8.163  0.0553  0.2142 -0.0594
   12SAPS  H18X 1594   5.544   4.844   8.145 -0.5979  1.3352 -1.5975
   12SAPS  H18Y 1595   5.402   4.763   8.068  1.0454  1.2132 -0.9377
   12SAPS  H18Z 1596   5.445   4.719   8.232  0.8549  0.1651 -0.1505
   13SAPS     N 1597   6.035   1.673   5.951 -0.2761  0.2685 -0.0990
   13SAPS   HN1 1598   6.070   1.710   6.042 -2.0313 -2.1634  1.6907
   13SAPS   HN2 1599   6.097   1.721   5.883  1.5287 -1.1426  0.4556
   13SAPS   HN3 1600   5.941   1.707   5.924 -0.3246 -0.1562 -0.4741
   13SAPS   C12 1601   6.049   1.535   5.970  0.3999  0.4984 -0.0899
   13SAPS  H12A 1602   6.013   1.487   5.880 -0.8554 -1.0509  1.1728
   13SAPS   C13 1603   6.189   1.480   5.984 -0.3950 -0.2699  0.0199
   13SAPS  O13A 1604   6.290   1.558   5.992  0.1798  0.3355 -0.0699
   13SAPS  O13B 1605   6.204   1.354   5.973  0.3687 -0.4305 -0.5983
   13SAPS   C11 1606   5.967   1.496   6.106  0.1705  0.3934 -0.3318
   13SAPS  H11A 1607   6.028   1.522   6.194 -0.3474 -1.1593  0.5235
   13SAPS  H11B 1608   5.959   1.385   6.110 -2.5807  0.5030 -0.5833
   13SAPS     P 1609   5.701   1.486   6.093  0.1092 -0.5936  0.4452
   13SAPS   O13 1610   5.592   1.588   6.096 -0.0762 -0.1892  0.2457
   13SAPS   O14 1611   5.717   1.401   5.970  0.1592 -0.0576 -0.2012
   13SAPS   O12 1612   5.840   1.560   6.120  0.7174 -0.3233 -0.2238
   13SAPS   O11 1613   5.681   1.396   6.218  0.4246 -0.0794  0.5938
   13SAPS    C1 1614   5.588   1.288   6.248 -0.2230  0.2520  0.2965
   13SAPS    HA 1615   5.485   1.300   6.209 -0.9228 -4.2108  0.2693
   13SAPS    HB 1616   5.611   1.191   6.198 -1.5378  0.8145 -1.4685
   13SAPS    C2 1617   5.606   1.263   6.396 -0.5431 -0.1197 -0.2603
   13SAPS    HS 1618   5.580   1.156   6.405 -0.6382 -0.3238 -2.4658
   13SAPS   O21 1619   5.520   1.347   6.474 -0.1340 -0.1959  0.4535
   13SAPS   C21 1620   5.466   1.293   6.584 -0.9248 -0.0868 -0.3963
   13SAPS   O22 1621   5.477   1.182   6.626 -0.0978  0.1394  0.1717
   13SAPS   C22 1622   5.397   1.401   6.656 -0.2954  0.0432 -0.1333
   13SAPS   H2R 1623   5.471   1.480   6.681 -2.5167  2.6931 -1.3530
   13SAPS   H2S 1624   5.325   1.453   6.589 -0.0161  1.5806  0.7161
   13SAPS    C3 1625   5.753   1.281   6.445 -0.0407  0.0016  0.4480
   13SAPS    HX 1626   5.781   1.388   6.435  4.1119 -1.0376 -1.5195
   13SAPS    HY 1627   5.821   1.231   6.372 -0.4865 -1.7739  1.2115
   13SAPS   O31 1628   5.777   1.248   6.585  0.7714  0.5479  0.3267
   13SAPS   C31 1629   5.853   1.148   6.607 -0.1678  0.6516 -0.3068
   13SAPS   O32 1630   5.911   1.080   6.521  0.0160 -0.2262 -0.5071
   13SAPS   C32 1631   5.869   1.124   6.757 -0.4357  0.0338  1.0321
   13SAPS   H2X 1632   5.907   1.224   6.787 -0.8814  1.0070 -1.3999
   13SAPS   H2Y 1633   5.936   1.041   6.788 -2.3508 -1.5924  1.0403
   13SAPS   C23 1634   5.339   1.361   6.794  1.1958  0.2346  0.2578
   13SAPS   H3R 1635   5.414   1.311   6.859 -0.1628 -1.5607  0.5269
   13SAPS   H3S 1636   5.263   1.284   6.770  0.7023  0.1236  1.9921
   13SAPS   C24 1637   5.285   1.480   6.863 -0.0862 -0.6364  0.5374
   13SAPS   H4R 1638   5.234   1.550   6.793  1.3186 -0.0313  0.0756
   13SAPS   H4S 1639   5.381   1.529   6.892  0.7788 -2.3959  0.8067
   13SAPS   C25 1640   5.205   1.457   6.985  0.0843  0.5957  0.3876
   13SAPS   H5R 1641   5.101   1.428   6.965  0.7716 -0.8946 -1.2604
   13SAPS   C26 1642   5.249   1.426   7.105 -0.1303 -0.3020 -0.7705
   13SAPS   H6R 1643   5.170   1.412   7.180 -0.0645  2.6105 -0.0304
   13SAPS   C27 1644   5.387   1.424   7.151 -0.1047  0.6934 -0.1526
   13SAPS   H7R 1645   5.463   1.435   7.071  0.3963 -0.8718  0.0712
   13SAPS   H7S 1646   5.411   1.324   7.194 -1.8455  0.7542  1.0447
   13SAPS   C28 1647   5.411   1.529   7.245  0.3430  0.6619 -0.2462
   13SAPS   H8R 1648   5.399   1.632   7.206 -0.0947 -0.0621 -2.1446
   13SAPS   C29 1649   5.434   1.518   7.379 -0.7391  0.2831  0.0381
   13SAPS   H9R 1650   5.451   1.609   7.439  0.4848 -0.6867  1.2191
   13SAPS  C210 1651   5.429   1.392   7.468 -0.1125 -0.4902  0.8678
   13SAPS  H10R 1652   5.517   1.406   7.534  1.3201  1.9400 -1.3819
   13SAPS  H10S 1653   5.446   1.303   7.404  0.5151  0.0238  0.2945
   13SAPS  C211 1654   5.296   1.371   7.532 -0.4244 -0.1363 -0.1452
   13SAPS  H11R 1655   5.214   1.381   7.459  0.9661  0.6308 -1.6938
   13SAPS  C212 1656   5.257   1.339   7.653 -0.3073  0.1100 -0.9061
   13SAPS  H12R 1657   5.151   1.346   7.684 -0.2421 -1.6446 -0.1801
   13SAPS  C213 1658   5.362   1.337   7.754 -0.7081 -0.2565  0.3732
   13SAPS  H13R 1659   5.463   1.370   7.720  0.3608  0.0170  3.5269
   13SAPS  H13S 1660   5.378   1.232   7.784 -1.6317  0.0408  2.0543
   13SAPS  C214 1661   5.323   1.424   7.868 -0.1490  0.2717 -1.5559
   13SAPS  H14R 1662   5.307   1.531   7.848 -1.1355  0.6054  0.7119
   13SAPS  C215 1663   5.303   1.391   7.999 -0.6342  0.1869  0.8143
   13SAPS  H15R 1664   5.268   1.463   8.074  2.2780 -0.1029  2.5944
   13SAPS  C216 1665   5.326   1.258   8.058  0.4151 -0.9572 -0.1791
   13SAPS  H16R 1666   5.351   1.178   7.986 -0.6168 -1.2990 -0.1777
   13SAPS  H16S 1667   5.227   1.214   8.083 -0.0944 -0.3168 -0.9988
   13SAPS  C217 1668   5.416   1.250   8.182 -0.5405 -0.2546  0.8708
   13SAPS  H17R 1669   5.502   1.318   8.163 -0.0019 -0.9864  0.6264
   13SAPS  H17S 1670   5.465   1.151   8.193  0.2867 -0.0921 -0.9711
   13SAPS  C218 1671   5.339   1.281   8.309 -0.9761  0.7544 -0.0803
   13SAPS  H18R 1672   5.252   1.212   8.313  1.7378 -3.0810 -1.2217
   13SAPS  H18S 1673   5.298   1.384   8.309  2.0565  2.0906  0.6035
   13SAPS  C219 1674   5.421   1.247   8.438  0.5666  0.5959 -0.4976
   13SAPS  H19R 1675   5.504   1.321   8.443  1.3395 -0.2068 -1.0279
   13SAPS  H19S 1676   5.455   1.141   8.430  1.6532  0.9334 -0.5286
   13SAPS  C220 1677   5.330   1.246   8.560  0.4189 -0.2746 -0.2994
   13SAPS  H20R 1678   5.238   1.186   8.542 -0.4641  1.2567 -1.0930
   13SAPS  H20S 1679   5.288   1.342   8.596 -0.3778 -0.6773 -0.1348
   13SAPS  H20T 1680   5.383   1.209   8.651  0.6270 -0.8156 -0.6380
   13SAPS   C33 1681   5.731   1.102   6.828  0.7810 -0.4304 -0.1846
   13SAPS   H3X 1682   5.684   1.006   6.798 -0.6002  0.3737 -0.6593
   13SAPS   H3Y 1683   5.663   1.183   6.796  2.3348  0.4187 -1.5067
   13SAPS   C34 1684   5.733   1.098   6.982  0.0119  0.6755 -0.9711
   13SAPS   H4X 1685   5.818   1.035   7.016 -1.8814 -1.7979 -0.5512
   13SAPS   H4Y 1686   5.644   1.046   7.020  1.6787 -1.0436  0.8029
   13SAPS   C35 1687   5.747   1.236   7.052  0.3133 -0.0208  0.0456
   13SAPS   H5X 1688   5.676   1.297   6.991 -1.3950 -0.4254  1.5473
   13SAPS   H5Y 1689   5.846   1.276   7.024 -0.2017  0.5915 -0.9764
   13SAPS   C36 1690   5.706   1.246   7.198 -0.3684  0.0753  0.2471
   13SAPS   H6X 1691   5.600   1.213   7.205 -0.5109  0.2937 -0.7388
   13SAPS   H6Y 1692   5.721   1.348   7.240 -0.8307  0.0045  0.5894
   13SAPS   C37 1693   5.787   1.154   7.296 -0.0144  0.1245  0.6205
   13SAPS   H7X 1694   5.795   1.059   7.239 -1.8368 -0.8961  1.9414
   13SAPS   H7Y 1695   5.735   1.140   7.393 -1.2441  2.5322  0.3836
   13SAPS   C38 1696   5.925   1.209   7.318 -0.2968 -0.5479  0.5273
   13SAPS   H8X 1697   5.907   1.305   7.372  2.1263  0.2184  0.0774
   13SAPS   H8Y 1698   5.969   1.233   7.219  0.6526 -0.4858  0.9571
   13SAPS   C39 1699   6.032   1.134   7.399  0.1642  0.3237  0.0248
   13SAPS   H9X 1700   6.122   1.197   7.417  0.0086  0.7964 -0.8089
   13SAPS   H9Y 1701   6.056   1.050   7.332  0.9195  0.7151 -0.2036
   13SAPS  C310 1702   5.971   1.076   7.531  0.1716 -0.7749  0.4616
   13SAPS  H10X 1703   6.034   1.003   7.587  0.2750 -1.3556 -0.3920
   13SAPS  H10Y 1704   5.877   1.019   7.517  1.0020 -1.6027 -2.3766
   13SAPS  C311 1705   5.953   1.184   7.646 -0.0510  0.6224 -1.2033
   13SAPS  H11X 1706   5.856   1.234   7.624 -0.0892  0.2907 -1.7967
   13SAPS  H11Y 1707   6.026   1.268   7.649 -1.2760  1.7752  2.5538
   13SAPS  C312 1708   5.941   1.123   7.791  0.2253  0.9319 -0.1193
   13SAPS  H12X 1709   6.036   1.077   7.825  0.3921  0.8171 -0.7298
   13SAPS  H12Y 1710   5.880   1.031   7.779  3.9068 -1.9004  0.9727
   13SAPS  C313 1711   5.872   1.217   7.894 -0.1082  0.1516  0.4516
   13SAPS  H13X 1712   5.772   1.253   7.862 -0.2488 -0.4532  0.1977
   13SAPS  H13Y 1713   5.934   1.308   7.909  1.4426 -1.1409  2.5740
   13SAPS  C314 1714   5.858   1.138   8.034  0.2137  0.2055 -0.3022
   13SAPS  H14X 1715   5.810   1.042   8.008  0.8578 -0.2248  0.0607
   13SAPS  H14Y 1716   5.793   1.191   8.107 -1.8880 -1.7582 -0.6330
   13SAPS  C315 1717   5.983   1.094   8.113 -0.5889 -1.5037 -0.1427
   13SAPS  H15X 1718   6.033   1.187   8.147 -1.6300 -1.9053  2.7996
   13SAPS  H15Y 1719   6.068   1.049   8.057 -0.1659 -0.3961 -0.4174
   13SAPS  C316 1720   5.949   1.009   8.239  0.3448  0.0124  1.5458
   13SAPS  H16X 1721   5.857   1.052   8.284 -0.5440  0.7216 -0.7933
   13SAPS  H16Y 1722   6.035   1.021   8.308  1.5711 -0.5406  0.1635
   13SAPS  C317 1723   5.936   0.858   8.218  0.7626  0.5176 -0.1924
   13SAPS  H17X 1724   5.858   0.853   8.140 -0.4896  1.6488  0.9286
   13SAPS  H17Y 1725   5.902   0.811   8.313  2.2073  0.2339  0.2225
   13SAPS  C318 1726   6.063   0.789   8.168  0.7275  0.2548  0.1261
   13SAPS  H18X 1727   6.149   0.799   8.238  1.0390  1.6589 -0.4282
   13SAPS  H18Y 1728   6.096   0.827   8.069 -1.1551  1.5447 -0.0774
   13SAPS  H18Z 1729   6.039   0.680   8.164  0.5504  0.2403  1.2077
   14SAPS     N 1730   4.942   3.044   5.505 -0.5075 -0.5838 -0.1784
   14SAPS   HN1 1731   5.035   2.999   5.517 -1.8759 -3.1628  1.8042
   14SAPS   HN2 1732   4.899   3.040   5.600  0.1328  2.3118  0.3327
   14SAPS   HN3 1733   4.887   2.986   5.439 -2.0447 -0.6940  1.1300
   14SAPS   C12 1734   4.954   3.184   5.459  0.9109 -0.2819 -0.1692
   14SAPS  H12A 1735   5.023   3.179   5.376  1.0956  2.2602 -0.2467
   14SAPS   C13 1736   4.825   3.241   5.398  0.2091  1.2259  0.5224
   14SAPS  O13A 1737   4.729   3.164   5.372 -0.7407  0.3082  0.6761
   14SAPS  O13B 1738   4.823   3.357   5.351 -0.7038  0.3438  0.5120
   14SAPS   C11 1739   4.998   3.287   5.574 -0.2120 -0.0930 -0.4740
   14SAPS  H11A 1740   4.918   3.274   5.649  0.8494  0.6875  0.8385
   14SAPS  H11B 1741   5.012   3.389   5.532  1.3153  0.1196  0.4594
   14SAPS     P 1742   5.179   3.322   5.755  0.0789  0.0021  0.5740
   14SAPS   O13 1743   5.321   3.284   5.756  0.0034  0.5885  0.2833
   14SAPS   O14 1744   5.148   3.463   5.737 -0.3798  0.5768  0.2272
   14SAPS   O12 1745   5.114   3.241   5.633  0.5920 -0.0060  0.3323
   14SAPS   O11 1746   5.106   3.265   5.885  0.3378 -0.0078  0.2025
   14SAPS    C1 1747   4.984   3.328   5.914 -0.2488  0.4036  0.6169
   14SAPS    HA 1748   4.965   3.424   5.862 -0.8272  0.7985  1.5243
   14SAPS    HB 1749   4.897   3.263   5.890 -0.2533 -0.7393  3.3519
   14SAPS    C2 1750   4.972   3.360   6.074 -0.2914  0.5602  0.2326
   14SAPS    HS 1751   4.870   3.401   6.092 -0.9554 -0.7604 -0.3424
   14SAPS   O21 1752   5.066   3.454   6.121  0.0039 -0.4589  0.0295
   14SAPS   C21 1753   5.028   3.586   6.105 -0.4646  0.2724  0.5106
   14SAPS   O22 1754   4.936   3.613   6.035 -0.5730 -0.3803  0.1567
   14SAPS   C22 1755   5.121   3.683   6.181 -0.3579  0.0065 -0.4576
   14SAPS   H2R 1756   5.214   3.632   6.213 -1.1141 -3.0907 -2.7473
   14SAPS   H2S 1757   5.135   3.772   6.117  0.3111 -1.4168 -2.3860
   14SAPS    C3 1758   4.993   3.229   6.158 -0.0411 -0.3374  0.2107
   14SAPS    HX 1759   5.103   3.216   6.162  0.0044 -0.8629 -1.7728
   14SAPS    HY 1760   4.941   3.150   6.100 -0.2540  0.6468 -0.9818
   14SAPS   O31 1761   4.925   3.253   6.282 -0.6293 -0.3957 -0.0749
   14SAPS   C31 1762   4.941   3.159   6.373 -0.8903  0.2301 -0.3357
   14SAPS   O32 1763   5.010   3.062   6.364  0.0592  0.0162 -0.3998
   14SAPS   C32 1764   4.846   3.187   6.491  0.3136 -0.3544 -0.1343
   14SAPS   H2X 1765   4.745   3.200   6.446 -0.7122 -0.2552  2.0861
   14SAPS   H2Y 1766   4.862   3.284   6.542  0.7144 -0.2283 -0.4885
   14SAPS   C23 1767   5.055   3.732   6.320 -0.6472  0.7027 -0.1316
   14SAPS   H3R 1768   5.013   3.648   6.380 -3.6174  1.3811 -1.0726
   14SAPS   H3S 1769   4.969   3.798   6.292  0.3105  1.8524 -0.4370
   14SAPS   C24 1770   5.151   3.809   6.408  0.3636 -0.5101 -0.3672
   14SAPS   H4R 1771   5.251   3.763   6.416  1.0632  1.1687  1.1906
   14SAPS   H4S 1772   5.122   3.807   6.515  2.1645 -1.0821  0.1341
   14SAPS   C25 1773   5.156   3.949   6.351 -0.5739 -0.0132  0.3646
   14SAPS   H5R 1774   5.125   3.953   6.245 -1.7764  0.1196  0.7179
   14SAPS   C26 1775   5.193   4.061   6.409  0.1491 -0.5078  0.3216
   14SAPS   H6R 1776   5.196   4.145   6.337  1.5274 -2.0821 -1.5772
   14SAPS   C27 1777   5.232   4.088   6.553  0.1533 -0.3613  0.6438
   14SAPS   H7R 1778   5.326   4.045   6.593  0.1360  2.0592  3.6861
   14SAPS   H7S 1779   5.159   4.030   6.613  0.2201 -1.8841 -0.6852
   14SAPS   C28 1780   5.241   4.232   6.584  0.7030 -0.4579 -0.6669
   14SAPS   H8R 1781   5.252   4.305   6.503  1.4002  0.6007  0.3585
   14SAPS   C29 1782   5.236   4.279   6.714  0.4366 -0.2856 -0.2054
   14SAPS   H9R 1783   5.241   4.387   6.736 -0.1544 -0.6190  1.8093
   14SAPS  C210 1784   5.233   4.204   6.846  0.4276  0.6619  0.1250
   14SAPS  H10R 1785   5.175   4.109   6.843  2.1245 -0.7080  3.9841
   14SAPS  H10S 1786   5.181   4.274   6.914 -0.0087  0.5139 -0.0550
   14SAPS  C211 1787   5.371   4.168   6.901  0.1363 -0.0611  0.6700
   14SAPS  H11R 1788   5.441   4.118   6.833  0.1191 -0.0531  0.6465
   14SAPS  C212 1789   5.420   4.195   7.021  0.0722  0.2491 -0.5409
   14SAPS  H12R 1790   5.523   4.163   7.039 -0.0890 -0.8355 -1.4041
   14SAPS  C213 1791   5.344   4.253   7.140 -0.7175  0.1236 -0.7303
   14SAPS  H13R 1792   5.279   4.172   7.177  1.9570 -0.8724  2.2841
   14SAPS  H13S 1793   5.281   4.334   7.098 -1.9517 -0.2839  0.2787
   14SAPS  C214 1794   5.437   4.294   7.254 -0.4615  0.2615  0.3297
   14SAPS  H14R 1795   5.525   4.347   7.215 -0.5768  1.0595  1.1312
   14SAPS  C215 1796   5.408   4.294   7.381  0.7696  0.1979  0.7386
   14SAPS  H15R 1797   5.485   4.329   7.451  0.4330 -1.3841  1.9845
   14SAPS  C216 1798   5.282   4.253   7.449 -0.1003  0.0022  1.0109
   14SAPS  H16R 1799   5.305   4.174   7.523  2.3823 -0.1352  0.1667
   14SAPS  H16S 1800   5.214   4.196   7.381  0.1477 -1.6274  2.0650
   14SAPS  C217 1801   5.201   4.370   7.512  0.4294 -0.7296  0.3315
   14SAPS  H17R 1802   5.130   4.412   7.437  0.9345 -0.8484 -0.2123
   14SAPS  H17S 1803   5.271   4.449   7.546  0.9843 -0.1668 -1.9802
   14SAPS  C218 1804   5.109   4.323   7.635 -0.1678  0.1124  0.2177
   14SAPS  H18R 1805   5.180   4.282   7.710  0.0101  2.8029  1.6375
   14SAPS  H18S 1806   5.030   4.251   7.606  0.7964  0.5430 -4.2131
   14SAPS  C219 1807   5.028   4.438   7.701  0.6288 -0.1094 -0.0503
   14SAPS  H19R 1808   4.950   4.459   7.624  0.8231  0.7163 -0.0365
   14SAPS  H19S 1809   5.088   4.528   7.725 -0.2358  0.4343  0.1287
   14SAPS  C220 1810   4.966   4.381   7.832 -0.8161  0.6797 -0.1062
   14SAPS  H20R 1811   5.056   4.365   7.896  1.0462  5.1598 -1.2092
   14SAPS  H20S 1812   4.926   4.278   7.825  1.7192 -0.3910  0.1117
   14SAPS  H20T 1813   4.893   4.443   7.889 -0.8245 -0.1757  0.8499
   14SAPS   C33 1814   4.831   3.069   6.590 -0.0930 -0.3381  0.1950
   14SAPS   H3X 1815   4.934   3.063   6.630  0.3322  1.7095 -0.5008
   14SAPS   H3Y 1816   4.808   2.970   6.545  1.9040  0.8904 -4.0839
   14SAPS   C34 1817   4.731   3.111   6.699  0.2662  0.4588 -0.0614
   14SAPS   H4X 1818   4.626   3.085   6.671  1.3638 -2.8861 -1.6598
   14SAPS   H4Y 1819   4.736   3.221   6.713  1.2467  0.3343  0.6495
   14SAPS   C35 1820   4.766   3.050   6.839  0.5189 -0.1923 -0.4405
   14SAPS   H5X 1821   4.688   3.099   6.900  0.1521 -0.0446 -1.0311
   14SAPS   H5Y 1822   4.865   3.092   6.868  1.0526 -1.3379 -0.5417
   14SAPS   C36 1823   4.753   2.901   6.849 -0.0141  0.1288 -1.1115
   14SAPS   H6X 1824   4.801   2.837   6.772 -0.6252 -2.6262  0.6521
   14SAPS   H6Y 1825   4.645   2.883   6.830  0.3229 -2.9784 -0.6470
   14SAPS   C37 1826   4.791   2.856   6.989 -0.1579 -0.2211  0.2595
   14SAPS   H7X 1827   4.738   2.927   7.056 -1.2312 -1.0118  0.2728
   14SAPS   H7Y 1828   4.900   2.866   7.009  0.0493  0.6999 -1.1361
   14SAPS   C38 1829   4.737   2.715   7.018 -0.9789 -0.3741  0.3113
   14SAPS   H8X 1830   4.768   2.642   6.940 -0.4014  1.6641 -1.4730
   14SAPS   H8Y 1831   4.626   2.713   7.018 -0.9969 -0.0025 -0.8785
   14SAPS   C39 1832   4.771   2.670   7.158 -0.0290 -0.0754 -0.4773
   14SAPS   H9X 1833   4.757   2.763   7.219 -0.1060  0.8646 -1.8773
   14SAPS   H9Y 1834   4.875   2.635   7.174  0.2219  0.2582 -1.3494
   14SAPS  C310 1835   4.662   2.566   7.206 -1.0450  0.8250  0.0616
   14SAPS  H10X 1836   4.650   2.496   7.120  1.4336  1.6018 -1.0209
   14SAPS  H10Y 1837   4.567   2.622   7.217 -2.7524 -1.7419 -0.7401
   14SAPS  C311 1838   4.691   2.500   7.343  0.0671  0.1881 -1.1232
   14SAPS  H11X 1839   4.798   2.471   7.353 -0.0307 -0.1397 -1.0094
   14SAPS  H11Y 1840   4.621   2.420   7.373 -0.3276  1.5180  1.8941
   14SAPS  C312 1841   4.677   2.607   7.452  0.0352 -0.3728 -1.2776
   14SAPS  H12X 1842   4.576   2.653   7.443  0.5005  1.1732  0.6330
   14SAPS  H12Y 1843   4.740   2.695   7.426 -0.5217  0.0327 -1.2651
   14SAPS  C313 1844   4.693   2.560   7.595 -0.2678 -0.7458 -0.3469
   14SAPS  H13X 1845   4.780   2.500   7.627 -0.2921 -0.6280 -0.0567
   14SAPS  H13Y 1846   4.606   2.496   7.623 -1.0884  1.1427  1.7631
   14SAPS  C314 1847   4.686   2.684   7.696  0.3630  0.3159  0.6114
   14SAPS  H14X 1848   4.593   2.740   7.672 -1.5200 -3.2048 -1.1847
   14SAPS  H14Y 1849   4.768   2.752   7.667 -0.2188  0.0764 -1.8105
   14SAPS  C315 1850   4.685   2.643   7.839 -0.0941  0.0679  0.2756
   14SAPS  H15X 1851   4.791   2.616   7.863 -0.0720  0.7498  0.9719
   14SAPS  H15Y 1852   4.626   2.548   7.836  1.2596 -0.8031 -2.7709
   14SAPS  C316 1853   4.628   2.739   7.939  0.0401 -0.7142  0.1056
   14SAPS  H16X 1854   4.530   2.767   7.894  1.3579  1.6691 -1.4834
   14SAPS  H16Y 1855   4.689   2.830   7.953 -1.3583  0.1422  0.8492
   14SAPS  C317 1856   4.616   2.677   8.071  0.4309 -0.0299  0.0999
   14SAPS  H17X 1857   4.715   2.666   8.120 -0.0466  1.4301  1.4709
   14SAPS  H17Y 1858   4.561   2.581   8.060  2.8807 -1.5523  0.5399
   14SAPS  C318 1859   4.534   2.776   8.152  0.3386  0.6214  0.3190
   14SAPS  H18X 1860   4.572   2.879   8.133 -1.4905  0.9981 -1.7124
   14SAPS  H18Y 1861   4.545   2.763   8.262  0.2113 -1.1809  0.1396
   14SAPS  H18Z 1862   4.423   2.778   8.144  0.3618  1.6010  0.1280
   15SAPS     N 1863   6.425   2.103   5.804 -0.4637 -0.1573  0.6465
   15SAPS   HN1 1864   6.497   2.054   5.860 -1.5376 -0.4733  1.7938
   15SAPS   HN2 1865   6.451   2.114   5.704  0.1530 -1.9367  0.5716
   15SAPS   HN3 1866   6.408   2.196   5.847  0.8503  0.5778 -0.3485
   15SAPS   C12 1867   6.293   2.027   5.815 -0.0050 -0.1885 -0.8671
   15SAPS  H12A 1868   6.222   2.078   5.752 -1.5093 -0.4751  0.5484
   15SAPS   C13 1869   6.292   1.882   5.754  0.2285  0.5867  0.1734
   15SAPS  O13A 1870   6.366   1.849   5.663  0.7067  0.1068 -0.3818
   15SAPS  O13B 1871   6.185   1.811   5.779 -0.2498 -0.6106  0.1685
   15SAPS   C11 1872   6.256   2.016   5.969  0.4142 -0.3448  0.0134
   15SAPS  H11A 1873   6.337   1.955   6.015  0.6782  0.1853  0.2517
   15SAPS  H11B 1874   6.156   1.974   5.994 -0.0967  1.1837  0.6750
   15SAPS     P 1875   6.154   2.236   6.058 -0.1291 -0.0267 -0.3069
   15SAPS   O13 1876   6.201   2.364   6.110  0.2549 -0.4789 -0.3978
   15SAPS   O14 1877   6.066   2.235   5.939 -0.0062  0.5042 -0.1067
   15SAPS   O12 1878   6.268   2.148   6.026  0.3202 -0.0242  0.3569
   15SAPS   O11 1879   6.084   2.156   6.179  0.2747 -0.6284 -0.2563
   15SAPS    C1 1880   6.164   2.127   6.291 -0.5455 -0.2704 -0.3550
   15SAPS    HA 1881   6.149   2.023   6.326  0.2608  0.1890  1.4888
   15SAPS    HB 1882   6.274   2.132   6.276 -0.5042 -1.7625 -0.6710
   15SAPS    C2 1883   6.125   2.217   6.414  0.5595  0.1667 -0.1745
   15SAPS    HS 1884   6.184   2.311   6.406 -1.0728  1.4040  1.5338
   15SAPS   O21 1885   6.144   2.142   6.539 -0.2941  0.2085 -0.1180
   15SAPS   C21 1886   6.276   2.133   6.565 -0.3690 -0.0079 -0.2999
   15SAPS   O22 1887   6.362   2.180   6.494 -0.2121 -0.0711  0.0560
   15SAPS   C22 1888   6.299   2.043   6.686  0.3907 -0.5401  0.0664
   15SAPS   H2R 1889   6.236   1.953   6.671 -0.8462 -0.3251  3.2790
   15SAPS   H2S 1890   6.403   2.005   6.680  0.1527 -1.0728 -0.9610
   15SAPS    C3 1891   5.967   2.241   6.411 -0.7809  0.1984  0.4601
   15SAPS    HX 1892   5.928   2.138   6.398 -0.0746 -0.1241  0.8212
   15SAPS    HY 1893   5.948   2.303   6.321  0.3241 -0.8068 -0.4935
   15SAPS   O31 1894   5.914   2.304   6.529  0.0214  0.6883 -0.3382
   15SAPS   C31 1895   5.791   2.335   6.533  0.5347  0.1607 -0.3161
   15SAPS   O32 1896   5.702   2.324   6.453 -0.2899  0.0721  0.8369
   15SAPS   C32 1897   5.761   2.390   6.677 -0.2607 -0.6412  0.0285
   15SAPS   H2X 1898   5.861   2.410   6.722  0.7111 -1.3578 -1.7258
   15SAPS   H2Y 1899   5.717   2.305   6.732 -1.5125 -0.6509 -0.9343
   15SAPS   C23 1900   6.273   2.108   6.820  0.1369 -0.2610 -0.1719
   15SAPS   H3R 1901   6.164   2.130   6.816  0.2092  0.3747  0.7464
   15SAPS   H3S 1902   6.336   2.197   6.844 -1.0564  0.6429 -0.2558
   15SAPS   C24 1903   6.306   2.010   6.924 -0.5818  0.6164  0.2656
   15SAPS   H4R 1904   6.265   1.908   6.907  2.1034 -1.1148  3.0610
   15SAPS   H4S 1905   6.261   2.049   7.018 -1.9013  0.7846 -0.4219
   15SAPS   C25 1906   6.456   1.983   6.946 -0.1640 -0.2351  0.4563
   15SAPS   H5R 1907   6.495   1.904   6.879 -0.3114 -0.2839  0.4282
   15SAPS   C26 1908   6.543   2.031   7.033 -0.5244  0.4469  0.5208
   15SAPS   H6R 1909   6.644   1.987   7.033 -0.2499  0.8750 -2.7843
   15SAPS   C27 1910   6.529   2.150   7.126 -0.0452  0.5460  0.3301
   15SAPS   H7R 1911   6.436   2.133   7.185  1.1022 -1.3057  1.7399
   15SAPS   H7S 1912   6.516   2.239   7.060 -0.0735 -0.6183 -1.2939
   15SAPS   C28 1913   6.641   2.184   7.223 -0.1755  0.0928 -0.2022
   15SAPS   H8R 1914   6.719   2.246   7.176  0.1637 -1.1802 -1.3762
   15SAPS   C29 1915   6.674   2.129   7.340  0.6023 -0.4274 -0.0168
   15SAPS   H9R 1916   6.769   2.159   7.387 -0.0733  0.8347  0.6125
   15SAPS  C210 1917   6.601   2.016   7.393 -0.2023  0.4183 -0.8487
   15SAPS  H10R 1918   6.560   1.951   7.312 -2.5682 -2.1428  2.1669
   15SAPS  H10S 1919   6.515   2.059   7.449  1.3567 -0.2291  2.2044
   15SAPS  C211 1920   6.700   1.942   7.482  0.4234  0.8040  0.1105
   15SAPS  H11R 1921   6.750   1.852   7.442 -0.9610  0.8399 -1.8548
   15SAPS  C212 1922   6.722   1.968   7.610  0.1638 -0.4128 -0.5501
   15SAPS  H12R 1923   6.790   1.906   7.671  0.4524  1.5889  1.2844
   15SAPS  C213 1924   6.656   2.077   7.684  0.2358 -0.0832 -0.7332
   15SAPS  H13R 1925   6.630   2.161   7.616 -0.3091 -1.3321 -2.1062
   15SAPS  H13S 1926   6.729   2.111   7.761  1.9675 -1.9816 -1.4420
   15SAPS  C214 1927   6.525   2.038   7.749 -0.0231 -0.0689  0.1706
   15SAPS  H14R 1928   6.436   2.071   7.694 -0.0212  1.9182  1.2995
   15SAPS  C215 1929   6.509   1.979   7.869 -0.2528 -0.0774 -0.4516
   15SAPS  H15R 1930   6.405   1.962   7.899 -0.1130  0.2862  0.2640
   15SAPS  C216 1931   6.619   1.943   7.969 -0.3088 -0.1502  0.2641
   15SAPS  H16R 1932   6.720   1.953   7.924 -0.3576 -0.3045  0.1138
   15SAPS  H16S 1933   6.622   1.835   7.995 -1.3063 -0.4209 -0.6524
   15SAPS  C217 1934   6.631   2.043   8.088  0.8569 -0.0428 -0.1613
   15SAPS  H17R 1935   6.648   2.144   8.046  2.5743 -0.6517 -1.0582
   15SAPS  H17S 1936   6.722   2.010   8.143  0.0773 -1.2188  0.4699
   15SAPS  C218 1937   6.509   2.016   8.183  0.1198  0.7734 -0.6809
   15SAPS  H18R 1938   6.523   1.913   8.222  1.9120  1.0494 -0.5225
   15SAPS  H18S 1939   6.415   2.010   8.124 -0.5088 -0.5729  0.3987
   15SAPS  C219 1940   6.480   2.116   8.298 -0.1674 -0.2095 -0.2147
   15SAPS  H19R 1941   6.395   2.078   8.358 -0.5041  0.1945 -0.4375
   15SAPS  H19S 1942   6.458   2.209   8.242 -1.5408 -0.3082  0.1199
   15SAPS  C220 1943   6.604   2.138   8.394 -0.5733  0.1396  0.2223
   15SAPS  H20R 1944   6.694   2.157   8.331  0.8201 -1.7160  1.5331
   15SAPS  H20S 1945   6.621   2.046   8.454  1.8511 -0.1872 -0.8391
   15SAPS  H20T 1946   6.589   2.235   8.446 -0.4367  0.8722 -1.0667
   15SAPS   C33 1947   5.675   2.517   6.673  0.0795 -0.4424 -0.8339
   15SAPS   H3X 1948   5.572   2.491   6.640  0.4966 -0.1833 -2.4254
   15SAPS   H3Y 1949   5.708   2.597   6.602  1.9400 -0.5323 -0.1185
   15SAPS   C34 1950   5.660   2.596   6.808 -0.1772 -0.2629  0.3681
   15SAPS   H4X 1951   5.605   2.689   6.783 -2.5383 -0.8214  2.8760
   15SAPS   H4Y 1952   5.757   2.613   6.859 -1.0887  0.4820  1.9646
   15SAPS   C35 1953   5.572   2.525   6.916 -0.2166 -0.0004 -0.1217
   15SAPS   H5X 1954   5.470   2.539   6.875 -0.8492 -1.3647  0.9010
   15SAPS   H5Y 1955   5.582   2.585   7.009  0.1544 -3.7936  2.5071
   15SAPS   C36 1956   5.597   2.379   6.954  0.3898  0.4845 -0.0469
   15SAPS   H6X 1957   5.705   2.377   6.978  0.7406  3.1952 -1.0571
   15SAPS   H6Y 1958   5.574   2.316   6.866 -0.3203  1.4180 -0.5558
   15SAPS   C37 1959   5.503   2.327   7.066  0.2314 -0.0957 -0.4578
   15SAPS   H7X 1960   5.513   2.218   7.084  3.0405  0.1028 -0.3824
   15SAPS   H7Y 1961   5.395   2.354   7.058 -0.7548 -2.8939  1.6255
   15SAPS   C38 1962   5.533   2.390   7.204  0.9618  0.7591 -0.5449
   15SAPS   H8X 1963   5.528   2.501   7.199 -1.2361  0.7315 -0.1481
   15SAPS   H8Y 1964   5.642   2.367   7.210  1.6496  3.3749 -1.8156
   15SAPS   C39 1965   5.464   2.322   7.329 -0.3923 -0.3865  0.1182
   15SAPS   H9X 1966   5.482   2.212   7.333 -2.0286 -0.7230 -0.6270
   15SAPS   H9Y 1967   5.355   2.347   7.321 -0.2088  0.4545  0.1501
   15SAPS  C310 1968   5.528   2.367   7.460 -0.1091  0.2612  0.5918
   15SAPS  H10X 1969   5.502   2.474   7.475 -0.5730 -0.0372  2.0908
   15SAPS  H10Y 1970   5.638   2.359   7.448 -0.2820 -1.1904 -0.2200
   15SAPS  C311 1971   5.474   2.293   7.581 -0.4436 -0.4186  0.0477
   15SAPS  H11X 1972   5.484   2.183   7.575 -2.0005 -0.5862  0.1300
   15SAPS  H11Y 1973   5.368   2.315   7.607 -0.2429  1.6292 -0.6987
   15SAPS  C312 1974   5.553   2.331   7.707  0.5520 -0.0387 -0.1241
   15SAPS  H12X 1975   5.511   2.428   7.740 -2.6803 -1.5270  0.4429
   15SAPS  H12Y 1976   5.659   2.345   7.676  0.4326  1.0312 -0.1074
   15SAPS  C313 1977   5.555   2.234   7.821  0.1435 -0.0742 -0.1342
   15SAPS  H13X 1978   5.607   2.143   7.782  2.1437  2.1796 -3.2480
   15SAPS  H13Y 1979   5.453   2.209   7.859  0.7599  0.7113  2.1899
   15SAPS  C314 1980   5.630   2.281   7.945  0.4579  0.1824 -0.0999
   15SAPS  H14X 1981   5.582   2.372   7.988 -1.4635 -0.2994 -1.1106
   15SAPS  H14Y 1982   5.738   2.305   7.931  0.3457 -0.0532 -1.5008
   15SAPS  C315 1983   5.595   2.191   8.064 -0.0171  0.5521 -0.2871
   15SAPS  H15X 1984   5.628   2.091   8.028  0.7587  0.8295 -0.3523
   15SAPS  H15Y 1985   5.484   2.182   8.075  0.2504 -1.6664  1.1588
   15SAPS  C316 1986   5.656   2.242   8.196  0.2005 -0.0719  0.2446
   15SAPS  H16X 1987   5.610   2.339   8.223 -0.5346 -0.4356  0.3115
   15SAPS  H16Y 1988   5.767   2.247   8.191  0.2470  1.5003  1.9629
   15SAPS  C317 1989   5.630   2.153   8.323  0.0041 -0.0924  0.4611
   15SAPS  H17X 1990   5.681   2.202   8.408 -2.0005  3.0720  0.0077
   15SAPS  H17Y 1991   5.670   2.050   8.314 -1.3748 -0.7745  1.7045
   15SAPS  C318 1992   5.485   2.145   8.370 -0.1089  0.3969  0.1158
   15SAPS  H18X 1993   5.473   2.083   8.462  0.3365  2.2435  1.4815
   15SAPS  H18Y 1994   5.422   2.102   8.289  1.0909 -0.9067 -0.1684
   15SAPS  H18Z 1995   5.442   2.241   8.406  1.1401  1.0927 -0.1862
   16SAPS     N 1996   0.756   5.103   6.442  0.1208  0.3071 -0.0065
   16SAPS   HN1 1997   0.679   5.050   6.488  2.2039 -1.3941  1.7402
   16SAPS   HN2 1998   0.838   5.107   6.506 -0.1392 -0.3849  0.3748
   16SAPS   HN3 1999   0.723   5.200   6.423 -0.3464 -0.0819 -1.2484
   16SAPS   C12 2000   0.795   5.032   6.318  0.3030 -0.2499 -0.7240
   16SAPS  H12A 2001   0.711   5.034   6.249  0.1620  2.9687 -0.6019
   16SAPS   C13 2002   0.896   5.101   6.227  0.4294  0.3812  0.0837
   16SAPS  O13A 2003   0.963   5.198   6.267 -0.2999  0.5520  0.4867
   16SAPS  O13B 2004   0.921   5.044   6.117  0.0025 -0.5328 -0.4354
   16SAPS   C11 2005   0.843   4.883   6.351  0.2502 -0.1166  0.2694
   16SAPS  H11A 2006   0.949   4.900   6.379  0.5462 -0.3575 -0.6713
   16SAPS  H11B 2007   0.850   4.821   6.259 -0.1770  0.6175 -0.2698
   16SAPS     P 2008   0.729   4.671   6.443  0.0717 -0.0248 -0.1827
   16SAPS   O13 2009   0.599   4.676   6.371 -0.2743  0.3749 -0.1000
   16SAPS   O14 2010   0.836   4.587   6.389 -0.5133  0.3281  0.0920
   16SAPS   O12 2011   0.770   4.818   6.462 -0.2735  0.0398 -0.5488
   16SAPS   O11 2012   0.701   4.627   6.588 -0.2986  0.0221  0.5867
   16SAPS    C1 2013   0.755   4.709   6.698 -0.2371  0.4417  0.1950
   16SAPS    HA 2014   0.861   4.732   6.677 -0.8130  2.4627 -0.7073
   16SAPS    HB 2015   0.698   4.803   6.710  0.6216  0.8696  1.1431
   16SAPS    C2 2016   0.751   4.634   6.834 -0.1919 -0.4841  0.6427
   16SAPS    HS 2017   0.767   4.703   6.919 -2.4090  0.1551  0.5928
   16SAPS   O21 2018   0.846   4.526   6.831 -0.0886 -0.0278 -0.2410
   16SAPS   C21 2019   0.958   4.547   6.901 -0.0895  0.2545 -0.7832
   16SAPS   O22 2020   0.991   4.654   6.949  1.0817  0.3810  0.3907
   16SAPS   C22 2021   1.035   4.415   6.908 -0.8518  0.1658  1.5153
   16SAPS   H2R 2022   1.036   4.377   6.804  0.2665  0.1159  1.5335
   16SAPS   H2S 2023   1.139   4.430   6.946 -0.0733  0.9802 -0.7787
   16SAPS    C3 2024   0.608   4.580   6.862 -0.0455  0.9940 -0.1402
   16SAPS    HX 2025   0.558   4.533   6.775  1.4889 -1.0997  0.0308
   16SAPS    HY 2026   0.542   4.666   6.887 -0.7338  0.9599 -1.7202
   16SAPS   O31 2027   0.604   4.483   6.970 -0.1181  0.1799 -0.6553
   16SAPS   C31 2028   0.609   4.355   6.937  1.0104 -0.2720  0.0641
   16SAPS   O32 2029   0.628   4.311   6.827  0.4707 -0.0616  0.7564
   16SAPS   C32 2030   0.591   4.270   7.066 -0.2080 -0.1172  0.2678
   16SAPS   H2X 2031   0.636   4.336   7.143 -1.2180  3.2142 -1.7476
   16SAPS   H2Y 2032   0.646   4.174   7.059 -0.4273 -0.2203 -0.0561
   16SAPS   C23 2033   0.972   4.302   6.996 -0.2842  0.1925  0.0855
   16SAPS   H3R 2034   1.010   4.208   6.952 -1.0728  0.3854 -1.0513
   16SAPS   H3S 2035   0.861   4.301   6.984 -0.3171 -0.8666  0.4143
   16SAPS   C24 2036   1.007   4.307   7.145 -0.7511 -0.2573  0.1717
   16SAPS   H4R 2037   1.116   4.310   7.166 -1.0137  0.2933  1.5694
   16SAPS   H4S 2038   0.976   4.210   7.190 -1.7730  0.6445  1.4891
   16SAPS   C25 2039   0.929   4.410   7.224  0.2488  0.3498 -0.3513
   16SAPS   H5R 2040   0.860   4.473   7.166  0.6443  2.2491  1.1383
   16SAPS   C26 2041   0.925   4.432   7.358  0.2338  0.3727 -0.0660
   16SAPS   H6R 2042   0.859   4.511   7.397  1.0989  0.7878  0.5764
   16SAPS   C27 2043   1.017   4.353   7.456  0.1522  0.0407 -0.2874
   16SAPS   H7R 2044   1.094   4.422   7.495  0.7260  1.2906 -3.3341
   16SAPS   H7S 2045   1.072   4.270   7.407 -1.0627  0.1112 -1.8517
   16SAPS   C28 2046   0.938   4.282   7.562 -0.4504 -0.3731 -0.8212
   16SAPS   H8R 2047   0.911   4.177   7.545 -0.3719 -0.6672  0.7690
   16SAPS   C29 2048   0.891   4.345   7.674 -0.1732  0.2740  0.6462
   16SAPS   H9R 2049   0.840   4.288   7.754 -0.1296 -0.1269  0.3896
   16SAPS  C210 2050   0.923   4.490   7.706 -0.0645 -0.2343 -0.8443
   16SAPS  H10R 2051   0.865   4.561   7.644  1.6650 -0.1837 -2.4686
   16SAPS  H10S 2052   1.029   4.520   7.698 -0.1499  0.4777  0.4131
   16SAPS  C211 2053   0.884   4.519   7.851  0.0368  0.1691  0.3882
   16SAPS  H11R 2054   0.978   4.513   7.909  2.7985 -0.5298 -3.7353
   16SAPS  C212 2055   0.770   4.547   7.902  0.5987 -0.1029  0.3054
   16SAPS  H12R 2056   0.767   4.563   8.011 -1.9108 -1.7064  0.5588
   16SAPS  C213 2057   0.638   4.553   7.825 -0.0632 -0.2496  0.7128
   16SAPS  H13R 2058   0.657   4.567   7.716  2.1969 -1.4747  0.9104
   16SAPS  H13S 2059   0.576   4.645   7.837  1.9499  1.3894 -0.6977
   16SAPS  C214 2060   0.557   4.434   7.829  0.2807  0.1466  0.0471
   16SAPS  H14R 2061   0.559   4.373   7.738 -1.0126  0.9942 -0.5905
   16SAPS  C215 2062   0.475   4.394   7.930  0.5079 -0.0480  1.1471
   16SAPS  H15R 2063   0.424   4.296   7.925  0.0630  0.2288  0.0345
   16SAPS  C216 2064   0.450   4.471   8.062 -0.3408  0.4938 -0.1480
   16SAPS  H16R 2065   0.527   4.550   8.060 -0.5983  0.7536  0.1372
   16SAPS  H16S 2066   0.467   4.407   8.152  0.7138  2.8008  1.3721
   16SAPS  C217 2067   0.308   4.538   8.066  0.1609 -0.0483 -0.0091
   16SAPS  H17R 2068   0.292   4.574   7.962 -0.8018 -1.0540 -0.2399
   16SAPS  H17S 2069   0.297   4.635   8.119 -0.2991 -0.3380  0.4403
   16SAPS  C218 2070   0.186   4.449   8.086  0.5693 -0.0242 -0.3830
   16SAPS  H18R 2071   0.208   4.397   8.182 -0.7985 -0.2397 -0.1605
   16SAPS  H18S 2072   0.183   4.368   8.010 -0.1282  0.5181 -0.9417
   16SAPS  C219 2073   0.061   4.531   8.089  0.1007 -0.3434 -0.1886
   16SAPS  H19R 2074   0.057   4.602   8.004 -0.6778  0.0182  0.1432
   16SAPS  H19S 2075   0.054   4.591   8.182 -0.1335 -1.1641  0.3353
   16SAPS  C220 2076  -0.069   4.449   8.100  0.0481  0.2889  0.3613
   16SAPS  H20R 2077  -0.147   4.503   8.158 -1.1130 -0.3763 -0.5346
   16SAPS  H20S 2078  -0.061   4.349   8.148 -1.2720 -0.2594 -0.4758
   16SAPS  H20T 2079  -0.114   4.413   8.004 -1.0414  0.2374  0.8760
   16SAPS   C33 2080   0.441   4.239   7.077  0.3589  0.1578  0.0946
   16SAPS   H3X 2081   0.411   4.188   6.983 -0.7221  1.7083 -0.4512
   16SAPS   H3Y 2082   0.395   4.340   7.086  2.5774  1.5140 -2.5111
   16SAPS   C34 2083   0.412   4.147   7.198  0.3834  0.0632 -0.1529
   16SAPS   H4X 2084   0.451   4.047   7.167  1.1087  0.9939 -2.4795
   16SAPS   H4Y 2085   0.303   4.142   7.216  0.9230 -2.8169  3.5507
   16SAPS   C35 2086   0.481   4.199   7.325 -0.6730  0.3752  0.3181
   16SAPS   H5X 2087   0.464   4.309   7.323  1.9203  0.8903  2.0567
   16SAPS   H5Y 2088   0.591   4.186   7.319 -1.0853 -4.2756 -2.0321
   16SAPS   C36 2089   0.442   4.129   7.456 -0.1597  0.1272 -1.0427
   16SAPS   H6X 2090   0.332   4.136   7.474  0.1834  2.7208  0.5841
   16SAPS   H6Y 2091   0.484   4.191   7.538 -1.3373 -0.1275 -0.2140
   16SAPS   C37 2092   0.506   3.988   7.473 -0.3226 -0.2740  0.1352
   16SAPS   H7X 2093   0.609   3.978   7.434 -0.6742 -0.6957 -0.7309
   16SAPS   H7Y 2094   0.447   3.913   7.415  0.3101 -1.0476  0.4675
   16SAPS   C38 2095   0.503   3.954   7.625 -0.3477 -0.1764  0.4171
   16SAPS   H8X 2096   0.518   3.847   7.651 -1.7824 -0.9700 -1.7593
   16SAPS   H8Y 2097   0.400   3.955   7.669 -0.5341 -1.2216  0.0494
   16SAPS   C39 2098   0.605   4.036   7.712 -0.1762  0.1526  0.5067
   16SAPS   H9X 2099   0.595   4.142   7.682 -1.5782  0.2097  1.0767
   16SAPS   H9Y 2100   0.708   4.001   7.693 -0.8132 -0.1233 -3.1832
   16SAPS  C310 2101   0.568   4.025   7.862 -0.0019 -0.1932  0.1303
   16SAPS  H10X 2102   0.555   3.921   7.896  1.1489 -1.0073 -1.7285
   16SAPS  H10Y 2103   0.477   4.088   7.873 -1.0652 -1.4167 -1.2385
   16SAPS  C311 2104   0.680   4.073   7.961 -0.4119  0.3000 -0.1891
   16SAPS  H11X 2105   0.735   4.162   7.925  1.8717 -0.8539  0.2686
   16SAPS  H11Y 2106   0.750   3.990   7.985 -1.7348 -0.8644 -0.2255
   16SAPS  C312 2107   0.625   4.113   8.099 -0.7500 -1.5389  0.2589
   16SAPS  H12X 2108   0.570   4.210   8.093 -0.5653 -1.4766 -0.4538
   16SAPS  H12Y 2109   0.713   4.143   8.161 -1.2080  1.9414 -0.5718
   16SAPS  C313 2110   0.541   4.009   8.164 -0.5114 -0.4303  0.2872
   16SAPS  H13X 2111   0.591   3.910   8.159 -0.6401 -0.4527 -3.0959
   16SAPS  H13Y 2112   0.446   4.001   8.107 -0.5617 -2.7341  0.5716
   16SAPS  C314 2113   0.516   4.033   8.306  0.5933 -0.1399 -0.3251
   16SAPS  H14X 2114   0.439   3.966   8.351  1.2255  0.8519  2.4329
   16SAPS  H14Y 2115   0.469   4.132   8.324 -0.4044 -0.7605  0.5680
   16SAPS  C315 2116   0.642   4.022   8.401 -0.0163 -0.0971  0.3907
   16SAPS  H15X 2117   0.715   4.097   8.364  0.2470 -1.6905 -2.5729
   16SAPS  H15Y 2118   0.689   3.927   8.370  1.2039  1.1449 -1.8124
   16SAPS  C316 2119   0.612   4.043   8.552  0.3451  0.6124 -0.1591
   16SAPS  H16X 2120   0.559   3.960   8.602  1.1918 -0.1965 -0.5836
   16SAPS  H16Y 2121   0.540   4.128   8.545 -0.8307 -0.4496 -1.5467
   16SAPS  C317 2122   0.748   4.066   8.616 -0.8253 -0.7971  0.9309
   16SAPS  H17X 2123   0.802   4.154   8.574 -1.4648 -1.5570 -1.7021
   16SAPS  H17Y 2124   0.821   3.987   8.588  0.1239  0.7469 -1.3128
   16SAPS  C318 2125   0.745   4.079   8.769 -0.3785 -0.8313  0.2652
   16SAPS  H18X 2126   0.844   4.061   8.817 -0.2383  0.6807  0.6211
   16SAPS  H18Y 2127   0.680   4.002   8.815  0.7967 -0.7054  2.2906
   16SAPS  H18Z 2128   0.714   4.181   8.801 -0.1622 -0.2247 -1.3665
   17SAPC     N 2129   6.091   2.897  10.429 -0.2403  0.0294 -0.6298
   17SAPC   C12 2130   5.960   2.936  10.368  0.6491 -0.4330  0.0064
   17SAPC  H12A 2131   5.959   3.040  10.339 -0.1372 -0.3495  0.2898
   17SAPC  H12B 2132   5.895   2.927  10.454 -0.0673  0.3729 -0.4316
   17SAPC   C13 2133   6.089   2.759  10.495 -0.3422  0.5761 -0.7104
   17SAPC  H13A 2134   6.068   2.677  10.428 -1.3834  0.3615 -0.1428
   17SAPC  H13B 2135   6.186   2.733  10.536 -1.3245 -2.2529  0.0891
   17SAPC  H13C 2136   6.012   2.765  10.570  0.1962  2.4178 -0.2559
   17SAPC   C14 2137   6.200   2.898  10.336  1.0655  0.6076  0.8888
   17SAPC  H14A 2138   6.193   2.822  10.260  1.0905  2.0358 -0.5816
   17SAPC  H14B 2139   6.200   2.990  10.280 -2.3642  1.0845  1.4590
   17SAPC  H14C 2140   6.297   2.887  10.382  0.7069 -2.2374  1.1372
   17SAPC   C15 2141   6.124   3.004  10.528 -0.1006 -1.0127  0.1250
   17SAPC  H15A 2142   6.225   3.006  10.567  0.0482  0.3562 -0.3049
   17SAPC  H15B 2143   6.110   3.103  10.488  2.9867 -0.5136 -0.0015
   17SAPC  H15C 2144   6.063   2.991  10.617  1.1078 -2.0911  0.8301
   17SAPC   C11 2145   5.899   2.852  10.249  0.1130 -0.9791  0.1699
   17SAPC  H11A 2146   5.963   2.867  10.159  0.2226  2.5308  0.6937
   17SAPC  H11B 2147   5.801   2.903  10.236  0.5936 -0.0420  0.1162
   17SAPC     P 2148   5.765   2.652  10.346 -0.0235  0.0985  0.1914
   17SAPC   O13 2149   5.803   2.522  10.409 -0.0716 -0.6781  0.1907
   17SAPC   O14 2150   5.702   2.746  10.437  0.7534  0.0220 -0.1757
   17SAPC   O12 2151   5.894   2.714  10.280  0.6683  0.0689 -0.1515
   17SAPC   O11 2152   5.673   2.635  10.219 -0.1114  0.0567 -0.0676
   17SAPC    C1 2153   5.728   2.581  10.096 -0.0709 -0.4828  0.4815
   17SAPC    HA 2154   5.838   2.564  10.094 -0.0206 -0.6034  2.5232
   17SAPC    HB 2155   5.674   2.493  10.054 -0.4603 -0.0906  0.1477
   17SAPC    C2 2156   5.712   2.699   9.985  0.2050  0.4879  0.2445
   17SAPC    HS 2157   5.771   2.787  10.019 -1.4153  2.2907 -1.3680
   17SAPC   O21 2158   5.570   2.727   9.970 -0.1011 -0.0464 -0.3913
   17SAPC   C21 2159   5.541   2.845   9.922  0.8368 -0.3140 -0.0091
   17SAPC   O22 2160   5.623   2.934   9.902 -0.1641  1.0754  0.3108
   17SAPC   C22 2161   5.393   2.843   9.861 -0.1557  0.6915 -0.5944
   17SAPC   H2R 2162   5.398   2.778   9.771 -0.2647 -1.4108  0.8370
   17SAPC   H2S 2163   5.334   2.801   9.945  0.4763 -0.5238 -0.7169
   17SAPC    C3 2164   5.770   2.644   9.846 -0.1023 -0.1831 -0.0307
   17SAPC    HX 2165   5.696   2.568   9.814 -0.2882  0.1287 -0.3412
   17SAPC    HY 2166   5.873   2.604   9.850  0.4034  1.1502  1.6425
   17SAPC   O31 2167   5.768   2.743   9.748 -0.2062  0.6535 -0.2510
   17SAPC   C31 2168   5.855   2.842   9.750 -0.0907 -0.7816  0.1178
   17SAPC   O32 2169   5.945   2.858   9.828 -0.3023 -0.2372 -0.1387
   17SAPC   C32 2170   5.807   2.946   9.646  0.5791 -0.0210 -0.1972
   17SAPC   H2X 2171   5.785   3.042   9.697 -0.9716 -0.2007 -0.4789
   17SAPC   H2Y 2172   5.720   2.909   9.586  2.6728 -2.8659 -1.6957
   17SAPC   C23 2173   5.331   2.974   9.817 -0.2902  0.0229  0.2166
   17SAPC   H3R 2174   5.387   3.007   9.728  1.2062 -1.8464  0.4101
   17SAPC   H3S 2175   5.354   3.052   9.893  1.1948  1.7600 -1.9107
   17SAPC   C24 2176   5.177   2.976   9.780 -1.0390  0.6857 -0.1886
   17SAPC   H4R 2177   5.124   2.943   9.872 -0.8628  0.6036 -0.1179
   17SAPC   H4S 2178   5.152   2.898   9.704  0.7069  1.4465 -1.5918
   17SAPC   C25 2179   5.131   3.115   9.744  0.4723  0.3394  0.1167
   17SAPC   H5R 2180   5.122   3.181   9.832 -0.6850  0.7691 -0.3056
   17SAPC   C26 2181   5.108   3.163   9.623 -0.6623 -0.5971 -0.3823
   17SAPC   H6R 2182   5.066   3.264   9.620 -0.0473 -0.1647  2.4896
   17SAPC   C27 2183   5.124   3.102   9.491  0.3811 -0.4579 -0.1298
   17SAPC   H7R 2184   5.188   3.012   9.507 -0.8899 -1.2744  0.5948
   17SAPC   H7S 2185   5.174   3.171   9.421  1.1351 -0.8403  0.0133
   17SAPC   C28 2186   4.995   3.052   9.427 -0.0539  0.6915 -0.4990
   17SAPC   H8R 2187   4.928   3.007   9.501  0.2923  3.6185  1.7647
   17SAPC   C29 2188   4.952   3.064   9.297 -0.1381 -0.1462  0.4634
   17SAPC   H9R 2189   4.853   3.025   9.268 -0.1510  1.1090 -1.3345
   17SAPC  C210 2190   5.030   3.135   9.186  0.2872 -0.1841 -0.1698
   17SAPC  H10R 2191   5.105   3.059   9.154  0.9785  0.3962  0.0374
   17SAPC  H10S 2192   5.085   3.216   9.239 -0.6595 -1.2450  2.5946
   17SAPC  C211 2193   4.942   3.194   9.074  0.4090 -1.0993  0.1807
   17SAPC  H11R 2194   4.871   3.272   9.105 -0.8180 -0.7584 -3.0854
   17SAPC  C212 2195   4.932   3.150   8.943 -0.0663 -0.8705  0.4979
   17SAPC  H12R 2196   4.874   3.213   8.874  0.4916  2.7496  3.0195
   17SAPC  C213 2197   4.994   3.025   8.882 -0.5020 -0.2268 -0.0690
   17SAPC  H13R 2198   4.915   2.949   8.901 -0.8129  0.3335  0.9747
   17SAPC  H13S 2199   5.082   2.998   8.944 -0.7038 -1.7298 -0.3960
   17SAPC  C214 2200   5.031   3.010   8.736  0.1410 -0.2334  0.5216
   17SAPC  H14R 2201   4.998   2.920   8.682 -0.5474 -0.2067  0.8957
   17SAPC  C215 2202   5.115   3.097   8.677 -0.2766  0.7033  0.3284
   17SAPC  H15R 2203   5.147   3.068   8.575  0.9235  0.6924  0.6984
   17SAPC  C216 2204   5.183   3.221   8.728  0.5300  0.1447  0.3317
   17SAPC  H16R 2205   5.292   3.203   8.717  0.3303 -0.3242 -1.0700
   17SAPC  H16S 2206   5.169   3.242   8.836  0.2603  1.0610  0.1292
   17SAPC  C217 2207   5.143   3.347   8.651  0.6299  0.0934  0.2240
   17SAPC  H17R 2208   5.184   3.438   8.700  0.2207 -1.0544  2.8753
   17SAPC  H17S 2209   5.032   3.354   8.649  0.6835  1.1013 -0.0152
   17SAPC  C218 2210   5.185   3.349   8.505  0.0174  0.0949 -0.0573
   17SAPC  H18R 2211   5.144   3.254   8.464 -0.7770  0.4817 -0.1925
   17SAPC  H18S 2212   5.294   3.337   8.490  0.0041  1.9081 -1.9563
   17SAPC  C219 2213   5.139   3.472   8.430  0.1027 -0.1176 -0.1675
   17SAPC  H19R 2214   5.030   3.475   8.453  0.2313 -1.1401  0.6540
   17SAPC  H19S 2215   5.157   3.449   8.322  0.3029  3.5559 -1.0285
   17SAPC  C220 2216   5.218   3.600   8.467 -0.1979 -0.7908 -0.6002
   17SAPC  H20R 2217   5.178   3.650   8.558 -1.4310 -0.3468 -1.3555
   17SAPC  H20S 2218   5.228   3.665   8.378 -1.2903 -2.0459 -1.6866
   17SAPC  H20T 2219   5.323   3.568   8.484  0.7070  1.2962 -1.9121
   17SAPC   C33 2220   5.924   2.971   9.548  0.0008 -0.5762 -0.5810
   17SAPC   H3X 2221   5.883   3.017   9.455 -2.0928 -2.5552 -0.7420
   17SAPC   H3Y 2222   5.979   2.877   9.525 -1.4250 -1.8545  0.9731
   17SAPC   C34 2223   6.025   3.081   9.605  0.7702  0.5924 -0.0298
   17SAPC   H4X 2224   6.061   3.062   9.708  1.0723  0.8838 -0.0788
   17SAPC   H4Y 2225   5.969   3.175   9.619  1.0069  0.9060 -1.0847
   17SAPC   C35 2226   6.156   3.109   9.528 -0.0368  0.3753  0.4904
   17SAPC   H5X 2227   6.225   3.022   9.528 -1.5007 -0.8316  0.0985
   17SAPC   H5Y 2228   6.206   3.189   9.586  0.5149 -0.4831  1.2281
   17SAPC   C36 2229   6.121   3.155   9.386 -0.1280 -0.4428 -0.7062
   17SAPC   H6X 2230   6.050   3.241   9.391 -1.4529 -1.5213 -0.5199
   17SAPC   H6Y 2231   6.056   3.076   9.344 -1.1799 -1.5729  2.6783
   17SAPC   C37 2232   6.243   3.192   9.296 -0.0574  0.3694  0.0567
   17SAPC   H7X 2233   6.325   3.125   9.329  0.7481  1.5437  0.4793
   17SAPC   H7Y 2234   6.267   3.298   9.317  1.3427  0.1291 -0.2353
   17SAPC   C38 2235   6.217   3.180   9.143 -0.2037  0.7579  0.2867
   17SAPC   H8X 2236   6.144   3.256   9.108 -0.5429  0.2568 -0.1187
   17SAPC   H8Y 2237   6.161   3.086   9.124 -1.2542  1.0098  1.9163
   17SAPC   C39 2238   6.344   3.180   9.055  0.0348  0.2317  0.1786
   17SAPC   H9X 2239   6.418   3.113   9.103  2.0299  0.4237 -2.3570
   17SAPC   H9Y 2240   6.381   3.285   9.059 -0.7119  0.6595 -2.3199
   17SAPC  C310 2241   6.319   3.150   8.905 -0.4923  0.0957 -0.6026
   17SAPC  H10X 2242   6.237   3.218   8.872  0.6952  2.2380  0.6287
   17SAPC  H10Y 2243   6.269   3.052   8.893 -1.5902  0.5852 -0.1891
   17SAPC  C311 2244   6.441   3.153   8.815  0.1784  0.6106 -0.0125
   17SAPC  H11X 2245   6.513   3.092   8.873 -1.2896 -1.6370 -0.4032
   17SAPC  H11Y 2246   6.487   3.253   8.797  4.0776 -1.2888 -1.8763
   17SAPC  C312 2247   6.410   3.080   8.681  0.6646  0.1041  0.2826
   17SAPC  H12X 2248   6.324   3.133   8.636 -0.3033 -1.5105  0.1429
   17SAPC  H12Y 2249   6.385   2.973   8.698 -0.8935  0.4427  0.2326
   17SAPC  C313 2250   6.530   3.082   8.587  0.0054 -0.3543  0.4467
   17SAPC  H13X 2251   6.590   2.990   8.601  0.9123  0.2538  0.6663
   17SAPC  H13Y 2252   6.593   3.172   8.605 -0.6896  0.9298 -2.7784
   17SAPC  C314 2253   6.485   3.081   8.438 -0.4545 -0.3311 -0.2174
   17SAPC  H14X 2254   6.431   3.178   8.432  1.6496  1.0696  1.5043
   17SAPC  H14Y 2255   6.415   2.996   8.422 -1.7646  0.6497  0.1320
   17SAPC  C315 2256   6.603   3.074   8.338  0.3026 -0.1742  0.1020
   17SAPC  H15X 2257   6.649   2.974   8.350  1.9713  0.3656 -1.3643
   17SAPC  H15Y 2258   6.687   3.146   8.342  1.2151 -1.1715 -0.6877
   17SAPC  C316 2259   6.546   3.068   8.195 -0.4989  0.0575 -0.1057
   17SAPC  H16X 2260   6.513   3.169   8.164  0.9444  1.0499  1.4099
   17SAPC  H16Y 2261   6.457   3.002   8.187 -1.4824  1.4733 -1.3379
   17SAPC  C317 2262   6.650   3.011   8.089  0.0273  0.1046  0.2226
   17SAPC  H17X 2263   6.683   2.923   8.148 -0.4549 -0.5693 -0.4925
   17SAPC  H17Y 2264   6.739   3.076   8.072 -0.6114  0.9756  0.1420
   17SAPC  C318 2265   6.584   2.999   7.953 -0.3378 -0.3860  0.6131
   17SAPC  H18X 2266   6.638   2.928   7.887 -0.5481 -0.8955  0.9782
   17SAPC  H18Y 2267   6.478   2.969   7.948 -0.4131  0.0614 -0.9910
   17SAPC  H18Z 2268   6.583   3.101   7.908 -1.0022 -0.5037  0.3560
   18SAPC     N 2269   5.951   1.475  10.754  0.1443  0.2767  0.3437
   18SAPC   C12 2270   6.008   1.573  10.662  0.0715  0.0928 -0.5707
   18SAPC  H12A 2271   6.105   1.603  10.697  0.4104 -1.3342 -0.2654
   18SAPC  H12B 2272   5.941   1.658  10.653  0.7748  0.4869 -2.4767
   18SAPC   C13 2273   5.935   1.543  10.891 -0.0414  0.5388  0.0328
   18SAPC  H13A 2274   5.881   1.472  10.951 -0.2687 -0.1294 -0.9518
   18SAPC  H13B 2275   6.028   1.566  10.940 -1.7305 -0.0902  3.8794
   18SAPC  H13C 2276   5.882   1.636  10.875 -1.0067  0.0358  0.2096
   18SAPC   C14 2277   5.817   1.426  10.700  0.1003  0.1442  0.0069
   18SAPC  H14A 2278   5.824   1.384  10.601  1.2041 -2.9270  1.2437
   18SAPC  H14B 2279   5.775   1.356  10.771  1.4598 -0.0433  0.6580
   18SAPC  H14C 2280   5.747   1.506  10.682 -1.6836 -1.3486 -0.0879
   18SAPC   C15 2281   6.047   1.357  10.776  0.5488 -0.0823 -0.0486
   18SAPC  H15A 2282   6.011   1.263  10.814  2.3322 -1.6810 -2.0851
   18SAPC  H15B 2283   6.096   1.329  10.684  0.0575 -1.6435  0.1392
   18SAPC  H15C 2284   6.123   1.393  10.843 -1.8373  0.0333  2.7946
   18SAPC   C11 2285   6.033   1.529  10.518 -0.2427  0.5139 -0.7990
   18SAPC  H11A 2286   6.039   1.626  10.465 -0.6727  1.9636  1.6556
   18SAPC  H11B 2287   5.940   1.478  10.485 -0.8689  1.1961 -0.1532
   18SAPC     P 2288   6.294   1.497  10.537  0.0351  0.1123  0.4001
   18SAPC   O13 2289   6.301   1.570  10.663  0.1685  0.2830 -0.3778
   18SAPC   O14 2290   6.391   1.388  10.523 -0.3832 -0.0795  0.8335
   18SAPC   O12 2291   6.147   1.443  10.517 -0.5666 -0.2877  0.1162
   18SAPC   O11 2292   6.310   1.599  10.415  0.4516  0.7091 -0.8203
   18SAPC    C1 2293   6.278   1.568  10.280 -0.2953 -0.7967 -0.1349
   18SAPC    HA 2294   6.229   1.469  10.268 -0.2728 -0.8075 -0.1364
   18SAPC    HB 2295   6.206   1.650  10.259  0.0116 -1.1711 -3.1488
   18SAPC    C2 2296   6.403   1.581  10.197 -0.3037 -0.1142 -0.5336
   18SAPC    HS 2297   6.449   1.681  10.208 -1.0563  0.2567 -0.7068
   18SAPC   O21 2298   6.356   1.561  10.062 -0.0477  0.4190  0.4950
   18SAPC   C21 2299   6.303   1.659   9.999 -0.0226 -0.3573  0.0651
   18SAPC   O22 2300   6.292   1.773  10.041  0.1294  0.6358  0.1519
   18SAPC   C22 2301   6.256   1.617   9.860 -0.2784  0.2092  0.1207
   18SAPC   H2R 2302   6.345   1.569   9.814  1.5720  1.9034  1.7087
   18SAPC   H2S 2303   6.173   1.544   9.865 -0.1170  0.0625  0.8058
   18SAPC    C3 2304   6.502   1.458  10.229 -0.3414 -0.2380  0.3581
   18SAPC    HX 2305   6.437   1.373  10.260  2.0240 -1.8564  1.1983
   18SAPC    HY 2306   6.571   1.481  10.313  3.5049 -1.4696 -2.1830
   18SAPC   O31 2307   6.581   1.408  10.116  0.6719 -0.3256  0.4970
   18SAPC   C31 2308   6.680   1.490  10.086 -0.8336  0.4016 -0.0036
   18SAPC   O32 2309   6.702   1.597  10.140  0.3814 -0.0542  0.1693
   18SAPC   C32 2310   6.772   1.427   9.973  0.2856 -0.8481 -0.7543
   18SAPC   H2X 2311   6.735   1.329   9.938  1.5502 -1.6423  0.0427
   18SAPC   H2Y 2312   6.864   1.398  10.028  1.3506 -0.1711 -2.0967
   18SAPC   C23 2313   6.212   1.743   9.784  0.2944  0.2512 -0.4344
   18SAPC   H3R 2314   6.299   1.812   9.782  0.4527  0.0698 -0.0440
   18SAPC   H3S 2315   6.141   1.790   9.855  2.2173  4.1942 -0.8676
   18SAPC   C24 2316   6.144   1.720   9.652  0.5616 -0.3892  0.4253
   18SAPC   H4R 2317   6.082   1.809   9.628  0.7391 -0.2016  0.6607
   18SAPC   H4S 2318   6.076   1.634   9.669 -2.3519  2.0744  2.0447
   18SAPC   C25 2319   6.244   1.679   9.553  0.3652 -0.1608 -0.8262
   18SAPC   H5R 2320   6.325   1.621   9.599  0.1255  0.5691  0.5496
   18SAPC   C26 2321   6.241   1.715   9.423  0.5095 -0.5122 -0.7632
   18SAPC   H6R 2322   6.320   1.681   9.354 -1.0497 -0.0062 -2.8833
   18SAPC   C27 2323   6.134   1.798   9.347 -0.0019 -0.5927  0.5746
   18SAPC   H7R 2324   6.199   1.848   9.272  1.2356 -1.6934  0.8820
   18SAPC   H7S 2325   6.088   1.874   9.413  0.6874  1.0304 -0.7504
   18SAPC   C28 2326   6.027   1.705   9.294  0.0144 -0.3481 -0.3172
   18SAPC   H8R 2327   5.983   1.623   9.353  3.8083 -1.6362  1.0125
   18SAPC   C29 2328   5.979   1.717   9.165 -0.0954 -0.3992  0.5783
   18SAPC   H9R 2329   5.881   1.673   9.139  0.8942 -3.0234  0.9917
   18SAPC  C210 2330   6.030   1.821   9.062 -0.0662  0.7953  0.9708
   18SAPC  H10R 2331   6.028   1.924   9.103  2.5450  1.0139  0.7309
   18SAPC  H10S 2332   5.957   1.810   8.978  2.0876 -2.5854 -0.6556
   18SAPC  C211 2333   6.166   1.780   9.005 -0.5941 -0.8157  0.0967
   18SAPC  H11R 2334   6.247   1.769   9.079  0.7181 -1.2240 -1.3487
   18SAPC  C212 2335   6.191   1.742   8.882  0.5939  0.2843  0.0251
   18SAPC  H12R 2336   6.297   1.718   8.863  0.7159  0.6409  0.2383
   18SAPC  C213 2337   6.102   1.734   8.765 -0.2189  0.9880 -0.4346
   18SAPC  H13R 2338   6.000   1.771   8.790  0.7008  3.2369  0.2593
   18SAPC  H13S 2339   6.075   1.626   8.759 -1.6987  0.9983  3.2508
   18SAPC  C214 2340   6.141   1.795   8.634  0.2925 -0.0381 -0.4857
   18SAPC  H14R 2341   6.097   1.892   8.609 -1.9892 -1.3393 -1.9296
   18SAPC  C215 2342   6.223   1.744   8.544 -0.3793 -0.0124  0.2311
   18SAPC  H15R 2343   6.257   1.807   8.460  1.3753  0.7011  1.4133
   18SAPC  C216 2344   6.299   1.612   8.547 -0.7194 -0.2610  1.0241
   18SAPC  H16R 2345   6.279   1.565   8.449  0.7392  3.3553 -1.2361
   18SAPC  H16S 2346   6.250   1.548   8.624 -2.2996 -2.2544 -1.4713
   18SAPC  C217 2347   6.449   1.631   8.588  0.9832  0.1130 -0.1783
   18SAPC  H17R 2348   6.464   1.674   8.689  1.3856 -1.2342  0.3522
   18SAPC  H17S 2349   6.512   1.693   8.520  2.1909  1.0187  1.6965
   18SAPC  C218 2350   6.524   1.492   8.617 -0.4384  0.0543  1.1397
   18SAPC  H18R 2351   6.631   1.521   8.624 -0.6541  0.7352  1.7374
   18SAPC  H18S 2352   6.509   1.435   8.522  0.6592  0.4301  0.7209
   18SAPC  C219 2353   6.473   1.421   8.745 -0.0284 -0.0959 -0.0199
   18SAPC  H19R 2354   6.369   1.385   8.730  0.6312 -2.3706  0.5360
   18SAPC  H19S 2355   6.479   1.488   8.834  0.0933 -1.7516  1.2643
   18SAPC  C220 2356   6.561   1.304   8.786 -0.3094 -0.4523  0.0347
   18SAPC  H20R 2357   6.666   1.339   8.787 -0.6609  0.6707 -0.9553
   18SAPC  H20S 2358   6.556   1.217   8.717 -1.8532  0.3778 -0.9538
   18SAPC  H20T 2359   6.551   1.260   8.888 -0.1450 -1.6762 -0.4560
   18SAPC   C33 2360   6.822   1.523   9.865  0.7787 -0.0115  0.1746
   18SAPC   H3X 2361   6.901   1.479   9.801 -0.9516 -1.3320 -1.1692
   18SAPC   H3Y 2362   6.863   1.605   9.928 -2.2786  0.9876  1.0223
   18SAPC   C34 2363   6.710   1.577   9.772  0.2712  0.2594 -0.4889
   18SAPC   H4X 2364   6.756   1.658   9.710  0.1464  0.9678  0.3261
   18SAPC   H4Y 2365   6.635   1.627   9.837 -2.1657 -2.7545 -0.7734
   18SAPC   C35 2366   6.638   1.472   9.690  0.5027 -0.6879  0.1692
   18SAPC   H5X 2367   6.535   1.506   9.665  1.0098 -0.9165 -2.6443
   18SAPC   H5Y 2368   6.626   1.374   9.741  1.3970 -0.6724  0.4144
   18SAPC   C36 2369   6.702   1.445   9.548 -0.4792 -0.3845  0.2371
   18SAPC   H6X 2370   6.760   1.351   9.548  1.6627  0.8751  0.8833
   18SAPC   H6Y 2371   6.769   1.529   9.521 -2.1307  0.3339 -2.0181
   18SAPC   C37 2372   6.589   1.428   9.437  0.4399 -0.1718  0.8123
   18SAPC   H7X 2373   6.522   1.516   9.432  0.7730  0.0515  0.2163
   18SAPC   H7Y 2374   6.530   1.336   9.453  3.1329 -2.4869 -1.4783
   18SAPC   C38 2375   6.649   1.410   9.294  0.6007 -0.7018  0.2481
   18SAPC   H8X 2376   6.568   1.385   9.222  0.1860 -1.2708  0.8931
   18SAPC   H8Y 2377   6.721   1.327   9.279  2.1087  0.4010  1.1668
   18SAPC   C39 2378   6.711   1.537   9.235  0.0709 -0.4546  0.3021
   18SAPC   H9X 2379   6.816   1.550   9.270  0.2100 -0.8756  0.0529
   18SAPC   H9Y 2380   6.654   1.616   9.286 -1.6882 -0.2881 -1.8023
   18SAPC  C310 2381   6.698   1.538   9.082  0.0295  0.1620 -0.2089
   18SAPC  H10X 2382   6.595   1.526   9.043 -0.8273  0.6927  1.8091
   18SAPC  H10Y 2383   6.769   1.460   9.047 -0.8192 -0.2338 -1.0814
   18SAPC  C311 2384   6.748   1.671   9.016 -0.9999  1.1313 -1.3377
   18SAPC  H11X 2385   6.856   1.679   9.043 -0.9705  0.8017 -1.3523
   18SAPC  H11Y 2386   6.692   1.753   9.065  1.2242  0.9719  1.7849
   18SAPC  C312 2387   6.743   1.674   8.858 -0.6319 -0.1039 -0.1419
   18SAPC  H12X 2388   6.632   1.682   8.848 -0.3827  0.8093 -3.1401
   18SAPC  H12Y 2389   6.785   1.583   8.811 -2.9353  0.4604 -3.6635
   18SAPC  C313 2390   6.812   1.803   8.811  0.2092  0.3606  0.2737
   18SAPC  H13X 2391   6.922   1.797   8.820  0.0901 -0.0677  1.8867
   18SAPC  H13Y 2392   6.787   1.898   8.864  2.0598  0.5305  0.9142
   18SAPC  C314 2393   6.780   1.852   8.671 -0.1407  0.4166  0.2885
   18SAPC  H14X 2394   6.839   1.945   8.653  0.7535  0.2298  1.9665
   18SAPC  H14Y 2395   6.673   1.881   8.663  0.5170  2.4802 -2.6950
   18SAPC  C315 2396   6.802   1.760   8.555  0.4281  0.1444 -0.4733
   18SAPC  H15X 2397   6.708   1.704   8.534 -0.0277  0.3320  0.9540
   18SAPC  H15Y 2398   6.873   1.675   8.571 -1.9728 -1.6312  1.6244
   18SAPC  C316 2399   6.841   1.839   8.426 -0.1741 -0.1968 -1.5043
   18SAPC  H16X 2400   6.949   1.864   8.434 -0.0791 -0.4140 -2.0413
   18SAPC  H16Y 2401   6.796   1.939   8.410  0.8810  0.5545 -0.0546
   18SAPC  C317 2402   6.816   1.755   8.293 -0.2991  0.7292  0.0826
   18SAPC  H17X 2403   6.826   1.822   8.205 -0.7193  1.3250  0.4794
   18SAPC  H17Y 2404   6.712   1.715   8.289  0.3753 -1.1088 -0.1481
   18SAPC  C318 2405   6.912   1.640   8.273 -0.2778  0.6100  0.1037
   18SAPC  H18X 2406   7.016   1.672   8.297  0.2107 -1.1537  0.4933
   18SAPC  H18Y 2407   6.907   1.593   8.172 -0.5494 -0.1351  0.4605
   18SAPC  H18Z 2408   6.906   1.554   8.343  0.7620  0.6269  0.2377
   19SAPC     N 2409   4.877   3.994  10.753 -0.3249 -0.1509  0.2182
   19SAPC   C12 2410   5.016   4.022  10.694 -0.1928  0.6951 -0.2776
   19SAPC  H12A 2411   5.023   3.965  10.603  1.8781 -0.2367  0.4046
   19SAPC  H12B 2412   5.097   3.979  10.751 -0.5372 -1.2229 -1.1510
   19SAPC   C13 2413   4.839   4.076  10.866 -0.4353 -0.3178 -0.4250
   19SAPC  H13A 2414   4.909   4.071  10.948 -0.7250  1.2841 -0.0508
   19SAPC  H13B 2415   4.828   4.180  10.840 -4.5466 -0.3698  0.4821
   19SAPC  H13C 2416   4.742   4.043  10.899  0.7146 -1.8835  1.6450
   19SAPC   C14 2417   4.778   4.001  10.642 -0.0824  0.1866 -0.4577
   19SAPC  H14A 2418   4.805   3.929  10.566 -0.5506 -0.7694  0.2647
   19SAPC  H14B 2419   4.676   3.987  10.672 -1.4162  3.8793 -2.6781
   19SAPC  H14C 2420   4.793   4.097  10.595 -0.8483  0.2526 -0.5746
   19SAPC   C15 2421   4.880   3.844  10.795  0.1921 -0.2192 -0.4618
   19SAPC  H15A 2422   4.888   3.774  10.714 -3.0057 -1.4913  0.1839
   19SAPC  H15B 2423   4.958   3.819  10.866 -0.2288  0.4636  0.2719
   19SAPC  H15C 2424   4.786   3.811  10.837  0.4760  1.3741  1.6421
   19SAPC   C11 2425   5.052   4.166  10.659  0.1764  0.1046  0.3056
   19SAPC  H11A 2426   5.158   4.177  10.628 -0.0353 -1.5406 -1.1352
   19SAPC  H11B 2427   5.045   4.211  10.761 -0.8682  0.5407  0.0634
   19SAPC     P 2428   4.988   4.239  10.405  0.2355  0.6167  0.2055
   19SAPC   O13 2429   4.877   4.163  10.339  0.0057 -0.1381 -0.0465
   19SAPC   O14 2430   5.007   4.388  10.381 -0.7255  0.4054  0.0775
   19SAPC   O12 2431   4.960   4.230  10.564 -0.0967  0.2818 -0.2927
   19SAPC   O11 2432   5.131   4.167  10.385  0.5995  0.8364  0.2943
   19SAPC    C1 2433   5.138   4.034  10.341 -0.1894  0.0976  1.0737
   19SAPC    HA 2434   5.215   3.977  10.397  1.3277 -2.3617 -3.0281
   19SAPC    HB 2435   5.048   3.972  10.363 -2.2809  1.1423 -3.3339
   19SAPC    C2 2436   5.197   4.023  10.195 -0.1659  0.6319 -0.6828
   19SAPC    HS 2437   5.234   3.920  10.174  0.5328  1.0701 -1.6561
   19SAPC   O21 2438   5.294   4.125  10.166  0.5659  1.0988 -0.2192
   19SAPC   C21 2439   5.413   4.093  10.217  0.4473 -0.4245 -0.0056
   19SAPC   O22 2440   5.439   3.992  10.279  0.0262 -0.1223  0.2979
   19SAPC   C22 2441   5.499   4.212  10.194 -0.4307 -0.3067 -0.0066
   19SAPC   H2R 2442   5.459   4.288  10.125  2.2928  1.5807  0.3614
   19SAPC   H2S 2443   5.518   4.258  10.293  0.2682 -0.1094 -0.2267
   19SAPC    C3 2444   5.074   4.046  10.105  0.0658  0.0724 -0.2978
   19SAPC    HX 2445   5.019   4.134  10.143 -0.3959 -0.3852  0.0942
   19SAPC    HY 2446   5.006   3.960  10.117 -1.3968  1.3445  0.8508
   19SAPC   O31 2447   5.114   4.065   9.971  0.3856  0.6391 -0.3449
   19SAPC   C31 2448   5.023   4.063   9.875  0.1443  0.3244  0.2263
   19SAPC   O32 2449   4.903   4.049   9.892 -0.5222  0.4710 -0.4668
   19SAPC   C32 2450   5.084   4.105   9.738 -0.7881  0.1722 -0.8319
   19SAPC   H2X 2451   5.150   4.018   9.722  0.8006  1.0115  0.8081
   19SAPC   H2Y 2452   5.147   4.193   9.761 -1.0933 -0.0042  0.8395
   19SAPC   C23 2453   5.638   4.170  10.123  0.4260 -0.1988  0.4189
   19SAPC   H3R 2454   5.618   4.134  10.020  1.0952  2.0440 -0.5553
   19SAPC   H3S 2455   5.687   4.085  10.175  3.0862  1.3298  0.5617
   19SAPC   C24 2456   5.735   4.292  10.112  0.3475  0.2889  0.1576
   19SAPC   H4R 2457   5.751   4.328  10.216  4.8801 -2.8880  0.8859
   19SAPC   H4S 2458   5.692   4.368  10.043  0.8118  0.7584  0.3721
   19SAPC   C25 2459   5.866   4.231  10.070  0.2874  0.0152  0.4416
   19SAPC   H5R 2460   5.938   4.227  10.152  0.9746  0.6713 -0.1121
   19SAPC   C26 2461   5.918   4.230   9.944  0.2318  0.4038  0.0791
   19SAPC   H6R 2462   6.018   4.196   9.916 -0.4377 -0.8704 -0.8945
   19SAPC   C27 2463   5.844   4.274   9.821 -0.4247  0.6837  0.7061
   19SAPC   H7R 2464   5.907   4.355   9.779 -1.1761 -0.3793 -2.7998
   19SAPC   H7S 2465   5.747   4.319   9.851  0.0699  0.6967  2.3837
   19SAPC   C28 2466   5.830   4.166   9.716 -0.6508 -0.0167 -0.5525
   19SAPC   H8R 2467   5.731   4.120   9.708 -0.0241 -1.3802 -0.8021
   19SAPC   C29 2468   5.911   4.135   9.610  0.5596  0.5272  0.8541
   19SAPC   H9R 2469   5.877   4.054   9.544  0.5401  0.4234  0.9898
   19SAPC  C210 2470   6.041   4.200   9.574 -0.2059  0.5777  0.5368
   19SAPC  H10R 2471   6.123   4.125   9.572  1.6599  2.4682 -2.5850
   19SAPC  H10S 2472   6.066   4.277   9.650 -1.3587  0.4706  1.0524
   19SAPC  C211 2473   6.042   4.252   9.432  0.2835 -0.1931  0.2361
   19SAPC  H11R 2474   6.010   4.357   9.421 -1.9786 -0.9720 -1.5107
   19SAPC  C212 2475   6.075   4.185   9.316 -0.4007 -0.2292 -0.1687
   19SAPC  H12R 2476   6.051   4.234   9.221  0.4259 -2.5380 -1.6566
   19SAPC  C213 2477   6.119   4.039   9.304  0.5314 -0.1123 -0.0841
   19SAPC  H13R 2478   6.065   3.992   9.218  1.3254  0.7654 -1.0821
   19SAPC  H13S 2479   6.087   3.979   9.391  0.7785 -0.2837 -0.1103
   19SAPC  C214 2480   6.268   4.024   9.293 -0.4617 -0.1160 -0.0118
   19SAPC  H14R 2481   6.318   4.065   9.382  1.1878  4.6596 -2.7568
   19SAPC  C215 2482   6.348   3.967   9.197  0.3916 -0.0220 -0.0000
   19SAPC  H15R 2483   6.456   3.974   9.216  0.7084  1.0921 -1.8466
   19SAPC  C216 2484   6.307   3.916   9.064 -0.0481 -0.0880  0.0440
   19SAPC  H16R 2485   6.199   3.889   9.065 -0.3919  1.1897  1.3700
   19SAPC  H16S 2486   6.358   3.818   9.052  3.1426  1.4798 -0.1993
   19SAPC  C217 2487   6.368   3.993   8.943  0.2193 -0.0746  0.3775
   19SAPC  H17R 2488   6.343   3.950   8.844 -1.1591 -0.2453  0.7767
   19SAPC  H17S 2489   6.478   3.995   8.959  0.0820 -2.0958  1.9655
   19SAPC  C218 2490   6.315   4.137   8.933  0.0637 -0.2575 -0.4779
   19SAPC  H18R 2491   6.375   4.190   8.856  1.9427 -3.3866 -1.3896
   19SAPC  H18S 2492   6.337   4.181   9.032  3.3970  0.2360 -1.2984
   19SAPC  C219 2493   6.165   4.146   8.899 -0.0891 -0.2534 -0.3619
   19SAPC  H19R 2494   6.100   4.095   8.974  2.2855 -1.0248  1.2581
   19SAPC  H19S 2495   6.147   4.097   8.801  2.7014  0.4271 -1.2962
   19SAPC  C220 2496   6.125   4.293   8.888  0.6034 -0.3339 -0.1286
   19SAPC  H20R 2497   6.118   4.347   8.985  1.7357  0.0689 -0.2632
   19SAPC  H20S 2498   6.029   4.300   8.833  0.5802  0.5966  0.0223
   19SAPC  H20T 2499   6.206   4.333   8.824  1.5351 -4.1188 -1.6186
   19SAPC   C33 2500   4.978   4.113   9.627 -0.1562 -0.2332 -0.0430
   19SAPC   H3X 2501   4.912   4.199   9.653 -0.1120 -0.4373  0.7732
   19SAPC   H3Y 2502   4.910   4.026   9.636  1.6734 -2.0152 -2.1798
   19SAPC   C34 2503   5.041   4.118   9.484  0.5521 -0.2656 -0.1640
   19SAPC   H4X 2504   5.117   4.037   9.477  0.8983  0.1389 -1.2812
   19SAPC   H4Y 2505   5.114   4.201   9.485  1.0697 -0.7060  0.9235
   19SAPC   C35 2506   4.949   4.091   9.364  0.4147  0.8008  1.0153
   19SAPC   H5X 2507   4.861   4.156   9.382  1.1152  1.9605  0.3569
   19SAPC   H5Y 2508   4.909   3.987   9.367  1.6486  0.2374 -0.6806
   19SAPC   C36 2509   5.017   4.119   9.230  0.6517 -0.0278  0.9978
   19SAPC   H6X 2510   5.118   4.077   9.211  1.1585  1.4376  0.3067
   19SAPC   H6Y 2511   5.028   4.229   9.240  1.8571 -0.0124 -0.1699
   19SAPC   C37 2512   4.927   4.086   9.111  0.5343 -0.3447 -0.1947
   19SAPC   H7X 2513   4.843   4.158   9.109 -1.3765 -2.3280  2.1929
   19SAPC   H7Y 2514   4.872   3.990   9.120 -2.2297  1.1549 -0.0596
   19SAPC   C38 2515   4.994   4.092   8.975 -0.3938 -0.4393  0.5250
   19SAPC   H8X 2516   5.076   4.018   8.965 -0.4993 -0.4842 -0.0419
   19SAPC   H8Y 2517   5.044   4.192   8.974 -0.0686 -0.3221 -4.8971
   19SAPC   C39 2518   4.896   4.092   8.857  0.3281  0.4822  0.1254
   19SAPC   H9X 2519   4.840   4.188   8.858  2.3892  1.7535 -0.2187
   19SAPC   H9Y 2520   4.825   4.009   8.878  1.9262 -0.5898  1.5530
   19SAPC  C310 2521   4.958   4.064   8.721  0.0547  0.3772  0.5102
   19SAPC  H10X 2522   4.976   3.955   8.714 -0.8872  0.3090 -1.9663
   19SAPC  H10Y 2523   5.058   4.112   8.713  0.7608 -1.3211 -1.9254
   19SAPC  C311 2524   4.857   4.102   8.613  0.0474  0.0443 -0.1727
   19SAPC  H11X 2525   4.816   4.203   8.635  2.6674  0.6551  2.6714
   19SAPC  H11Y 2526   4.775   4.028   8.602  1.5076 -1.4243 -1.8125
   19SAPC  C312 2527   4.915   4.113   8.474 -0.3173 -0.4231 -0.1178
   19SAPC  H12X 2528   4.830   4.102   8.404  1.4295 -0.4173 -2.3240
   19SAPC  H12Y 2529   4.982   4.025   8.462 -2.7508 -2.4994  0.6752
   19SAPC  C313 2530   4.987   4.249   8.449 -0.3799  0.0375  0.0107
   19SAPC  H13X 2531   5.051   4.277   8.535 -0.8366 -1.2146  0.7828
   19SAPC  H13Y 2532   4.911   4.328   8.426 -0.7270 -0.5960 -1.0694
   19SAPC  C314 2533   5.068   4.225   8.322  0.0336  0.0920  0.4132
   19SAPC  H14X 2534   4.985   4.197   8.253 -1.3143 -2.5115  2.8659
   19SAPC  H14Y 2535   5.130   4.135   8.340 -1.0148 -0.4428  1.4815
   19SAPC  C315 2536   5.152   4.343   8.273 -0.2611  0.2888 -0.2009
   19SAPC  H15X 2537   5.243   4.313   8.216  0.8374 -0.6921  1.9537
   19SAPC  H15Y 2538   5.190   4.384   8.369  0.5652  0.1766 -0.4691
   19SAPC  C316 2539   5.073   4.448   8.198 -0.4393  0.7535  0.0258
   19SAPC  H16X 2540   4.986   4.480   8.260  0.8843  0.9657  1.8748
   19SAPC  H16Y 2541   5.020   4.395   8.117 -0.8368 -0.0181  0.7758
   19SAPC  C317 2542   5.142   4.564   8.137  0.8659 -0.5648  0.4063
   19SAPC  H17X 2543   5.210   4.509   8.068 -2.2625 -2.7288 -1.2195
   19SAPC  H17Y 2544   5.198   4.622   8.213  0.9599  2.4974 -1.8406
   19SAPC  C318 2545   5.063   4.657   8.055 -0.2682 -0.0763  0.3686
   19SAPC  H18X 2546   5.013   4.727   8.126  1.2113  0.5115  0.8847
   19SAPC  H18Y 2547   4.994   4.608   7.984 -0.9968  0.8833  0.3904
   19SAPC  H18Z 2548   5.126   4.727   7.995 -0.7293  1.4639  1.6134
   20SAPC     N 2549   3.753   0.255  10.765 -0.6448  0.1743  0.2974
   20SAPC   C12 2550   3.749   0.411  10.772 -0.8994  0.6367  0.9496
   20SAPC  H12A 2551   3.804   0.450  10.856  1.9378  2.1989 -1.4460
   20SAPC  H12B 2552   3.647   0.446  10.779 -0.8937  1.8476 -2.8523
   20SAPC   C13 2553   3.685   0.201  10.643 -0.2478 -0.3773 -0.7240
   20SAPC  H13A 2554   3.720   0.254  10.556  0.3855 -0.3721 -0.4760
   20SAPC  H13B 2555   3.696   0.095  10.624  1.4891 -0.7933  1.9903
   20SAPC  H13C 2556   3.579   0.219  10.648 -0.1032  0.7174 -1.1999
   20SAPC   C14 2557   3.894   0.192  10.767  0.0036 -0.1530 -0.0807
   20SAPC  H14A 2558   3.895   0.084  10.759  1.3357 -0.0794 -1.4765
   20SAPC  H14B 2559   3.940   0.220  10.673  0.7221  2.7978  1.0403
   20SAPC  H14C 2560   3.963   0.235  10.838  0.6959 -0.6856 -0.4185
   20SAPC   C15 2561   3.674   0.214  10.882 -0.0777  0.2508  0.0406
   20SAPC  H15A 2562   3.661   0.108  10.900  0.1238  0.5056  1.9061
   20SAPC  H15B 2563   3.722   0.229  10.978 -0.2082 -1.3439  0.3978
   20SAPC  H15C 2564   3.575   0.255  10.888 -0.6176 -0.9692 -0.1081
   20SAPC   C11 2565   3.811   0.479  10.651 -0.0046 -0.2880  0.0186
   20SAPC  H11A 2566   3.751   0.458  10.560  0.5498  1.4528 -0.8006
   20SAPC  H11B 2567   3.917   0.453  10.629 -0.6240 -2.5424 -0.5973
   20SAPC     P 2568   3.906   0.705  10.751  0.0956  0.0282 -0.5134
   20SAPC   O13 2569   3.832   0.814  10.820 -0.5014  0.5366 -0.2641
   20SAPC   O14 2570   3.974   0.610  10.845  0.2389 -0.3247  0.8720
   20SAPC   O12 2571   3.800   0.621  10.665 -0.1458  0.3481 -0.2897
   20SAPC   O11 2572   4.008   0.762  10.649  0.2477  0.2964  0.1128
   20SAPC    C1 2573   3.983   0.885  10.580  0.0217  0.3486 -0.5430
   20SAPC    HA 2574   3.942   0.963  10.647 -0.1823  0.7480 -1.1208
   20SAPC    HB 2575   4.083   0.909  10.536  0.9109 -2.3005 -0.1371
   20SAPC    C2 2576   3.883   0.871  10.465  1.1526  0.1010  0.4363
   20SAPC    HS 2577   3.786   0.845  10.511  0.5251 -0.3204 -1.0418
   20SAPC   O21 2578   3.933   0.767  10.380  0.2115 -0.2440 -0.1313
   20SAPC   C21 2579   3.845   0.689  10.323 -0.2788 -0.0504  0.2719
   20SAPC   O22 2580   3.723   0.691  10.346  0.1009 -0.0441 -0.2315
   20SAPC   C22 2581   3.910   0.592  10.223  0.2441 -0.1653 -0.6505
   20SAPC   H2R 2582   4.001   0.552  10.272 -0.0294  0.7488  0.6766
   20SAPC   H2S 2583   3.830   0.517  10.202 -0.8186  0.9030 -0.5348
   20SAPC    C3 2584   3.852   1.001  10.391  0.4842  0.3763 -0.8706
   20SAPC    HX 2585   3.949   1.042  10.357  0.4033  3.5320  2.1973
   20SAPC    HY 2586   3.813   1.072  10.467 -1.4547  1.2577 -2.5533
   20SAPC   O31 2587   3.754   0.981  10.290  0.4453  0.3452 -0.3049
   20SAPC   C31 2588   3.736   1.085  10.208  0.6287 -0.4456  0.1455
   20SAPC   O32 2589   3.800   1.187  10.205 -0.2715 -0.3371 -0.6011
   20SAPC   C32 2590   3.612   1.062  10.120  0.4756  0.0020 -0.0254
   20SAPC   H2X 2591   3.537   1.057  10.202  0.9087 -2.4811  0.3074
   20SAPC   H2Y 2592   3.613   0.964  10.068 -1.3360 -0.3053  0.4416
   20SAPC   C23 2593   3.960   0.677  10.110  0.5558  0.1105  0.8086
   20SAPC   H3R 2594   4.061   0.636  10.088  1.3275  3.3055 -2.6300
   20SAPC   H3S 2595   3.977   0.786  10.124 -0.8506  0.4213  0.2216
   20SAPC   C24 2596   3.881   0.645   9.980  0.6420  0.2639  0.3773
   20SAPC   H4R 2597   3.844   0.540   9.974  0.2981  0.3765  0.5165
   20SAPC   H4S 2598   3.951   0.658   9.895 -0.1996  0.7651 -0.2597
   20SAPC   C25 2599   3.761   0.731   9.964 -0.2276 -0.5788 -0.0076
   20SAPC   H5R 2600   3.697   0.742  10.052 -4.1327 -5.4098 -1.8037
   20SAPC   C26 2601   3.712   0.781   9.845  0.5395 -0.0712  0.4507
   20SAPC   H6R 2602   3.625   0.848   9.851 -0.9370 -1.8626 -0.2449
   20SAPC   C27 2603   3.774   0.749   9.712  0.0139 -0.7765 -0.0631
   20SAPC   H7R 2604   3.689   0.735   9.642 -0.3904 -0.9137  0.4446
   20SAPC   H7S 2605   3.823   0.650   9.717  0.0341 -0.7837 -0.4100
   20SAPC   C28 2606   3.873   0.849   9.655 -0.5564 -0.2768  0.2725
   20SAPC   H8R 2607   3.914   0.919   9.729  1.0374 -0.8691 -0.0059
   20SAPC   C29 2608   3.920   0.848   9.525 -0.3283  0.3110 -0.3483
   20SAPC   H9R 2609   3.967   0.938   9.482 -1.5462  0.5231 -1.2858
   20SAPC  C210 2610   3.876   0.758   9.414 -0.8706  0.0308 -0.1809
   20SAPC  H10R 2611   3.861   0.656   9.456  0.5319 -0.6792 -1.3031
   20SAPC  H10S 2612   3.970   0.747   9.355 -0.1284 -0.8916  1.1185
   20SAPC  C211 2613   3.759   0.797   9.324 -0.1096  0.3026  0.2606
   20SAPC  H11R 2614   3.658   0.790   9.367 -0.5670  1.3040 -0.5966
   20SAPC  C212 2615   3.776   0.839   9.197  0.0890  0.8450 -0.0727
   20SAPC  H12R 2616   3.687   0.867   9.138 -0.4214 -1.2539 -0.3615
   20SAPC  C213 2617   3.908   0.862   9.125 -0.4388 -0.0933 -0.1900
   20SAPC  H13R 2618   3.971   0.771   9.123 -1.8174 -1.0640 -0.8312
   20SAPC  H13S 2619   3.976   0.925   9.186 -0.9073  2.1222 -1.7931
   20SAPC  C214 2620   3.891   0.913   8.982  0.1558 -0.1681 -0.8631
   20SAPC  H14R 2621   3.931   1.013   8.961  0.6960 -0.1076  0.3779
   20SAPC  C215 2622   3.841   0.840   8.884  0.2954 -0.1171 -0.7731
   20SAPC  H15R 2623   3.844   0.881   8.783  0.1773  0.2029 -0.6484
   20SAPC  C216 2624   3.789   0.698   8.898 -0.0310  0.1775  0.0615
   20SAPC  H16R 2625   3.775   0.672   9.006  3.4819  1.5871  1.0204
   20SAPC  H16S 2626   3.865   0.633   8.849 -1.3704  0.2661 -2.2663
   20SAPC  C217 2627   3.661   0.664   8.830 -0.0442  0.5452  0.3714
   20SAPC  H17R 2628   3.634   0.556   8.836  1.7152 -0.0664 -1.6192
   20SAPC  H17S 2629   3.670   0.691   8.723 -3.7554 -1.1533 -0.5102
   20SAPC  C218 2630   3.536   0.740   8.882 -0.8132  0.3928 -0.5721
   20SAPC  H18R 2631   3.462   0.757   8.801 -1.2095  0.0707 -0.2804
   20SAPC  H18S 2632   3.573   0.832   8.934 -2.2211  1.9972 -2.2545
   20SAPC  C219 2633   3.469   0.646   8.990 -0.1442  0.7510  0.2068
   20SAPC  H19R 2634   3.533   0.629   9.078 -0.5937  1.4255  0.6718
   20SAPC  H19S 2635   3.451   0.555   8.929  0.1440  1.7482 -1.4593
   20SAPC  C220 2636   3.336   0.703   9.032 -0.2642 -0.0739 -0.5693
   20SAPC  H20R 2637   3.279   0.720   8.937 -1.1312  0.5556  0.0480
   20SAPC  H20S 2638   3.342   0.803   9.079  0.3316 -1.3043  2.1761
   20SAPC  H20T 2639   3.275   0.646   9.106 -2.7404  1.9043 -0.9418
   20SAPC   C33 2640   3.592   1.175  10.016  0.4800 -0.3103  0.4614
   20SAPC   H3X 2641   3.597   1.279  10.056 -1.5972  0.8653 -2.0444
   20SAPC   H3Y 2642   3.488   1.173   9.979  0.8689  0.1890 -0.7334
   20SAPC   C34 2643   3.689   1.152   9.893 -0.2704 -0.3619 -0.2934
   20SAPC   H4X 2644   3.661   1.055   9.846  0.2199 -0.0139 -1.3410
   20SAPC   H4Y 2645   3.792   1.134   9.929 -0.7012 -1.2007  0.5462
   20SAPC   C35 2646   3.696   1.273   9.803  0.6809  0.2565  0.1072
   20SAPC   H5X 2647   3.731   1.349   9.876 -0.2597 -0.7591  1.6930
   20SAPC   H5Y 2648   3.600   1.315   9.764  0.6154  1.1554  1.1941
   20SAPC   C36 2649   3.804   1.268   9.689 -0.1262 -0.0251 -0.1607
   20SAPC   H6X 2650   3.783   1.193   9.609  0.5659 -0.9898  0.5255
   20SAPC   H6Y 2651   3.905   1.249   9.733 -0.0926 -1.4836 -0.7866
   20SAPC   C37 2652   3.802   1.403   9.619  0.4110 -0.5736 -0.3851
   20SAPC   H7X 2653   3.852   1.477   9.684 -1.6433  1.8055 -1.3606
   20SAPC   H7Y 2654   3.694   1.427   9.609  0.0811 -0.2203  2.9973
   20SAPC   C38 2655   3.876   1.406   9.481  0.4404 -0.7133 -1.0898
   20SAPC   H8X 2656   3.828   1.341   9.405 -0.6958  0.1039 -1.1040
   20SAPC   H8Y 2657   3.978   1.364   9.497 -0.6464 -2.5896  1.9186
   20SAPC   C39 2658   3.898   1.538   9.400 -0.2973  0.6447 -0.5176
   20SAPC   H9X 2659   3.931   1.605   9.483 -1.3948  1.6833 -0.8903
   20SAPC   H9Y 2660   3.810   1.573   9.343 -1.1611 -0.7950 -0.1263
   20SAPC  C310 2661   4.015   1.527   9.302  0.3812 -0.1879 -0.3056
   20SAPC  H10X 2662   4.099   1.473   9.350  1.0521  0.3442 -0.8531
   20SAPC  H10Y 2663   4.044   1.630   9.274 -1.0759  0.4812  0.5504
   20SAPC  C311 2664   3.985   1.453   9.172  0.1707 -0.6068  0.3232
   20SAPC  H11X 2665   3.909   1.508   9.112 -0.9616 -1.8524  0.5562
   20SAPC  H11Y 2666   3.967   1.345   9.188  0.9208 -0.8448 -0.4027
   20SAPC  C312 2667   4.105   1.461   9.082  0.3008 -0.1559  0.0038
   20SAPC  H12X 2668   4.185   1.400   9.129  0.7787  1.2486  1.0783
   20SAPC  H12Y 2669   4.139   1.564   9.060  1.2940 -0.4679  0.0106
   20SAPC  C313 2670   4.085   1.408   8.943 -0.5695  0.5282 -0.2989
   20SAPC  H13X 2671   4.168   1.446   8.880  0.5081  3.1709  2.4467
   20SAPC  H13Y 2672   3.989   1.448   8.904 -1.9383 -1.2399  1.0570
   20SAPC  C314 2673   4.075   1.251   8.930  0.2844 -0.6707  0.1527
   20SAPC  H14X 2674   3.973   1.222   8.962 -0.9198  0.4868 -2.3577
   20SAPC  H14Y 2675   4.156   1.207   8.992  1.0448  1.3937  0.7094
   20SAPC  C315 2676   4.078   1.216   8.783  0.4021 -0.1421 -0.7549
   20SAPC  H15X 2677   4.009   1.286   8.732  1.8260  2.0139  0.1516
   20SAPC  H15Y 2678   4.047   1.110   8.767  1.5164 -0.7785  1.0139
   20SAPC  C316 2679   4.216   1.215   8.713  1.2119  0.3074 -0.7144
   20SAPC  H16X 2680   4.296   1.165   8.772  1.0226 -0.2181 -0.9036
   20SAPC  H16Y 2681   4.262   1.316   8.704 -0.1405  0.8303 -2.3736
   20SAPC  C317 2682   4.213   1.153   8.577  0.3814  0.9368  0.1267
   20SAPC  H17X 2683   4.140   1.204   8.510 -1.9730 -2.0582  0.2233
   20SAPC  H17Y 2684   4.165   1.053   8.587  0.3955  0.8349 -0.7393
   20SAPC  C318 2685   4.347   1.127   8.510  0.3799 -0.6260  0.6133
   20SAPC  H18X 2686   4.343   1.064   8.419  0.8005 -0.0680  0.1965
   20SAPC  H18Y 2687   4.409   1.074   8.585  3.0898  0.1446 -0.9354
   20SAPC  H18Z 2688   4.375   1.232   8.486 -1.4774  0.2330  1.9924
   21SAPC     N 2689   5.082   0.099  10.946 -0.0012  0.5455 -0.1649
   21SAPC   C12 2690   4.965   0.154  10.862 -0.2197  0.4917 -0.0470
   21SAPC  H12A 2691   4.962   0.096  10.771  0.0900 -0.4696  0.5445
   21SAPC  H12B 2692   4.979   0.261  10.859  0.8947  0.3817  0.8882
   21SAPC   C13 2693   5.096   0.169  11.070 -0.3252  0.1230  0.6129
   21SAPC  H13A 2694   5.109   0.276  11.061  1.5034  0.0065  1.3303
   21SAPC  H13B 2695   5.005   0.158  11.128  0.5804  0.2180  2.1282
   21SAPC  H13C 2696   5.176   0.132  11.133 -0.2935 -1.7918 -0.4762
   21SAPC   C14 2697   5.079  -0.050  10.969 -0.0345  0.1379 -0.3982
   21SAPC  H14A 2698   4.988  -0.083  11.017  1.2051 -3.2235 -0.1481
   21SAPC  H14B 2699   5.079  -0.099  10.872  0.4229  1.5130 -1.1272
   21SAPC  H14C 2700   5.159  -0.076  11.036 -0.3792 -1.3134 -0.5285
   21SAPC   C15 2701   5.199   0.121  10.869  0.4203  0.4184  0.0927
   21SAPC  H15A 2702   5.202   0.227  10.847  0.8559  0.2051 -0.9643
   21SAPC  H15B 2703   5.290   0.099  10.924  0.7258  1.2572 -0.0621
   21SAPC  H15C 2704   5.208   0.064  10.777 -1.3610 -1.1957  0.8631
   21SAPC   C11 2705   4.825   0.126  10.925  0.0246 -0.0697 -0.3712
   21SAPC  H11A 2706   4.746   0.181  10.869 -0.0142 -0.9747 -1.2305
   21SAPC  H11B 2707   4.831   0.162  11.029  2.7534 -0.5204 -0.2922
   21SAPC     P 2708   4.703  -0.088  10.830 -0.5055 -0.0229  0.1329
   21SAPC   O13 2709   4.755  -0.221  10.797 -0.2469  0.6253  0.0716
   21SAPC   O14 2710   4.566  -0.097  10.885 -0.1531 -0.0431 -0.5724
   21SAPC   O12 2711   4.809  -0.017  10.936  0.0541  0.6833  0.5575
   21SAPC   O11 2712   4.697   0.014  10.704  0.5354  0.7268  0.4321
   21SAPC    C1 2713   4.786   0.005  10.596 -0.1500 -0.0058 -0.2254
   21SAPC    HA 2714   4.814   0.109  10.569  0.2872  0.4960  1.9410
   21SAPC    HB 2715   4.883  -0.036  10.631  0.4269  1.9028  0.5523
   21SAPC    C2 2716   4.718  -0.035  10.466 -0.1330 -0.3943  0.0955
   21SAPC    HS 2717   4.780   0.006  10.383 -1.4167  2.3329  0.3481
   21SAPC   O21 2718   4.585   0.013  10.465  0.9555  0.1470  0.6450
   21SAPC   C21 2719   4.552   0.080  10.359 -0.0126 -0.2016 -0.3015
   21SAPC   O22 2720   4.607   0.089  10.249 -1.0899  0.0546 -0.0124
   21SAPC   C22 2721   4.426   0.151  10.393 -0.1689  0.0825 -0.3885
   21SAPC   H2R 2722   4.341   0.085  10.363 -0.1336 -1.3569  2.3765
   21SAPC   H2S 2723   4.422   0.160  10.503  0.1133  0.4949 -0.4123
   21SAPC    C3 2724   4.713  -0.193  10.471 -1.0879 -0.3758  0.4967
   21SAPC    HX 2725   4.649  -0.218  10.559  0.3752 -0.2044  1.6401
   21SAPC    HY 2726   4.808  -0.245  10.491 -1.0856 -0.0357  1.4266
   21SAPC   O31 2727   4.651  -0.253  10.355  0.1949 -0.0375  1.2773
   21SAPC   C31 2728   4.739  -0.261  10.249  0.1699 -1.0044  0.3287
   21SAPC   O32 2729   4.857  -0.240  10.265 -0.7932 -0.5675 -0.1251
   21SAPC   C32 2730   4.678  -0.295  10.117  0.0768 -0.3157 -0.5453
   21SAPC   H2X 2731   4.639  -0.199  10.075  0.6776  0.6757  1.0761
   21SAPC   H2Y 2732   4.595  -0.366  10.136  0.4169 -0.6292 -0.2180
   21SAPC   C23 2733   4.403   0.290  10.333  0.2860  0.2054 -0.5986
   21SAPC   H3R 2734   4.493   0.355  10.341  1.0953 -0.8855 -0.5402
   21SAPC   H3S 2735   4.331   0.341  10.401 -0.5789 -2.2319  0.4309
   21SAPC   C24 2736   4.355   0.292  10.188  0.2338 -0.1435 -0.5804
   21SAPC   H4R 2737   4.276   0.218  10.166  1.6478 -1.5701 -1.0951
   21SAPC   H4S 2738   4.433   0.247  10.123  2.0238 -0.3644  1.6000
   21SAPC   C25 2739   4.303   0.427  10.149 -0.1279  0.3598  0.6411
   21SAPC   H5R 2740   4.268   0.487  10.235  0.1412 -0.7930  1.5859
   21SAPC   C26 2741   4.305   0.481  10.025  0.3712  0.2528  0.3426
   21SAPC   H6R 2742   4.270   0.584  10.010 -0.1684 -0.0360 -0.4356
   21SAPC   C27 2743   4.341   0.405   9.897  0.5045  0.1518 -0.1299
   21SAPC   H7R 2744   4.265   0.328   9.870  0.4720  1.0333 -2.8076
   21SAPC   H7S 2745   4.428   0.338   9.912 -1.4508 -2.1844  1.6391
   21SAPC   C28 2746   4.358   0.497   9.778  0.4558  0.3991 -0.3673
   21SAPC   H8R 2747   4.287   0.581   9.779  1.6453  1.5409  2.8655
   21SAPC   C29 2748   4.445   0.479   9.673  0.0211  0.3201 -0.3513
   21SAPC   H9R 2749   4.434   0.552   9.591  2.3286 -1.0855 -2.0001
   21SAPC  C210 2750   4.546   0.372   9.650  0.1480 -0.4026  0.4548
   21SAPC  H10R 2751   4.497   0.298   9.583 -1.5396 -1.1847  2.4191
   21SAPC  H10S 2752   4.566   0.319   9.745 -0.8419  0.3477  1.1008
   21SAPC  C211 2753   4.673   0.428   9.591  0.4643  0.2654 -0.2965
   21SAPC  H11R 2754   4.720   0.485   9.673  0.9976  0.8376 -0.9911
   21SAPC  C212 2755   4.730   0.401   9.471 -0.1996  0.4992 -0.2381
   21SAPC  H12R 2756   4.821   0.459   9.444  0.8311 -1.0111 -0.0961
   21SAPC  C213 2757   4.681   0.309   9.364  0.4435 -0.1450 -0.4776
   21SAPC  H13R 2758   4.597   0.244   9.399 -0.1056  0.6250 -0.3248
   21SAPC  H13S 2759   4.757   0.237   9.326  0.0529 -0.2283 -1.1115
   21SAPC  C214 2760   4.622   0.394   9.253  0.4166 -0.2854  0.1663
   21SAPC  H14R 2761   4.530   0.447   9.280 -0.0186 -0.9665  0.0439
   21SAPC  C215 2762   4.669   0.394   9.125  0.5932  0.7124 -0.0536
   21SAPC  H15R 2763   4.618   0.457   9.052  0.7071  1.4834  0.5171
   21SAPC  C216 2764   4.783   0.299   9.076  0.7115  0.1144 -0.2547
   21SAPC  H16R 2765   4.764   0.199   9.119 -2.4700  1.3751  1.6994
   21SAPC  H16S 2766   4.888   0.324   9.104  0.5508  0.2860  0.2127
   21SAPC  C217 2767   4.766   0.271   8.921  0.3565 -0.4441  0.6156
   21SAPC  H17R 2768   4.810   0.358   8.867 -1.2023  0.8295  1.2973
   21SAPC  H17S 2769   4.660   0.249   8.896  0.4001 -0.5122  0.4932
   21SAPC  C218 2770   4.851   0.154   8.861 -0.0623  0.0360 -0.6409
   21SAPC  H18R 2771   4.802   0.056   8.879  0.4325 -0.8488 -3.5459
   21SAPC  H18S 2772   4.958   0.156   8.891 -0.5774 -2.2847  1.7813
   21SAPC  C219 2773   4.843   0.140   8.706  0.5142  0.3301 -0.6502
   21SAPC  H19R 2774   4.872   0.232   8.650 -0.3818  0.0149 -1.6670
   21SAPC  H19S 2775   4.736   0.128   8.677 -0.2352  2.6886  0.9182
   21SAPC  C220 2776   4.925   0.018   8.648  1.1787  0.0344  0.3035
   21SAPC  H20R 2777   4.888  -0.081   8.680  1.2036 -0.8411 -2.1398
   21SAPC  H20S 2778   5.030   0.035   8.680  0.9778 -0.3596  1.1906
   21SAPC  H20T 2779   4.916   0.034   8.538 -0.7144  0.0235  0.4275
   21SAPC   C33 2780   4.767  -0.365  10.015  0.2869 -0.0461  0.4154
   21SAPC   H3X 2781   4.786  -0.472  10.038 -1.2717 -0.4810 -0.2145
   21SAPC   H3Y 2782   4.864  -0.312  10.003  0.8614 -0.8418  1.4084
   21SAPC   C34 2783   4.703  -0.354   9.878  0.3291 -0.5982  0.4545
   21SAPC   H4X 2784   4.664  -0.250   9.867 -2.5271 -1.8114 -2.7227
   21SAPC   H4Y 2785   4.612  -0.415   9.857 -0.4541  1.5542 -3.3371
   21SAPC   C35 2786   4.810  -0.379   9.773 -0.1053  0.0510 -0.6257
   21SAPC   H5X 2787   4.842  -0.484   9.784 -3.5653 -1.2165 -1.4442
   21SAPC   H5Y 2788   4.888  -0.305   9.799 -1.6162  1.5733 -0.1957
   21SAPC   C36 2789   4.762  -0.355   9.627 -0.2126 -0.0717  0.5284
   21SAPC   H6X 2790   4.755  -0.246   9.610  1.0322 -0.1152 -0.3942
   21SAPC   H6Y 2791   4.662  -0.402   9.623  0.0711 -0.5769 -1.9582
   21SAPC   C37 2792   4.861  -0.420   9.527  0.2276  0.7201 -0.2126
   21SAPC   H7X 2793   4.892  -0.521   9.561  0.2073  1.1664  1.1784
   21SAPC   H7Y 2794   4.961  -0.371   9.527 -0.2221  1.6588 -0.6699
   21SAPC   C38 2795   4.806  -0.440   9.383  0.5606 -0.3360  0.1827
   21SAPC   H8X 2796   4.827  -0.347   9.326  2.2007 -0.3607  0.6882
   21SAPC   H8Y 2797   4.696  -0.455   9.395  0.6326 -1.9021 -0.8455
   21SAPC   C39 2798   4.872  -0.553   9.305  0.6263 -0.5055 -0.1928
   21SAPC   H9X 2799   4.853  -0.653   9.349  0.3517  0.1054  1.1422
   21SAPC   H9Y 2800   4.982  -0.539   9.314  0.4268  0.8969  0.3074
   21SAPC  C310 2801   4.833  -0.554   9.157 -0.2532 -0.7298 -0.3883
   21SAPC  H10X 2802   4.862  -0.451   9.128 -1.3539 -0.0679  0.7570
   21SAPC  H10Y 2803   4.723  -0.550   9.143 -0.4464  1.1238  1.2516
   21SAPC  C311 2804   4.908  -0.659   9.077 -0.3716  0.3976 -0.0100
   21SAPC  H11X 2805   4.840  -0.747   9.078 -1.0711  0.7836  4.5068
   21SAPC  H11Y 2806   5.000  -0.685   9.132  0.4171 -0.6206 -1.7135
   21SAPC  C312 2807   4.950  -0.629   8.931  0.6557 -0.0962 -0.1374
   21SAPC  H12X 2808   5.009  -0.713   8.888 -0.1508 -2.5215  3.0249
   21SAPC  H12Y 2809   5.019  -0.544   8.944  0.2996  0.0137  1.2118
   21SAPC  C313 2810   4.829  -0.605   8.837 -0.7548 -0.0958  0.0748
   21SAPC  H13X 2811   4.759  -0.542   8.896  0.8647  1.7497  0.1284
   21SAPC  H13Y 2812   4.779  -0.700   8.808 -0.1944 -0.6165  0.7617
   21SAPC  C314 2813   4.874  -0.526   8.719 -0.0782  0.1705  0.3969
   21SAPC  H14X 2814   4.979  -0.553   8.694 -0.4363 -0.6269 -0.2948
   21SAPC  H14Y 2815   4.881  -0.418   8.747 -1.4511  0.2389  0.5441
   21SAPC  C315 2816   4.779  -0.523   8.597 -0.5512  0.5593  0.5434
   21SAPC  H15X 2817   4.682  -0.490   8.641 -0.8512 -2.2287  2.2137
   21SAPC  H15Y 2818   4.766  -0.630   8.567  0.7799  1.0412 -2.0451
   21SAPC  C316 2819   4.823  -0.435   8.484  0.1892 -0.3810  0.0945
   21SAPC  H16X 2820   4.929  -0.461   8.462  0.8828  0.9120  1.7407
   21SAPC  H16Y 2821   4.810  -0.329   8.514  0.3223 -0.1541 -0.6378
   21SAPC  C317 2822   4.742  -0.464   8.353  0.1645 -0.4840 -0.1536
   21SAPC  H17X 2823   4.635  -0.446   8.374 -0.2158 -1.8174 -0.8647
   21SAPC  H17Y 2824   4.761  -0.572   8.337  1.2839 -0.1127 -1.5589
   21SAPC  C318 2825   4.784  -0.380   8.233  0.0279 -0.4979  0.1100
   21SAPC  H18X 2826   4.737  -0.280   8.237  1.2778  0.0903  0.5227
   21SAPC  H18Y 2827   4.743  -0.414   8.136 -0.2349  0.3151 -0.0653
   21SAPC  H18Z 2828   4.894  -0.365   8.227 -0.0208 -0.6368 -1.6317
   22SAPC     N 2829   4.668   1.511  11.144 -0.6807  0.3003  0.4663
   22SAPC   C12 2830   4.788   1.438  11.084 -0.4112 -0.5098 -0.1832
   22SAPC  H12A 2831   4.755   1.368  11.009  1.6189 -1.6476 -0.0677
   22SAPC  H12B 2832   4.841   1.381  11.159  0.3178 -1.8441 -1.6746
   22SAPC   C13 2833   4.607   1.589  11.035  0.3070 -0.1735 -0.4027
   22SAPC  H13A 2834   4.564   1.525  10.959  1.9737 -1.7088 -0.0992
   22SAPC  H13B 2835   4.535   1.662  11.071  0.0580 -1.2726  1.4994
   22SAPC  H13C 2836   4.686   1.642  10.985 -0.5508  0.0698 -1.5424
   22SAPC   C14 2837   4.568   1.417  11.211 -0.2416  0.1506 -0.2839
   22SAPC  H14A 2838   4.611   1.364  11.294  3.7177  2.7727 -0.3629
   22SAPC  H14B 2839   4.474   1.468  11.226  0.3638  1.6770 -1.3744
   22SAPC  H14C 2840   4.550   1.330  11.149  0.5527  0.0115 -0.3318
   22SAPC   C15 2841   4.720   1.609  11.242 -0.7391  0.1237  0.8652
   22SAPC  H15A 2842   4.655   1.690  11.271 -2.6259 -1.7955  2.2573
   22SAPC  H15B 2843   4.720   1.568  11.342 -2.0969  2.5771  1.9517
   22SAPC  H15C 2844   4.824   1.634  11.226 -0.1518 -0.7926  2.9448
   22SAPC   C11 2845   4.893   1.512  10.996 -0.3319 -0.0999  0.8363
   22SAPC  H11A 2846   4.979   1.443  10.979  1.0154  1.4381  1.0893
   22SAPC  H11B 2847   4.943   1.598  11.047 -0.0407 -0.1113  0.5756
   22SAPC     P 2848   4.877   1.674  10.771  0.1654  0.1143  0.3355
   22SAPC   O13 2849   4.778   1.782  10.789  0.1188 -0.4488  0.5576
   22SAPC   O14 2850   5.018   1.716  10.796 -0.8703 -0.3718 -0.0409
   22SAPC   O12 2851   4.844   1.556  10.867  0.4653 -0.5774 -1.4458
   22SAPC   O11 2852   4.876   1.607  10.629  0.2674 -0.4563 -0.5057
   22SAPC    C1 2853   4.766   1.537  10.569  0.3535  0.1350 -0.1102
   22SAPC    HA 2854   4.786   1.428  10.577  1.5056  0.4695  2.4743
   22SAPC    HB 2855   4.669   1.556  10.619  0.1560  2.0932 -1.1653
   22SAPC    C2 2856   4.747   1.582  10.420  0.2467 -0.8792 -0.9813
   22SAPC    HS 2857   4.643   1.549  10.395  0.2571 -1.1359 -0.6821
   22SAPC   O21 2858   4.852   1.519  10.339 -0.0313 -0.5720 -0.1499
   22SAPC   C21 2859   4.831   1.525  10.204 -0.2099  0.5470 -0.8824
   22SAPC   O22 2860   4.724   1.544  10.152  0.4675 -0.5521  0.1725
   22SAPC   C22 2861   4.960   1.517  10.131 -0.0703 -0.5419 -0.4354
   22SAPC   H2R 2862   5.046   1.553  10.192 -0.8965 -0.0969  0.4904
   22SAPC   H2S 2863   4.970   1.407  10.117 -1.7986 -1.0503  1.7339
   22SAPC    C3 2864   4.750   1.743  10.422  0.6435 -0.2107  0.5806
   22SAPC    HX 2865   4.851   1.780  10.452  1.7433 -2.6633  0.2366
   22SAPC    HY 2866   4.667   1.773  10.489  0.1645 -0.4910  0.1187
   22SAPC   O31 2867   4.721   1.808  10.293  0.2957  0.3822  0.3764
   22SAPC   C31 2868   4.588   1.820  10.264 -0.6552 -0.4031  0.4893
   22SAPC   O32 2869   4.498   1.781  10.337  0.0726  0.6811  0.0493
   22SAPC   C32 2870   4.575   1.881  10.122 -0.1617 -0.0024 -0.4781
   22SAPC   H2X 2871   4.652   1.837  10.056  0.7808  0.9856 -0.0837
   22SAPC   H2Y 2872   4.604   1.988  10.129  1.2088 -0.4276  0.8440
   22SAPC   C23 2873   4.949   1.594   9.996 -0.7903  0.3828  0.5820
   22SAPC   H3R 2874   4.938   1.705   9.999  2.0444  0.7837 -0.7207
   22SAPC   H3S 2875   4.865   1.562   9.931  0.3871  1.9597 -1.8405
   22SAPC   C24 2876   5.068   1.566   9.898  0.2138 -0.4797 -0.0535
   22SAPC   H4R 2877   5.057   1.615   9.799  0.1269 -1.2374 -0.4274
   22SAPC   H4S 2878   5.069   1.458   9.874  0.4159 -0.5870  0.4147
   22SAPC   C25 2879   5.205   1.596   9.952 -0.4059  0.1089  0.1689
   22SAPC   H5R 2880   5.242   1.532  10.034  3.3663 -0.4225 -1.7443
   22SAPC   C26 2881   5.305   1.678   9.900  0.2251  0.2087 -0.5312
   22SAPC   H6R 2882   5.398   1.669   9.957  0.3877  1.6045 -0.5498
   22SAPC   C27 2883   5.314   1.764   9.778 -0.2245 -0.8604 -0.3290
   22SAPC   H7R 2884   5.416   1.802   9.756 -0.6700 -0.4123 -1.7483
   22SAPC   H7S 2885   5.260   1.858   9.802  0.3267 -0.6003 -0.0968
   22SAPC   C28 2886   5.259   1.708   9.648 -0.0515 -0.7944  0.1129
   22SAPC   H8R 2887   5.172   1.762   9.607  0.9423  0.4500 -0.4035
   22SAPC   C29 2888   5.311   1.620   9.564 -0.0199  0.4758  0.4234
   22SAPC   H9R 2889   5.254   1.593   9.474  1.5842  0.1869 -0.5385
   22SAPC  C210 2890   5.438   1.536   9.590 -0.6202  0.0135 -0.2170
   22SAPC  H10R 2891   5.459   1.523   9.699  0.3891  0.0579 -0.3948
   22SAPC  H10S 2892   5.521   1.603   9.558  1.2410 -2.0756  0.0079
   22SAPC  C211 2893   5.455   1.398   9.525  1.0377  0.1219 -0.0094
   22SAPC  H11R 2894   5.442   1.311   9.591 -0.6577  0.3925  0.0452
   22SAPC  C212 2895   5.483   1.370   9.398 -0.4236 -0.0696  0.1299
   22SAPC  H12R 2896   5.512   1.267   9.375 -0.8145 -0.1414 -0.0582
   22SAPC  C213 2897   5.505   1.477   9.294  0.5834 -0.4155  0.8123
   22SAPC  H13R 2898   5.607   1.487   9.251 -0.7906  1.9076 -2.3601
   22SAPC  H13S 2899   5.483   1.581   9.326  0.8358 -0.0928 -0.0228
   22SAPC  C214 2900   5.415   1.442   9.178  0.7698 -0.1625 -0.1964
   22SAPC  H14R 2901   5.308   1.438   9.205  0.6325  0.9533 -0.5306
   22SAPC  C215 2902   5.453   1.433   9.050  0.2218 -0.0410 -0.5324
   22SAPC  H15R 2903   5.376   1.421   8.973 -0.0622  0.4229 -0.3223
   22SAPC  C216 2904   5.593   1.449   8.995  0.7562  0.2025 -0.7805
   22SAPC  H16R 2905   5.655   1.372   9.046  1.1092  0.0507 -1.4364
   22SAPC  H16S 2906   5.637   1.550   9.011  0.7559  0.1555 -0.4713
   22SAPC  C217 2907   5.608   1.421   8.844  0.3487  0.0452  0.1630
   22SAPC  H17R 2908   5.546   1.491   8.785 -0.5315 -0.6505  0.2408
   22SAPC  H17S 2909   5.562   1.322   8.823 -0.4344  0.3854  0.2292
   22SAPC  C218 2910   5.752   1.431   8.789  1.0596  0.3144  0.3535
   22SAPC  H18R 2911   5.812   1.352   8.841  2.5949  0.3556 -1.2570
   22SAPC  H18S 2912   5.793   1.533   8.808  1.1443  0.4245 -0.4144
   22SAPC  C219 2913   5.742   1.409   8.640  0.3608  1.0242 -0.4460
   22SAPC  H19R 2914   5.685   1.493   8.596  0.5905  1.4714  0.0953
   22SAPC  H19S 2915   5.691   1.313   8.618 -0.0226  1.1208  0.0007
   22SAPC  C220 2916   5.885   1.400   8.585  0.6393  0.5999 -0.2765
   22SAPC  H20R 2917   5.875   1.379   8.476  1.3430  1.9387 -0.6089
   22SAPC  H20S 2918   5.939   1.312   8.627  0.0171 -0.3870 -1.4737
   22SAPC  H20T 2919   5.928   1.500   8.606 -0.8752  1.9970 -3.1564
   22SAPC   C33 2920   4.433   1.880  10.066  0.0125 -0.1401  0.5535
   22SAPC   H3X 2921   4.351   1.896  10.139 -0.4556 -1.7189  0.4293
   22SAPC   H3Y 2922   4.407   1.775  10.040 -0.7563  0.0138  0.6809
   22SAPC   C34 2923   4.417   1.959   9.931 -0.2224 -0.6915 -0.2348
   22SAPC   H4X 2924   4.505   1.931   9.869 -2.3231 -0.5524 -3.5157
   22SAPC   H4Y 2925   4.423   2.066   9.962 -1.4739 -1.2298  2.1804
   22SAPC   C35 2926   4.283   1.920   9.861  0.0600 -0.1666 -0.0018
   22SAPC   H5X 2927   4.201   1.938   9.934  1.3058 -0.0855  1.4403
   22SAPC   H5Y 2928   4.304   1.811   9.852 -0.0184 -0.2337  0.5385
   22SAPC   C36 2929   4.256   1.986   9.725  0.0707  0.6111  0.7094
   22SAPC   H6X 2930   4.346   1.984   9.660 -0.5327  0.3620 -0.1363
   22SAPC   H6Y 2931   4.232   2.090   9.756  2.4900  1.3523  0.2603
   22SAPC   C37 2932   4.139   1.921   9.652  0.6363  0.2924  0.8085
   22SAPC   H7X 2933   4.085   2.000   9.595 -2.9224 -1.9003  0.8345
   22SAPC   H7Y 2934   4.064   1.888   9.727 -0.1199  1.4528  0.5814
   22SAPC   C38 2935   4.172   1.804   9.552 -0.0695  0.2065  0.4176
   22SAPC   H8X 2936   4.072   1.781   9.509  0.2402  0.1893 -0.2987
   22SAPC   H8Y 2937   4.194   1.713   9.611 -0.3768 -0.4669 -0.4901
   22SAPC   C39 2938   4.270   1.839   9.440 -0.5956  0.2598 -0.3571
   22SAPC   H9X 2939   4.276   1.753   9.370 -0.2559  0.1155 -0.1534
   22SAPC   H9Y 2940   4.376   1.841   9.473 -0.1899  1.5637 -1.6298
   22SAPC  C310 2941   4.224   1.963   9.365 -0.1441 -0.2174 -0.3123
   22SAPC  H10X 2942   4.212   2.052   9.430  0.4835  0.8580 -1.6066
   22SAPC  H10Y 2943   4.123   1.950   9.320  0.0496 -0.8343 -0.5810
   22SAPC  C311 2944   4.321   2.000   9.257 -0.0046  0.3628 -0.0403
   22SAPC  H11X 2945   4.284   1.927   9.181 -0.2567  0.9863 -0.5248
   22SAPC  H11Y 2946   4.428   1.996   9.285  0.4947  3.1867 -1.1835
   22SAPC  C312 2947   4.288   2.131   9.179  0.1781  0.3164  0.4266
   22SAPC  H12X 2948   4.288   2.217   9.248  0.4857 -1.1849  2.4011
   22SAPC  H12Y 2949   4.190   2.127   9.127 -0.0483  1.7527  0.7006
   22SAPC  C313 2950   4.406   2.153   9.076  0.3276 -0.4053 -0.5366
   22SAPC  H13X 2951   4.399   2.066   9.007  0.7000 -2.5806  2.0156
   22SAPC  H13Y 2952   4.502   2.151   9.132  0.0881 -0.1302 -0.1130
   22SAPC  C314 2953   4.395   2.288   9.007 -0.8667 -0.1604  0.1382
   22SAPC  H14X 2954   4.415   2.375   9.074 -0.0126 -0.3641  0.1549
   22SAPC  H14Y 2955   4.291   2.300   8.968 -0.7381 -0.0359 -0.1706
   22SAPC  C315 2956   4.492   2.308   8.881  1.0034  0.4574 -0.9548
   22SAPC  H15X 2957   4.594   2.310   8.922  0.5168  0.0269  0.3121
   22SAPC  H15Y 2958   4.484   2.415   8.853  1.0040  0.2159 -1.9295
   22SAPC  C316 2959   4.465   2.212   8.769 -0.7351  0.2024 -0.4462
   22SAPC  H16X 2960   4.357   2.208   8.743 -0.6990 -1.9030 -0.4300
   22SAPC  H16Y 2961   4.487   2.106   8.794  0.0745  0.4944  0.1285
   22SAPC  C317 2962   4.555   2.236   8.649 -0.0707 -0.8944  0.3255
   22SAPC  H17X 2963   4.554   2.346   8.636 -0.9878 -0.6422  2.1615
   22SAPC  H17Y 2964   4.517   2.187   8.556  3.2707  0.6640 -2.0698
   22SAPC  C318 2965   4.699   2.202   8.678  0.0937  0.0653  0.3403
   22SAPC  H18X 2966   4.750   2.207   8.580 -0.8342 -0.8512 -0.2057
   22SAPC  H18Y 2967   4.722   2.096   8.701 -0.2889 -0.3138 -0.9336
   22SAPC  H18Z 2968   4.752   2.264   8.753  3.1667 -0.0577 -1.5531
   23SAPC     N 2969   5.001   4.552  10.775  0.1196  1.2120  0.5973
   23SAPC   C12 2970   5.080   4.619  10.665  0.0288 -0.0895 -0.0276
   23SAPC  H12A 2971   5.009   4.677  10.607 -0.8051 -1.0883 -0.0250
   23SAPC  H12B 2972   5.125   4.539  10.608 -2.1116 -1.0472 -0.4800
   23SAPC   C13 2973   4.915   4.650  10.855 -1.0976 -0.5648 -0.1011
   23SAPC  H13A 2974   4.877   4.610  10.948  0.3270  0.6748  1.0838
   23SAPC  H13B 2975   4.979   4.728  10.894  0.2091 -1.5205 -0.2702
   23SAPC  H13C 2976   4.833   4.690  10.798 -1.4768 -1.2994 -0.0843
   23SAPC   C14 2977   4.896   4.462  10.709 -0.4374  0.8080 -0.0562
   23SAPC  H14A 2978   4.826   4.519  10.649 -0.0091 -0.9510 -2.3652
   23SAPC  H14B 2979   4.944   4.384  10.653 -0.0051  0.4643  0.7764
   23SAPC  H14C 2980   4.841   4.409  10.786  1.8386 -1.2175  0.2894
   23SAPC   C15 2981   5.093   4.469  10.865  0.7912 -0.0018  0.5336
   23SAPC  H15A 2982   5.172   4.529  10.909  1.9143 -0.3801 -0.8890
   23SAPC  H15B 2983   5.049   4.427  10.954  2.1926  3.0595  2.8725
   23SAPC  H15C 2984   5.140   4.391  10.807 -2.1363  0.1155 -2.2720
   23SAPC   C11 2985   5.195   4.717  10.698  0.3135  0.3712  0.6012
   23SAPC  H11A 2986   5.236   4.745  10.599 -2.3769  0.5360 -0.5627
   23SAPC  H11B 2987   5.274   4.659  10.751  0.9553  0.1305 -0.5912
   23SAPC     P 2988   5.097   4.964  10.726  0.4020  0.2570  0.2863
   23SAPC   O13 2989   4.970   4.971  10.798  0.0201 -0.3946 -0.4133
   23SAPC   O14 2990   5.198   5.066  10.752  0.3187  0.6857  0.0083
   23SAPC   O12 2991   5.150   4.822  10.780 -0.1553 -0.1274  0.1709
   23SAPC   O11 2992   5.074   4.937  10.570 -0.5575 -0.5243 -0.3094
   23SAPC    C1 2993   5.175   4.964  10.478 -0.6688 -0.2975  0.0421
   23SAPC    HA 2994   5.265   5.011  10.523 -1.0010 -0.7598  1.2265
   23SAPC    HB 2995   5.220   4.872  10.433  0.4786  0.1422  0.2418
   23SAPC    C2 2996   5.135   5.067  10.369  0.8441 -0.8865  0.6253
   23SAPC    HS 2997   5.047   5.126  10.403  0.2816 -0.2316 -1.7777
   23SAPC   O21 2998   5.084   4.991  10.261 -0.1605 -0.6548  0.1029
   23SAPC   C21 2999   5.005   5.056  10.171  0.4252  0.2326 -0.1316
   23SAPC   O22 3000   4.956   5.167  10.187 -0.5758  0.3106 -0.3541
   23SAPC   C22 3001   4.963   4.951  10.066  0.2167 -0.8153  0.2636
   23SAPC   H2R 3002   5.058   4.905  10.031  2.5569  2.6929  1.5417
   23SAPC   H2S 3003   4.901   4.870  10.111 -3.0612  0.7763 -1.0705
   23SAPC    C3 3004   5.240   5.163  10.315 -0.1862 -0.1024 -0.3660
   23SAPC    HX 3005   5.313   5.178  10.398  0.1101  0.3377 -0.7051
   23SAPC    HY 3006   5.196   5.262  10.291  0.5662  1.2624  3.1826
   23SAPC   O31 3007   5.308   5.101  10.201 -0.2569  0.1024  0.2763
   23SAPC   C31 3008   5.336   5.174  10.093  0.4550  0.3776  0.7827
   23SAPC   O32 3009   5.289   5.284  10.069 -0.4378 -0.0916  0.0191
   23SAPC   C32 3010   5.424   5.093   9.998  0.0589 -0.3891 -0.0673
   23SAPC   H2X 3011   5.405   4.990  10.034  0.8426  0.0307  1.6696
   23SAPC   H2Y 3012   5.525   5.131  10.026 -0.4943  0.8407  0.3182
   23SAPC   C23 3013   4.873   5.018   9.957  0.1184 -0.1188 -1.2459
   23SAPC   H3R 3014   4.916   5.110   9.913 -2.3380  2.3697  1.1424
   23SAPC   H3S 3015   4.787   5.054  10.017  0.2768  1.1777 -1.7605
   23SAPC   C24 3016   4.805   4.913   9.867 -0.3541  0.5234  0.1564
   23SAPC   H4R 3017   4.862   4.822   9.896  1.0606  0.8396 -1.4753
   23SAPC   H4S 3018   4.827   4.931   9.760  1.1916  1.5575  0.6237
   23SAPC   C25 3019   4.658   4.886   9.868  0.6943  0.0858 -0.2246
   23SAPC   H5R 3020   4.609   4.912   9.963  2.1008  0.2658  0.4794
   23SAPC   C26 3021   4.585   4.831   9.765 -0.1200 -0.2814 -1.0950
   23SAPC   H6R 3022   4.477   4.811   9.778  0.1295 -0.4558  0.9839
   23SAPC   C27 3023   4.633   4.784   9.637 -0.2838  0.1329 -0.4523
   23SAPC   H7R 3024   4.729   4.729   9.648  1.4010  3.0566  0.4408
   23SAPC   H7S 3025   4.660   4.874   9.578  1.9093 -0.5214 -0.5391
   23SAPC   C28 3026   4.539   4.692   9.555 -0.5620 -0.3549  0.1543
   23SAPC   H8R 3027   4.502   4.606   9.612  1.1956 -0.4074  1.2830
   23SAPC   C29 3028   4.506   4.709   9.425 -0.2387 -0.3385  0.1797
   23SAPC   H9R 3029   4.417   4.653   9.393 -0.2461 -0.5466  0.5528
   23SAPC  C210 3030   4.548   4.819   9.327 -1.0293  0.2695 -0.2054
   23SAPC  H10R 3031   4.658   4.815   9.318 -0.9392  0.8623  0.5233
   23SAPC  H10S 3032   4.519   4.914   9.375 -2.7617  0.5756 -1.7409
   23SAPC  C211 3033   4.493   4.813   9.189  0.5995  0.0510  0.8280
   23SAPC  H11R 3034   4.419   4.735   9.170  2.1052 -1.4535  0.9243
   23SAPC  C212 3035   4.535   4.883   9.079 -0.0700  0.4002 -0.2156
   23SAPC  H12R 3036   4.491   4.880   8.978  0.9001  2.2573 -0.7538
   23SAPC  C213 3037   4.640   4.989   9.087 -0.5142 -0.4609  0.1505
   23SAPC  H13R 3038   4.680   5.002   9.190 -1.3070 -1.9381  0.6703
   23SAPC  H13S 3039   4.598   5.090   9.068 -0.3734  0.0422  2.2769
   23SAPC  C214 3040   4.755   4.975   8.986 -0.3673  0.4033 -0.2067
   23SAPC  H14R 3041   4.833   4.900   9.007 -1.2075 -0.8763 -1.4944
   23SAPC  C215 3042   4.782   5.051   8.879 -0.1023 -0.0946  0.0327
   23SAPC  H15R 3043   4.866   5.026   8.813 -0.5623 -2.5365  0.2665
   23SAPC  C216 3044   4.689   5.163   8.836  0.3137  0.0614  0.3990
   23SAPC  H16R 3045   4.681   5.247   8.908 -0.9877 -1.1932  1.7972
   23SAPC  H16S 3046   4.588   5.118   8.838  0.1579  0.4055  2.7842
   23SAPC  C217 3047   4.722   5.220   8.695 -0.0339  0.0203 -0.3733
   23SAPC  H17R 3048   4.644   5.293   8.665  1.6314  2.3277  0.6502
   23SAPC  H17S 3049   4.722   5.135   8.623  0.6012 -2.0267  1.8932
   23SAPC  C218 3050   4.859   5.296   8.703 -0.0491  0.7368 -0.1934
   23SAPC  H18R 3051   4.933   5.221   8.738 -2.5109 -1.3820  0.7897
   23SAPC  H18S 3052   4.845   5.371   8.784 -3.6618  0.7669 -0.6697
   23SAPC  C219 3053   4.893   5.370   8.573 -0.8234  0.5968 -0.0145
   23SAPC  H19R 3054   4.978   5.438   8.598  0.5522 -0.2172 -2.2344
   23SAPC  H19S 3055   4.813   5.431   8.525 -1.2228  1.2083  1.3770
   23SAPC  C220 3056   4.951   5.275   8.472  0.5152  0.6077  0.0937
   23SAPC  H20R 3057   4.875   5.207   8.427  0.2837  2.0699 -1.8529
   23SAPC  H20S 3058   5.035   5.208   8.499 -0.9222 -2.6028 -2.6632
   23SAPC  H20T 3059   4.989   5.331   8.384 -1.6502  2.1560  0.0567
   23SAPC   C33 3060   5.401   5.112   9.844  0.5150 -0.3887 -1.0274
   23SAPC   H3X 3061   5.387   5.222   9.829  0.0644 -0.3746 -0.5281
   23SAPC   H3Y 3062   5.304   5.067   9.816  0.1743 -0.5017  0.2855
   23SAPC   C34 3063   5.508   5.074   9.747  0.0067  0.6318  0.0728
   23SAPC   H4X 3064   5.530   4.965   9.742 -0.0909  0.6273 -0.3356
   23SAPC   H4Y 3065   5.604   5.125   9.768  0.8017  0.5454 -2.9117
   23SAPC   C35 3066   5.465   5.124   9.605  0.6679 -0.3825 -0.4123
   23SAPC   H5X 3067   5.459   5.234   9.611  1.4451 -0.2976 -0.9864
   23SAPC   H5Y 3068   5.368   5.082   9.571  0.4194 -0.2467  0.1125
   23SAPC   C36 3069   5.562   5.089   9.498 -0.4533  0.4605 -0.6883
   23SAPC   H6X 3070   5.590   4.981   9.498  1.5587  0.9468 -0.1863
   23SAPC   H6Y 3071   5.660   5.141   9.497  0.2838 -0.8851 -0.7368
   23SAPC   C37 3072   5.507   5.115   9.349 -0.6516  0.6003 -0.6864
   23SAPC   H7X 3073   5.527   5.224   9.339  1.8341  0.0894 -2.0507
   23SAPC   H7Y 3074   5.399   5.089   9.339 -0.8398  1.1367 -0.1132
   23SAPC   C38 3075   5.581   5.028   9.237  0.4524  0.2477 -0.2831
   23SAPC   H8X 3076   5.531   5.033   9.138  1.4637  3.1717 -0.7500
   23SAPC   H8Y 3077   5.588   4.926   9.279  0.0677 -0.1598 -1.1891
   23SAPC   C39 3078   5.723   5.091   9.213 -0.9865 -0.3739 -0.2058
   23SAPC   H9X 3079   5.792   5.094   9.300 -0.1031  0.7661 -0.9102
   23SAPC   H9Y 3080   5.718   5.198   9.182  0.9140 -0.2658 -0.2522
   23SAPC  C310 3081   5.810   5.007   9.120  0.6968  0.0808  0.9858
   23SAPC  H10X 3082   5.807   4.904   9.161 -0.8000  0.0376  0.7954
   23SAPC  H10Y 3083   5.917   5.039   9.126  0.9181 -0.3496 -0.4405
   23SAPC  C311 3084   5.775   5.027   8.970 -0.6120  0.1673 -0.1867
   23SAPC  H11X 3085   5.770   5.134   8.941 -2.4252 -0.6058 -3.1746
   23SAPC  H11Y 3086   5.674   4.989   8.945 -1.1867  0.5417  1.4315
   23SAPC  C312 3087   5.881   4.954   8.878  0.7617 -0.1390  0.2549
   23SAPC  H12X 3088   5.894   4.849   8.914 -0.0209 -0.0387  0.8533
   23SAPC  H12Y 3089   5.975   5.011   8.896  1.6745 -0.8316 -1.9674
   23SAPC  C313 3090   5.829   4.955   8.732  0.0968  0.6594 -0.6469
   23SAPC  H13X 3091   5.775   5.050   8.709 -1.4666 -0.5276 -2.1284
   23SAPC  H13Y 3092   5.756   4.872   8.718  1.6168 -0.4016 -2.7655
   23SAPC  C314 3093   5.944   4.932   8.638 -0.5740 -0.1951  0.2185
   23SAPC  H14X 3094   6.002   4.843   8.671 -1.3611 -1.3680 -1.4342
   23SAPC  H14Y 3095   6.015   5.017   8.623  0.6187 -1.5001 -2.0647
   23SAPC  C315 3096   5.896   4.898   8.496  0.0522  0.9927 -0.3474
   23SAPC  H15X 3097   5.819   4.972   8.467  0.7930  1.9097 -0.0327
   23SAPC  H15Y 3098   5.855   4.795   8.503  0.4509  0.8610  0.1545
   23SAPC  C316 3099   6.005   4.917   8.387  0.4613  0.4658  0.3203
   23SAPC  H16X 3100   6.082   4.837   8.386  0.3379  0.3261  1.2677
   23SAPC  H16Y 3101   6.049   5.015   8.414 -1.7091  1.4094  0.6105
   23SAPC  C317 3102   5.939   4.925   8.249 -1.0751 -0.0609  0.0693
   23SAPC  H17X 3103   6.018   4.946   8.173 -1.4861  1.6572  0.0738
   23SAPC  H17Y 3104   5.881   5.019   8.238  1.6773  1.7179 -0.5176
   23SAPC  C318 3105   5.875   4.800   8.200  0.0195  0.3692 -0.3793
   23SAPC  H18X 3106   5.849   4.802   8.092  0.2311  1.3721 -0.4228
   23SAPC  H18Y 3107   5.790   4.772   8.267  0.1362  2.2478  0.6388
   23SAPC  H18Z 3108   5.943   4.714   8.209  0.0009  0.2754 -1.0742
   24SAPC     N 3109   1.910   5.854  10.891  0.0492 -0.2231  0.2310
   24SAPC   C12 3110   1.887   5.954  10.784 -0.3719 -0.0777  0.2617
   24SAPC  H12A 3111   1.982   5.943  10.734  0.5381 -1.4017  2.1621
   24SAPC  H12B 3112   1.877   6.055  10.819  0.2654  0.6882 -1.6261
   24SAPC   C13 3113   1.781   5.839  10.968  0.3029  0.6917 -0.3032
   24SAPC  H13A 3114   1.713   5.796  10.895  1.0321 -0.9841 -0.0173
   24SAPC  H13B 3115   1.781   5.765  11.046 -0.2672 -0.1712 -1.1029
   24SAPC  H13C 3116   1.748   5.940  10.990  0.1432  0.7358 -0.7345
   24SAPC   C14 3117   1.961   5.729  10.830 -0.1398  0.4329 -0.1830
   24SAPC  H14A 3118   1.948   5.647  10.900 -0.5593  1.3056  0.7860
   24SAPC  H14B 3119   1.910   5.699  10.740  3.1814 -1.2646 -1.6687
   24SAPC  H14C 3120   2.067   5.743  10.821 -0.3534  3.3488  0.9695
   24SAPC   C15 3121   2.015   5.902  10.987  0.7930 -0.1514  0.5801
   24SAPC  H15A 3122   2.107   5.926  10.936 -0.0545  1.1196 -0.4318
   24SAPC  H15B 3123   1.983   5.990  11.040 -1.6783 -0.9523  0.5413
   24SAPC  H15C 3124   2.038   5.823  11.057  1.6498 -0.0152  0.4573
   24SAPC   C11 3125   1.772   5.930  10.686  0.3684  0.1086  0.2115
   24SAPC  H11A 3126   1.777   5.829  10.641  1.3394 -0.3955  1.4075
   24SAPC  H11B 3127   1.800   5.991  10.598 -0.4202  1.7645  1.0542
   24SAPC     P 3128   1.610   6.115  10.766  0.3243  0.1730 -0.1538
   24SAPC   O13 3129   1.500   6.124  10.865 -0.0588  0.1793 -0.2095
   24SAPC   O14 3130   1.738   6.176  10.804 -0.3995  0.3659  0.3845
   24SAPC   O12 3131   1.642   5.959  10.744  1.2111 -0.5597 -0.4266
   24SAPC   O11 3132   1.582   6.179  10.628  0.1760 -0.4022  0.0420
   24SAPC    C1 3133   1.443   6.208  10.589  0.5045  0.8006 -0.0207
   24SAPC    HA 3134   1.390   6.253  10.676  3.5250  1.1900  1.7826
   24SAPC    HB 3135   1.450   6.298  10.525  0.3851  1.9184  1.4664
   24SAPC    C2 3136   1.380   6.087  10.508  0.5719  0.2717 -0.3813
   24SAPC    HS 3137   1.344   6.017  10.586  1.6898  2.0744  1.8637
   24SAPC   O21 3138   1.483   6.011  10.439 -0.4486 -0.6000  0.3405
   24SAPC   C21 3139   1.458   5.886  10.403  0.4332  0.4436  0.3970
   24SAPC   O22 3140   1.348   5.829  10.411  0.0868 -0.2554  0.1578
   24SAPC   C22 3141   1.584   5.816  10.354 -0.3594 -0.1136 -0.1241
   24SAPC   H2R 3142   1.642   5.896  10.302  1.5943  0.4286  2.6836
   24SAPC   H2S 3143   1.623   5.799  10.456 -5.1574  0.7746  2.1491
   24SAPC    C3 3144   1.261   6.127  10.422 -0.2751  0.8198  0.1058
   24SAPC    HX 3145   1.169   6.158  10.477 -1.5125 -0.3755 -1.2027
   24SAPC    HY 3146   1.225   6.039  10.365  0.0684  0.5220  0.3400
   24SAPC   O31 3147   1.303   6.230  10.327  0.0840 -0.1771  0.1091
   24SAPC   C31 3148   1.352   6.183  10.211 -0.0268  0.3383 -0.0818
   24SAPC   O32 3149   1.328   6.071  10.171 -0.5197  0.3402 -0.1008
   24SAPC   C32 3150   1.439   6.293  10.139  0.2803 -0.1861 -0.4030
   24SAPC   H2X 3151   1.526   6.238  10.096  1.1694  1.0164 -0.1845
   24SAPC   H2Y 3152   1.482   6.359  10.217  1.5015 -0.0553 -1.1581
   24SAPC   C23 3153   1.587   5.672  10.296 -0.5269  0.0692  0.2417
   24SAPC   H3R 3154   1.532   5.670  10.200  0.6615 -2.1059 -0.4601
   24SAPC   H3S 3155   1.528   5.605  10.363  0.0835 -0.5856  0.1384
   24SAPC   C24 3156   1.733   5.625  10.289 -0.3921  0.3373  0.4800
   24SAPC   H4R 3157   1.733   5.516  10.267  1.7597  0.4439 -0.3385
   24SAPC   H4S 3158   1.789   5.626  10.385  2.5577 -4.2977 -0.8824
   24SAPC   C25 3159   1.811   5.711  10.192  0.5396  0.1299  0.0322
   24SAPC   H5R 3160   1.869   5.791  10.242  0.6061  0.1451 -0.0698
   24SAPC   C26 3161   1.828   5.688  10.062  0.7713  0.9798  0.0605
   24SAPC   H6R 3162   1.893   5.766  10.020  0.2247  2.9309  2.5918
   24SAPC   C27 3163   1.772   5.574   9.979  0.2127  0.2239  0.5128
   24SAPC   H7R 3164   1.665   5.596   9.959  0.4091  0.6287 -0.1125
   24SAPC   H7S 3165   1.773   5.478  10.036 -1.1395 -0.6708 -0.9012
   24SAPC   C28 3166   1.821   5.553   9.845 -0.6848  0.2399 -0.0215
   24SAPC   H8R 3167   1.853   5.646   9.796  0.6027  1.1232  2.3082
   24SAPC   C29 3168   1.835   5.427   9.790  0.3833  0.6962  0.5918
   24SAPC   H9R 3169   1.864   5.417   9.684 -1.4158  3.0814 -0.2116
   24SAPC  C210 3170   1.790   5.297   9.860  0.0168  0.0982 -0.4313
   24SAPC  H10R 3171   1.751   5.219   9.792  0.9323 -0.2787 -0.5376
   24SAPC  H10S 3172   1.707   5.327   9.928  0.6884 -0.6566  0.7642
   24SAPC  C211 3173   1.900   5.228   9.944 -0.2356  0.0475  0.3380
   24SAPC  H11R 3174   1.877   5.223  10.051 -1.2707  0.8646  0.1821
   24SAPC  C212 3175   2.027   5.186   9.900 -0.4043 -0.0627 -0.1048
   24SAPC  H12R 3176   2.101   5.144   9.970 -1.5576 -0.5927  0.8449
   24SAPC  C213 3177   2.077   5.212   9.756  0.2982  0.5459 -0.7677
   24SAPC  H13R 3178   2.018   5.287   9.699  1.0373  0.6735 -1.3880
   24SAPC  H13S 3179   2.067   5.123   9.691 -1.3131  0.4137 -0.3718
   24SAPC  C214 3180   2.225   5.240   9.754  0.1102  0.4563 -0.2073
   24SAPC  H14R 3181   2.288   5.191   9.829  2.4753  0.8499 -1.8215
   24SAPC  C215 3182   2.294   5.334   9.685  0.1226  0.1411 -0.3684
   24SAPC  H15R 3183   2.397   5.339   9.723  0.2136 -0.5625 -0.5022
   24SAPC  C216 3184   2.240   5.423   9.582 -0.3279  0.1437  0.1988
   24SAPC  H16R 3185   2.232   5.526   9.624  2.6046  0.8529 -0.7231
   24SAPC  H16S 3186   2.137   5.387   9.560 -0.8788  1.6993  0.0614
   24SAPC  C217 3187   2.312   5.435   9.447  0.4303 -0.2768 -0.1225
   24SAPC  H17R 3188   2.415   5.473   9.466  0.9822 -0.5680 -2.3230
   24SAPC  H17S 3189   2.262   5.508   9.379 -1.3651 -0.3876  1.0096
   24SAPC  C218 3190   2.328   5.295   9.391 -0.5846  0.0851  0.0366
   24SAPC  H18R 3191   2.228   5.247   9.395 -1.1830  1.3335  0.8155
   24SAPC  H18S 3192   2.399   5.242   9.458  0.2814 -0.4395 -1.2625
   24SAPC  C219 3193   2.387   5.300   9.245  0.3091  0.5636  0.2606
   24SAPC  H19R 3194   2.484   5.351   9.263 -0.4388  1.6730  1.3480
   24SAPC  H19S 3195   2.308   5.361   9.196 -0.7132 -0.5645  0.4422
   24SAPC  C220 3196   2.397   5.165   9.176  0.0731 -0.6212 -0.1954
   24SAPC  H20R 3197   2.418   5.166   9.067  3.2113 -2.7966  0.2672
   24SAPC  H20S 3198   2.299   5.115   9.190 -1.3498  2.0885  0.1717
   24SAPC  H20T 3199   2.473   5.098   9.221 -0.2878 -0.8447  0.0902
   24SAPC   C33 3200   1.364   6.369  10.029 -0.5430  0.0595 -0.0686
   24SAPC   H3X 3201   1.261   6.406  10.050 -0.2345  1.9710 -1.5871
   24SAPC   H3Y 3202   1.345   6.288   9.956 -0.4562  0.3813 -0.4537
   24SAPC   C34 3203   1.437   6.475   9.946 -0.5217  0.3852  0.3656
   24SAPC   H4X 3204   1.543   6.451   9.926 -0.1874  1.7640  0.4154
   24SAPC   H4Y 3205   1.434   6.560  10.017  1.0243  0.5148  0.2976
   24SAPC   C35 3206   1.361   6.517   9.823  0.1143 -0.3876  0.5535
   24SAPC   H5X 3207   1.255   6.535   9.851 -0.6103 -2.3035 -0.7818
   24SAPC   H5Y 3208   1.352   6.433   9.752  2.7668 -0.8176  0.6014
   24SAPC   C36 3209   1.420   6.646   9.760 -0.2183 -0.5194  0.1800
   24SAPC   H6X 3210   1.431   6.720   9.841  0.6461  0.8710 -1.1511
   24SAPC   H6Y 3211   1.340   6.675   9.689  0.8909 -3.0286 -2.3103
   24SAPC   C37 3212   1.560   6.635   9.689 -0.5153 -0.0893 -0.1003
   24SAPC   H7X 3213   1.636   6.596   9.760  0.0388  2.9820  1.1565
   24SAPC   H7Y 3214   1.602   6.736   9.669  1.4565 -0.4066  2.0072
   24SAPC   C38 3215   1.553   6.547   9.567  0.3903  0.0900 -0.0724
   24SAPC   H8X 3216   1.496   6.456   9.593 -0.1442 -0.2163 -2.1715
   24SAPC   H8Y 3217   1.651   6.498   9.548 -0.1565 -1.5103  1.0601
   24SAPC   C39 3218   1.498   6.608   9.445  0.6295 -0.5374  0.0912
   24SAPC   H9X 3219   1.565   6.695   9.427  1.1989 -0.9744  0.0761
   24SAPC   H9Y 3220   1.394   6.641   9.466  1.1223 -0.0621  1.9738
   24SAPC  C310 3221   1.508   6.507   9.332  0.2746 -0.0577 -0.4444
   24SAPC  H10X 3222   1.458   6.412   9.360  1.3294 -0.9677 -1.5717
   24SAPC  H10Y 3223   1.614   6.505   9.300  0.9656 -0.2521  1.7149
   24SAPC  C311 3224   1.431   6.557   9.210  0.1701  0.9421  0.1992
   24SAPC  H11X 3225   1.465   6.503   9.119 -0.8835  0.0164  0.3363
   24SAPC  H11Y 3226   1.461   6.664   9.208 -0.2428  1.0681 -1.4342
   24SAPC  C312 3227   1.280   6.550   9.222 -0.1546  0.1015 -0.4409
   24SAPC  H12X 3228   1.240   6.610   9.306  0.5134 -0.8116  0.5535
   24SAPC  H12Y 3229   1.254   6.443   9.234 -2.6218  0.6723 -0.2586
   24SAPC  C313 3230   1.224   6.592   9.091  0.3139  0.5936  0.6486
   24SAPC  H13X 3231   1.132   6.530   9.089  0.5247  0.2852  0.1360
   24SAPC  H13Y 3232   1.284   6.544   9.010  0.7915  0.7368  0.9156
   24SAPC  C314 3233   1.206   6.744   9.074  0.2683  0.4547  0.1367
   24SAPC  H14X 3234   1.302   6.799   9.085 -0.2031  1.3250 -0.0421
   24SAPC  H14Y 3235   1.143   6.787   9.155  0.6012 -0.3581  0.8379
   24SAPC  C315 3236   1.166   6.778   8.931 -0.4051  0.2694  0.5800
   24SAPC  H15X 3237   1.243   6.729   8.867  0.1455  2.3640 -0.4563
   24SAPC  H15Y 3238   1.181   6.887   8.919  0.0998  0.0043 -1.6177
   24SAPC  C316 3239   1.022   6.733   8.886 -0.4940 -0.5038  0.2076
   24SAPC  H16X 3240   0.953   6.807   8.932  0.2049 -0.0918  0.6079
   24SAPC  H16Y 3241   1.008   6.626   8.913 -0.3848 -0.4100  0.6289
   24SAPC  C317 3242   1.002   6.733   8.731  0.0501  0.2054  0.4011
   24SAPC  H17X 3243   0.894   6.730   8.709  0.0873 -1.0750  0.3175
   24SAPC  H17Y 3244   1.061   6.648   8.691  0.4011  1.3709 -1.7222
   24SAPC  C318 3245   1.055   6.861   8.670  0.3199  0.4249 -0.3364
   24SAPC  H18X 3246   1.024   6.875   8.564 -1.0735  0.3617  0.0346
   24SAPC  H18Y 3247   1.166   6.868   8.674  0.4208  0.4416 -2.3087
   24SAPC  H18Z 3248   1.010   6.939   8.735 -1.7240 -0.9684  0.0248
   25SAPC     N 3249   6.057   2.574   5.710  0.2786 -0.6884 -0.4106
   25SAPC   C12 3250   6.059   2.725   5.721 -0.2752  0.8714  0.7026
   25SAPC  H12A 3251   5.958   2.756   5.740 -0.8361 -0.7064  0.4672
   25SAPC  H12B 3252   6.076   2.766   5.623 -1.2398  1.9589  0.9601
   25SAPC   C13 3253   6.017   2.503   5.835 -0.0889  0.3080 -0.1353
   25SAPC  H13A 3254   6.067   2.542   5.923  2.1458 -0.2821 -1.0630
   25SAPC  H13B 3255   5.910   2.501   5.850 -0.0512 -0.9566  0.0868
   25SAPC  H13C 3256   6.034   2.396   5.843 -1.7514  0.0319 -0.0212
   25SAPC   C14 3257   5.954   2.529   5.613  0.2242 -0.3941 -0.7763
   25SAPC  H14A 3258   5.939   2.424   5.633  1.2215 -0.2864  0.6842
   25SAPC  H14B 3259   5.862   2.584   5.625  0.6039  0.0547  0.1593
   25SAPC  H14C 3260   5.986   2.530   5.510 -0.9633  0.1784 -1.1565
   25SAPC   C15 3261   6.188   2.515   5.667  0.6113  0.1130  0.7046
   25SAPC  H15A 3262   6.205   2.546   5.565 -0.4725 -0.0752  0.4529
   25SAPC  H15B 3263   6.271   2.540   5.731  0.0502  1.5195  0.9190
   25SAPC  H15C 3264   6.177   2.408   5.660  0.7205 -0.0282  2.4594
   25SAPC   C11 3265   6.162   2.789   5.816  0.5953 -0.0589  0.7529
   25SAPC  H11A 3266   6.147   2.899   5.807 -0.2370 -0.1970  0.3904
   25SAPC  H11B 3267   6.261   2.765   5.772  0.2260  1.0077 -0.7488
   25SAPC     P 3268   6.046   2.823   6.048  0.2786  0.5937  0.1698
   25SAPC   O13 3269   6.124   2.935   6.112 -0.5671 -0.3146  0.0117
   25SAPC   O14 3270   5.920   2.866   5.977  0.0182  0.6922  0.3353
   25SAPC   O12 3271   6.137   2.741   5.952 -0.6152 -0.0558 -0.3928
   25SAPC   O11 3272   6.011   2.720   6.163  0.5016 -0.0250  0.4673
   25SAPC    C1 3273   5.877   2.657   6.143 -0.2427  0.1099  0.8086
   25SAPC    HA 3274   5.834   2.668   6.041  0.4158  1.7212  0.6897
   25SAPC    HB 3275   5.890   2.547   6.154 -0.0558 -0.1070 -1.1377
   25SAPC    C2 3276   5.764   2.713   6.237  0.6303 -0.0723 -0.4978
   25SAPC    HS 3277   5.753   2.820   6.209  2.1293  0.2162 -0.0651
   25SAPC   O21 3278   5.804   2.690   6.369  0.5286  0.0029 -0.4986
   25SAPC   C21 3279   5.864   2.797   6.425 -0.0210 -0.5548  0.8219
   25SAPC   O22 3280   5.864   2.907   6.371 -0.3967 -0.2523 -0.0030
   25SAPC   C22 3281   5.925   2.756   6.561 -0.0235  0.0020  0.0244
   25SAPC   H2R 3282   5.850   2.804   6.627 -1.6949  0.3631 -2.0359
   25SAPC   H2S 3283   5.920   2.645   6.568 -1.4501 -0.0173 -0.9189
   25SAPC    C3 3284   5.630   2.636   6.208 -0.3114 -0.6004  0.3056
   25SAPC    HX 3285   5.650   2.530   6.180 -3.6555 -1.5544  1.0918
   25SAPC    HY 3286   5.589   2.684   6.116  3.2118  0.2945 -0.9660
   25SAPC   O31 3287   5.536   2.627   6.312  0.1498 -0.3111 -0.2343
   25SAPC   C31 3288   5.479   2.750   6.344  0.7251  0.0028 -0.1454
   25SAPC   O32 3289   5.489   2.847   6.275  0.0026 -0.1984  0.2097
   25SAPC   C32 3290   5.382   2.738   6.456  0.2863  0.1318  0.0492
   25SAPC   H2X 3291   5.429   2.703   6.551 -0.1155  1.0147  0.5868
   25SAPC   H2Y 3292   5.294   2.682   6.419  0.3458 -0.3836  0.6753
   25SAPC   C23 3293   6.078   2.802   6.588  0.0074  1.0861 -0.2529
   25SAPC   H3R 3294   6.088   2.911   6.568 -0.4044  1.1473 -0.1171
   25SAPC   H3S 3295   6.146   2.751   6.516  0.9189  0.0641  1.2691
   25SAPC   C24 3296   6.132   2.775   6.729 -0.5171  0.6482  0.2580
   25SAPC   H4R 3297   6.072   2.826   6.807  0.0720  0.6522  0.7205
   25SAPC   H4S 3298   6.234   2.820   6.729 -0.0728 -0.2630 -1.2932
   25SAPC   C25 3299   6.152   2.626   6.753  0.3147 -0.7835  0.7931
   25SAPC   H5R 3300   6.207   2.571   6.674 -0.8313 -2.3460  1.0270
   25SAPC   C26 3301   6.114   2.566   6.859 -0.2079  0.9701 -0.5412
   25SAPC   H6R 3302   6.110   2.457   6.872 -0.1100  0.9755 -0.4644
   25SAPC   C27 3303   6.047   2.632   6.983  0.0895 -0.0905  0.4301
   25SAPC   H7R 3304   5.986   2.562   7.044 -0.3664  1.0009  1.2683
   25SAPC   H7S 3305   5.984   2.715   6.946 -0.3867 -1.6939 -2.6459
   25SAPC   C28 3306   6.159   2.685   7.070 -1.0890  0.1012 -0.1004
   25SAPC   H8R 3307   6.194   2.779   7.025 -0.5894 -0.3895 -0.7487
   25SAPC   C29 3308   6.200   2.641   7.190  0.7776  0.6709 -0.4124
   25SAPC   H9R 3309   6.284   2.697   7.234 -0.3470  0.8636  1.5758
   25SAPC  C210 3310   6.142   2.513   7.255  0.0016 -0.5954  0.6640
   25SAPC  H10R 3311   6.111   2.438   7.180 -0.4764  0.0681  0.1803
   25SAPC  H10S 3312   6.044   2.545   7.298  0.4828  1.4127  0.3657
   25SAPC  C211 3313   6.236   2.458   7.362 -0.3272 -0.4236 -0.5248
   25SAPC  H11R 3314   6.282   2.529   7.432  0.8797  1.4132 -3.0237
   25SAPC  C212 3315   6.258   2.324   7.396 -0.6999 -0.4549  0.0389
   25SAPC  H12R 3316   6.339   2.299   7.467 -0.0314 -2.5224 -1.3525
   25SAPC  C213 3317   6.194   2.204   7.328  0.2941  0.2598  0.0387
   25SAPC  H13R 3318   6.208   2.213   7.218  0.6644  1.1067  0.1446
   25SAPC  H13S 3319   6.084   2.210   7.343 -0.1265 -0.3938 -2.3536
   25SAPC  C214 3320   6.242   2.069   7.371  0.7196  0.5528 -0.2351
   25SAPC  H14R 3321   6.325   2.036   7.306  1.5421  4.0170 -1.1565
   25SAPC  C215 3322   6.184   1.992   7.468  0.3722 -0.5803  0.3585
   25SAPC  H15R 3323   6.237   1.897   7.485 -0.1801 -1.3642 -1.8942
   25SAPC  C216 3324   6.067   2.026   7.562  0.2201 -0.2601 -0.5429
   25SAPC  H16R 3325   5.966   1.988   7.535 -2.1352  2.5557  3.1909
   25SAPC  H16S 3326   6.040   2.133   7.574 -0.9794 -0.8191  2.5835
   25SAPC  C217 3327   6.113   1.987   7.708  0.3969  0.0044 -0.7301
   25SAPC  H17R 3328   6.215   2.028   7.727  0.8392 -1.0909 -0.6844
   25SAPC  H17S 3329   6.114   1.876   7.704  1.8129 -0.0336 -0.0347
   25SAPC  C218 3330   6.023   2.048   7.813  0.3435 -0.1860  0.5670
   25SAPC  H18R 3331   5.918   2.029   7.783  0.7892  0.0548 -1.2704
   25SAPC  H18S 3332   6.035   2.158   7.815  0.6867 -0.2300  2.8565
   25SAPC  C219 3333   6.046   2.003   7.966 -0.0470  0.2358  0.4203
   25SAPC  H19R 3334   6.147   2.047   7.983 -0.0784  0.4232  0.1332
   25SAPC  H19S 3335   6.054   1.893   7.973  0.0184  0.2449  0.4992
   25SAPC  C220 3336   5.958   2.052   8.077 -0.6405  0.2906  0.0307
   25SAPC  H20R 3337   5.941   2.162   8.070 -0.4124  0.2926 -0.5446
   25SAPC  H20S 3338   5.999   2.029   8.178 -0.9158 -0.7674 -0.0878
   25SAPC  H20T 3339   5.859   2.002   8.065 -2.1333  2.8112  0.8586
   25SAPC   C33 3340   5.322   2.878   6.492  0.3033  0.2477 -0.1799
   25SAPC   H3X 3341   5.266   2.892   6.398 -1.2494 -0.6268  0.5609
   25SAPC   H3Y 3342   5.407   2.948   6.507  1.1571 -0.8400  0.2298
   25SAPC   C34 3343   5.229   2.882   6.614 -0.5619  0.0226  0.5294
   25SAPC   H4X 3344   5.129   2.844   6.581 -0.0530 -0.5543 -0.4121
   25SAPC   H4Y 3345   5.210   2.990   6.631  0.2300  0.1506  0.6042
   25SAPC   C35 3346   5.281   2.796   6.727 -0.0496  0.7064 -0.2173
   25SAPC   H5X 3347   5.386   2.829   6.744  0.4675 -1.7643  2.2146
   25SAPC   H5Y 3348   5.284   2.687   6.708 -0.7365  0.9844 -2.1785
   25SAPC   C36 3349   5.199   2.823   6.857 -0.2080 -0.6638 -0.3413
   25SAPC   H6X 3350   5.095   2.788   6.842 -1.1932  1.6966  0.6038
   25SAPC   H6Y 3351   5.203   2.931   6.881 -1.3571 -0.8485  0.7731
   25SAPC   C37 3352   5.253   2.740   6.973  0.5867  0.6057  0.0783
   25SAPC   H7X 3353   5.361   2.762   6.984  0.7259 -0.2278  0.4593
   25SAPC   H7Y 3354   5.237   2.633   6.950  1.0042  0.7234 -0.7857
   25SAPC   C38 3355   5.176   2.765   7.106  0.0258 -0.4958 -0.4103
   25SAPC   H8X 3356   5.068   2.769   7.079 -0.3017 -1.6944  0.6472
   25SAPC   H8Y 3357   5.215   2.862   7.144 -0.9012 -0.0263 -0.6321
   25SAPC   C39 3358   5.204   2.663   7.206  0.4344  0.2933 -0.4142
   25SAPC   H9X 3359   5.313   2.658   7.225 -0.2095  0.1866  4.6327
   25SAPC   H9Y 3360   5.164   2.564   7.175  2.0448  0.1638 -2.2838
   25SAPC  C310 3361   5.146   2.698   7.345  0.7048 -0.3581 -0.5164
   25SAPC  H10X 3362   5.036   2.708   7.333  0.9591  1.7178 -1.5644
   25SAPC  H10Y 3363   5.183   2.801   7.363  0.3600 -0.3971  0.5075
   25SAPC  C311 3364   5.192   2.607   7.457 -0.4715 -0.4162  0.3640
   25SAPC  H11X 3365   5.303   2.609   7.466 -0.4552  0.4731  0.0275
   25SAPC  H11Y 3366   5.166   2.502   7.433 -0.9144  0.1023 -1.5953
   25SAPC  C312 3367   5.136   2.631   7.592  0.6553  0.4688 -0.8645
   25SAPC  H12X 3368   5.032   2.592   7.583  1.1137 -1.5825  1.4811
   25SAPC  H12Y 3369   5.130   2.732   7.638 -1.7457 -1.0440  2.5943
   25SAPC  C313 3370   5.205   2.544   7.700 -0.8421 -0.3712 -0.2747
   25SAPC  H13X 3371   5.310   2.579   7.703 -0.7305 -0.3468 -2.3889
   25SAPC  H13Y 3372   5.214   2.435   7.683  0.9809 -0.3573  0.3915
   25SAPC  C314 3373   5.141   2.560   7.841  0.4466 -0.4767  0.3500
   25SAPC  H14X 3374   5.050   2.497   7.848 -1.7795  2.5779  1.2795
   25SAPC  H14Y 3375   5.091   2.654   7.874 -0.2219 -0.5897 -0.3105
   25SAPC  C315 3376   5.232   2.514   7.952 -0.5253 -0.1133  0.1651
   25SAPC  H15X 3377   5.326   2.573   7.943  0.1450 -0.8814  1.6638
   25SAPC  H15Y 3378   5.262   2.410   7.929 -1.6300 -0.7169  1.3395
   25SAPC  C316 3379   5.170   2.538   8.089 -1.0340 -0.8583 -0.4010
   25SAPC  H16X 3380   5.068   2.494   8.095 -0.9639 -0.8397  3.0141
   25SAPC  H16Y 3381   5.148   2.647   8.094 -1.5599 -0.9877  0.2325
   25SAPC  C317 3382   5.268   2.495   8.202  0.7572  0.1805  0.9046
   25SAPC  H17X 3383   5.272   2.385   8.210  4.5551  0.2015  1.4515
   25SAPC  H17Y 3384   5.216   2.531   8.293  2.9529  3.2213  1.1343
   25SAPC  C318 3385   5.413   2.544   8.196 -0.2555 -0.2366 -0.4453
   25SAPC  H18X 3386   5.469   2.499   8.280  0.3960  1.1435 -0.1178
   25SAPC  H18Y 3387   5.417   2.654   8.184 -1.5441 -0.3990 -3.1991
   25SAPC  H18Z 3388   5.463   2.518   8.100  1.1751  0.5423  0.0677
   26SAPC     N 3389   3.139   5.743   6.304 -0.1458  0.2340  0.3006
   26SAPC   C12 3390   3.155   5.667   6.435  0.5308 -0.7999  0.3704
   26SAPC  H12A 3391   3.061   5.678   6.485 -0.6906 -1.1121 -1.7190
   26SAPC  H12B 3392   3.226   5.725   6.492 -0.5281  0.7433  0.1849
   26SAPC   C13 3393   3.064   5.655   6.213  0.0041 -0.1822  0.5947
   26SAPC  H13A 3394   3.067   5.696   6.114 -1.3899 -1.0006  0.1926
   26SAPC  H13B 3395   3.102   5.554   6.213 -1.3835 -0.7336 -0.7149
   26SAPC  H13C 3396   2.963   5.640   6.248  0.5130 -0.3643  2.0727
   26SAPC   C14 3397   3.077   5.882   6.318  0.6935 -0.5474  0.2979
   26SAPC  H14A 3398   3.147   5.950   6.364 -0.7597  0.9370  0.3614
   26SAPC  H14B 3399   3.050   5.917   6.219  0.5940  0.5090  0.6923
   26SAPC  H14C 3400   2.991   5.876   6.382  0.2145 -0.9655 -0.3675
   26SAPC   C15 3401   3.272   5.768   6.242 -0.4358  0.0503  0.4193
   26SAPC  H15A 3402   3.278   5.831   6.155 -1.3104  0.3466  0.5647
   26SAPC  H15B 3403   3.330   5.817   6.319 -0.9832  1.2506  0.0820
   26SAPC  H15C 3404   3.313   5.668   6.233  2.2637  1.1112  0.0304
   26SAPC   C11 3405   3.200   5.522   6.434 -0.1343 -0.0251  0.6695
   26SAPC  H11A 3406   3.117   5.460   6.394  0.5707 -1.5971  1.5470
   26SAPC  H11B 3407   3.207   5.483   6.538  1.3033  2.2874  1.5090
   26SAPC     P 3408   3.356   5.374   6.303  0.4162  0.0667  0.2902
   26SAPC   O13 3409   3.248   5.352   6.208 -0.4165  0.2393  0.8426
   26SAPC   O14 3410   3.486   5.378   6.243  0.4182 -0.7014 -0.1708
   26SAPC   O12 3411   3.328   5.510   6.367  1.0225  0.1101 -0.0288
   26SAPC   O11 3412   3.350   5.266   6.419 -0.1094 -0.6338 -0.2416
   26SAPC    C1 3413   3.456   5.213   6.488  0.0119  0.3415 -0.2041
   26SAPC    HA 3414   3.455   5.103   6.470 -0.6595  0.5066 -1.2802
   26SAPC    HB 3415   3.554   5.232   6.440 -0.0986 -2.4005 -1.7395
   26SAPC    C2 3416   3.474   5.259   6.631  0.0138  0.5552  0.1612
   26SAPC    HS 3417   3.380   5.230   6.683  0.0666  0.2813  0.1005
   26SAPC   O21 3418   3.489   5.398   6.639 -0.5917  0.1438 -0.0540
   26SAPC   C21 3419   3.439   5.471   6.744 -0.2928  0.5447  0.4541
   26SAPC   O22 3420   3.389   5.420   6.840 -0.2071  0.5571  0.3602
   26SAPC   C22 3421   3.442   5.615   6.719 -0.2204 -0.4060 -0.1026
   26SAPC   H2R 3422   3.547   5.652   6.710  0.3449 -1.8526  0.2610
   26SAPC   H2S 3423   3.375   5.629   6.632 -0.7892 -3.2616 -0.2314
   26SAPC    C3 3424   3.599   5.191   6.689  0.2495  1.1264 -0.8993
   26SAPC    HX 3425   3.686   5.213   6.623 -0.4720 -0.2680 -2.3933
   26SAPC    HY 3426   3.572   5.086   6.662  0.5848  0.8817 -0.2871
   26SAPC   O31 3427   3.631   5.217   6.824  0.1174 -0.2643  0.3418
   26SAPC   C31 3428   3.556   5.164   6.915  0.4551 -0.0427 -0.4524
   26SAPC   O32 3429   3.464   5.087   6.882 -0.7474  0.2325  0.2739
   26SAPC   C32 3430   3.580   5.214   7.053  0.4686  0.1593 -0.1719
   26SAPC   H2X 3431   3.562   5.323   7.052  0.0325  0.0874 -1.4096
   26SAPC   H2Y 3432   3.689   5.200   7.072  0.2864  0.9572  1.7607
   26SAPC   C23 3433   3.376   5.684   6.838  0.2399  0.1093 -0.0049
   26SAPC   H3R 3434   3.283   5.631   6.866  1.1761 -0.3754  2.4315
   26SAPC   H3S 3435   3.344   5.787   6.810 -0.4593  0.3604  1.6107
   26SAPC   C24 3436   3.478   5.703   6.949  0.4272  0.0842  0.1588
   26SAPC   H4R 3437   3.568   5.746   6.900 -0.5019 -0.5361 -2.2573
   26SAPC   H4S 3438   3.515   5.601   6.972 -0.8459 -0.6646 -0.9665
   26SAPC   C25 3439   3.429   5.768   7.085 -1.2103 -0.5513  0.2808
   26SAPC   H5R 3440   3.434   5.877   7.073  1.0411 -0.7302 -0.8575
   26SAPC   C26 3441   3.380   5.713   7.200 -0.0846 -0.4533  0.6476
   26SAPC   H6R 3442   3.343   5.774   7.283  0.8820  1.3068 -0.1543
   26SAPC   C27 3443   3.351   5.568   7.222 -0.7673  0.3324 -0.2645
   26SAPC   H7R 3444   3.351   5.503   7.133 -3.0774  0.2437 -0.2479
   26SAPC   H7S 3445   3.241   5.570   7.236 -0.7244  1.4045  0.0306
   26SAPC   C28 3446   3.435   5.506   7.342  0.1111 -0.1116 -0.3760
   26SAPC   H8R 3447   3.544   5.515   7.331  0.2166  0.9356  1.1494
   26SAPC   C29 3448   3.385   5.443   7.454  0.2275 -0.5873 -0.3402
   26SAPC   H9R 3449   3.456   5.400   7.527 -0.1293  1.2506  1.1457
   26SAPC  C210 3450   3.239   5.419   7.498  0.6810 -0.2333  0.1216
   26SAPC  H10R 3451   3.210   5.312   7.491 -0.9773  0.0240  2.1828
   26SAPC  H10S 3452   3.175   5.460   7.417  0.8922  0.5225  0.3293
   26SAPC  C211 3453   3.210   5.471   7.634 -0.0822  0.0798  0.2066
   26SAPC  H11R 3454   3.147   5.560   7.644 -1.2558 -0.9210  2.3721
   26SAPC  C212 3455   3.246   5.415   7.750 -0.1098 -0.1124  0.6638
   26SAPC  H12R 3456   3.223   5.464   7.845  0.7787  0.7686  0.4330
   26SAPC  C213 3457   3.328   5.291   7.763  0.0100  0.4863  0.1609
   26SAPC  H13R 3458   3.340   5.248   7.661 -2.0773  1.5067 -0.5653
   26SAPC  H13S 3459   3.252   5.219   7.799 -0.9367  1.0888 -0.5889
   26SAPC  C214 3460   3.457   5.310   7.839 -0.6769  0.0413 -0.6575
   26SAPC  H14R 3461   3.504   5.409   7.826  1.4245 -0.4781  2.0108
   26SAPC  C215 3462   3.510   5.235   7.941 -0.0988 -0.0353 -0.3853
   26SAPC  H15R 3463   3.604   5.272   7.985 -0.1225  1.1535 -1.2748
   26SAPC  C216 3464   3.466   5.099   7.979  0.3240 -0.1213  0.1048
   26SAPC  H16R 3465   3.565   5.050   7.988  0.4693  0.3018  0.7761
   26SAPC  H16S 3466   3.405   5.045   7.902 -2.1946  2.0266  0.4542
   26SAPC  C217 3467   3.391   5.100   8.113 -0.0900 -0.4081 -0.3452
   26SAPC  H17R 3468   3.286   5.126   8.086 -0.2716 -0.8676 -0.0977
   26SAPC  H17S 3469   3.430   5.181   8.179 -0.8783  0.9050 -1.4461
   26SAPC  C218 3470   3.380   4.970   8.195 -0.2999 -0.3058  0.3479
   26SAPC  H18R 3471   3.481   4.923   8.202  1.0285  2.5263  2.3269
   26SAPC  H18S 3472   3.313   4.908   8.132 -1.4459  0.0206  1.2276
   26SAPC  C219 3473   3.322   4.994   8.335  0.0958 -0.1951 -0.2525
   26SAPC  H19R 3474   3.232   5.056   8.316 -0.5598 -1.0473  0.0309
   26SAPC  H19S 3475   3.397   5.059   8.386 -1.3651  0.7715  0.7380
   26SAPC  C220 3476   3.288   4.873   8.415  0.0366  0.3778 -0.1471
   26SAPC  H20R 3477   3.380   4.820   8.448 -2.3193 -3.6961  0.6924
   26SAPC  H20S 3478   3.232   4.801   8.352  1.8567 -0.7680 -0.5207
   26SAPC  H20T 3479   3.229   4.909   8.503 -1.9238  0.0078 -1.2429
   26SAPC   C33 3480   3.489   5.145   7.161  0.2342  0.2608  1.2432
   26SAPC   H3X 3481   3.404   5.088   7.117  2.1319 -0.8663 -1.1609
   26SAPC   H3Y 3482   3.451   5.219   7.234  1.4199  0.4856  1.6410
   26SAPC   C34 3483   3.570   5.042   7.235 -0.0834  0.3285  0.6853
   26SAPC   H4X 3484   3.618   4.974   7.162  1.9692  2.2417  0.1467
   26SAPC   H4Y 3485   3.503   4.987   7.305  1.4112  0.9880  2.7257
   26SAPC   C35 3486   3.674   5.101   7.333 -0.3587 -0.3979  0.3050
   26SAPC   H5X 3487   3.724   5.187   7.283 -1.6117  0.7924  1.0154
   26SAPC   H5Y 3488   3.750   5.023   7.356  0.4469  0.4220  0.5322
   26SAPC   C36 3489   3.609   5.151   7.462 -0.4656 -0.7500  0.1355
   26SAPC   H6X 3490   3.506   5.178   7.431  0.0276 -0.4619 -1.3296
   26SAPC   H6Y 3491   3.649   5.246   7.502 -1.0427  0.2158 -1.5251
   26SAPC   C37 3492   3.602   5.047   7.574 -0.1790 -0.2378 -0.7606
   26SAPC   H7X 3493   3.557   4.956   7.529 -0.6783 -0.6348  0.4954
   26SAPC   H7Y 3494   3.543   5.086   7.660 -1.6453 -3.5059 -0.1665
   26SAPC   C38 3495   3.740   5.008   7.631  0.0663  0.7101  0.2202
   26SAPC   H8X 3496   3.783   5.100   7.675  4.2023 -0.6868 -0.4139
   26SAPC   H8Y 3497   3.813   4.966   7.558 -1.0380 -4.4577  1.6812
   26SAPC   C39 3498   3.725   4.911   7.749 -0.2521  0.6416  0.9959
   26SAPC   H9X 3499   3.695   4.811   7.711 -0.2066  1.5224 -1.5732
   26SAPC   H9Y 3500   3.635   4.946   7.805 -0.8878  0.3945  0.1578
   26SAPC  C310 3501   3.845   4.896   7.842  0.4649  0.2291 -0.2019
   26SAPC  H10X 3502   3.880   4.999   7.862  0.4325  0.2786 -0.4010
   26SAPC  H10Y 3503   3.933   4.847   7.794 -0.1237 -1.6864  0.5758
   26SAPC  C311 3504   3.828   4.820   7.973  0.1128  0.3207 -0.0612
   26SAPC  H11X 3505   3.791   4.717   7.955  0.6944 -0.3625  2.2633
   26SAPC  H11Y 3506   3.744   4.872   8.024 -0.9813 -1.8508  0.4754
   26SAPC  C312 3507   3.952   4.824   8.062 -0.0316  0.1750  0.7762
   26SAPC  H12X 3508   3.956   4.928   8.102  1.4539  0.8407 -0.9813
   26SAPC  H12Y 3509   4.046   4.791   8.014  0.1790 -0.3339  1.5189
   26SAPC  C313 3510   3.948   4.742   8.190 -0.0505 -0.0924 -0.1315
   26SAPC  H13X 3511   3.940   4.634   8.163 -0.3360  0.3993 -2.1815
   26SAPC  H13Y 3512   3.859   4.765   8.252 -0.0879 -0.1034 -0.1805
   26SAPC  C314 3513   4.069   4.765   8.284 -0.2325  0.2480 -0.0514
   26SAPC  H14X 3514   4.052   4.718   8.383  4.3301 -1.1840  0.2943
   26SAPC  H14Y 3515   4.078   4.876   8.292  1.6666 -0.0246  4.1267
   26SAPC  C315 3516   4.197   4.695   8.232 -0.9947  0.2642  0.0245
   26SAPC  H15X 3517   4.281   4.759   8.266 -1.8958  0.8399  1.2309
   26SAPC  H15Y 3518   4.203   4.689   8.121 -2.2204 -1.1551  0.0072
   26SAPC  C316 3519   4.210   4.546   8.273  0.2213 -0.0097  0.7034
   26SAPC  H16X 3520   4.124   4.490   8.229  1.6023 -0.5420 -1.5228
   26SAPC  H16Y 3521   4.205   4.532   8.383  0.0988 -1.7504  0.5113
   26SAPC  C317 3522   4.337   4.471   8.227  0.0298  0.4735 -0.3714
   26SAPC  H17X 3523   4.324   4.463   8.117 -1.9187  0.0919 -0.1473
   26SAPC  H17Y 3524   4.333   4.374   8.281  1.6602  0.3944 -0.3437
   26SAPC  C318 3525   4.467   4.540   8.259 -0.4079 -0.0399 -0.3219
   26SAPC  H18X 3526   4.471   4.635   8.202  0.7052  0.2398  0.1934
   26SAPC  H18Y 3527   4.560   4.481   8.245  0.6070  1.1788  1.0375
   26SAPC  H18Z 3528   4.465   4.570   8.365  1.1555  0.2673 -0.3537
   27SAPC     N 3529   1.401   5.534   6.515  0.4591  0.2022 -0.5328
   27SAPC   C12 3530   1.320   5.406   6.493  0.5462  0.4014 -0.7351
   27SAPC  H12A 3531   1.270   5.407   6.397 -2.0193 -2.1919  0.3995
   27SAPC  H12B 3532   1.240   5.406   6.566  0.3777  3.1842 -0.8115
   27SAPC   C13 3533   1.478   5.524   6.644  0.7591 -0.0506 -1.0711
   27SAPC  H13A 3534   1.546   5.605   6.661 -1.9678  2.0625  0.7187
   27SAPC  H13B 3535   1.411   5.528   6.729  0.7313 -1.8293 -0.9680
   27SAPC  H13C 3536   1.530   5.430   6.659 -1.6556 -1.0375  2.4092
   27SAPC   C14 3537   1.502   5.541   6.405 -0.6206 -0.3195  0.3983
   27SAPC  H14A 3538   1.576   5.617   6.428  0.5137 -1.1524 -0.4116
   27SAPC  H14B 3539   1.543   5.442   6.391  0.2967  0.1128 -0.0797
   27SAPC  H14C 3540   1.458   5.570   6.311  2.8183 -1.3331 -1.7216
   27SAPC   C15 3541   1.313   5.652   6.510  0.1130 -0.1848  0.1072
   27SAPC  H15A 3542   1.240   5.638   6.431 -0.3604  1.4825  0.1920
   27SAPC  H15B 3543   1.249   5.661   6.597  0.4770 -1.2698  0.4998
   27SAPC  H15C 3544   1.366   5.746   6.507 -1.6135  0.8965  1.3239
   27SAPC   C11 3545   1.390   5.266   6.503 -0.5974  0.2793  0.1088
   27SAPC  H11A 3546   1.478   5.269   6.435  0.4238  0.3365  1.3798
   27SAPC  H11B 3547   1.319   5.187   6.472 -1.7027  1.3624 -0.1884
   27SAPC     P 3548   1.313   5.196   6.746  0.2235  0.1096 -0.0937
   27SAPC   O13 3549   1.174   5.207   6.686  0.4029 -0.3202 -0.1192
   27SAPC   O14 3550   1.357   5.059   6.793  0.2185  0.3428 -0.3076
   27SAPC   O12 3551   1.432   5.240   6.633  0.9397 -0.2928  0.3169
   27SAPC   O11 3552   1.337   5.300   6.862 -0.0649  0.2197  0.4478
   27SAPC    C1 3553   1.318   5.249   6.997  0.1063  0.0372 -0.2635
   27SAPC    HA 3554   1.347   5.142   7.012 -1.5193 -0.3165  0.6189
   27SAPC    HB 3555   1.386   5.295   7.071  0.3169  0.2747 -0.6055
   27SAPC    C2 3556   1.181   5.275   7.051  0.5947  0.1899 -0.1730
   27SAPC    HS 3557   1.106   5.249   6.973  2.8488 -1.2870 -1.9599
   27SAPC   O21 3558   1.175   5.409   7.104 -0.0355 -0.0310  0.0959
   27SAPC   C21 3559   1.050   5.460   7.117  0.4222 -0.4054  0.2040
   27SAPC   O22 3560   0.949   5.395   7.094 -0.2294  0.1685 -0.2451
   27SAPC   C22 3561   1.059   5.593   7.190  1.1163 -0.2597 -0.2190
   27SAPC   H2R 3562   1.070   5.572   7.299 -0.8911  1.4031  0.3794
   27SAPC   H2S 3563   1.156   5.641   7.164  1.6295  0.9597  3.3652
   27SAPC    C3 3564   1.150   5.173   7.164  0.1686 -0.2243 -0.4527
   27SAPC    HX 3565   1.153   5.072   7.118 -0.2873 -0.0199 -0.9420
   27SAPC    HY 3566   1.051   5.207   7.203  0.6606  1.1671 -0.3718
   27SAPC   O31 3567   1.248   5.180   7.265  0.0886  0.1890 -0.1065
   27SAPC   C31 3568   1.226   5.253   7.375 -0.4621  0.1260  0.0289
   27SAPC   O32 3569   1.132   5.329   7.389 -0.2429 -0.1358 -0.2304
   27SAPC   C32 3570   1.330   5.228   7.479 -0.8022  0.2234 -0.1493
   27SAPC   H2X 3571   1.395   5.318   7.483 -1.1315  0.6922 -2.9739
   27SAPC   H2Y 3572   1.391   5.142   7.444 -1.6515  0.4989 -2.5114
   27SAPC   C23 3573   0.939   5.695   7.168  0.8821  0.4798  0.2869
   27SAPC   H3R 3574   0.900   5.682   7.065 -0.9326 -2.5382  1.2311
   27SAPC   H3S 3575   0.983   5.796   7.181 -0.3586  1.3473 -1.7960
   27SAPC   C24 3576   0.822   5.670   7.265 -0.3050  0.1849 -0.6024
   27SAPC   H4R 3577   0.858   5.637   7.365  0.7607  1.8979 -0.3862
   27SAPC   H4S 3578   0.759   5.587   7.226  1.3080 -1.8810  0.9564
   27SAPC   C25 3579   0.746   5.800   7.275  0.3109 -0.4216  0.1369
   27SAPC   H5R 3580   0.690   5.821   7.182 -0.6929  0.4193  0.9052
   27SAPC   C26 3581   0.728   5.885   7.384 -0.5257  0.4739  0.1756
   27SAPC   H6R 3582   0.686   5.986   7.369 -0.5719  0.4009 -0.1790
   27SAPC   C27 3583   0.790   5.856   7.514 -0.6878  0.1457 -0.2069
   27SAPC   H7R 3584   0.823   5.952   7.559  0.3107  1.2650 -3.1360
   27SAPC   H7S 3585   0.884   5.797   7.501  0.2336  1.5271 -0.0052
   27SAPC   C28 3586   0.701   5.782   7.614 -0.1963 -0.7154  0.3266
   27SAPC   H8R 3587   0.606   5.747   7.571 -0.2516 -1.1910  0.8273
   27SAPC   C29 3588   0.732   5.734   7.739 -0.6673 -1.0717  0.4335
   27SAPC   H9R 3589   0.660   5.686   7.806 -1.1436  1.3766  1.7702
   27SAPC  C210 3590   0.866   5.749   7.799  0.5293 -0.1825 -0.3257
   27SAPC  H10R 3591   0.859   5.783   7.905  3.8095  0.0805 -0.0894
   27SAPC  H10S 3592   0.924   5.833   7.754  0.8431 -0.7562 -1.0004
   27SAPC  C211 3593   0.962   5.631   7.793 -0.4512 -0.2912 -0.1810
   27SAPC  H11R 3594   0.973   5.593   7.690  0.1451 -0.9002  0.1014
   27SAPC  C212 3595   1.013   5.568   7.899 -0.1922  0.0189 -0.9061
   27SAPC  H12R 3596   1.088   5.489   7.881  0.8919  1.1183 -1.2806
   27SAPC  C213 3597   0.978   5.586   8.047  0.1968 -0.0478 -0.0223
   27SAPC  H13R 3598   0.981   5.694   8.073  1.8083  0.3152 -1.5759
   27SAPC  H13S 3599   1.064   5.546   8.104  3.4664 -0.7198 -4.8445
   27SAPC  C214 3600   0.849   5.512   8.081 -0.2889  0.3635  0.0231
   27SAPC  H14R 3601   0.774   5.481   8.007 -2.3237  1.4415  1.5370
   27SAPC  C215 3602   0.816   5.489   8.208 -0.6390  0.8926 -0.0663
   27SAPC  H15R 3603   0.723   5.439   8.240  0.0305 -0.8395 -0.6773
   27SAPC  C216 3604   0.902   5.507   8.326 -0.2388  0.0042 -0.4157
   27SAPC  H16R 3605   1.009   5.519   8.296 -0.6521  0.9425 -1.5932
   27SAPC  H16S 3606   0.912   5.409   8.378  0.1907 -0.3999 -1.2299
   27SAPC  C217 3607   0.883   5.616   8.427 -0.0149  0.0327  0.7757
   27SAPC  H17R 3608   0.794   5.595   8.490  0.1029 -0.2835  0.8368
   27SAPC  H17S 3609   0.867   5.706   8.364 -1.2097 -1.8615 -1.7881
   27SAPC  C218 3610   1.008   5.617   8.524  0.0929  0.1166 -0.1466
   27SAPC  H18R 3611   1.023   5.706   8.588  1.7556 -0.4559  0.3206
   27SAPC  H18S 3612   1.105   5.604   8.471 -0.5495 -0.1476 -1.2870
   27SAPC  C219 3613   0.990   5.509   8.633 -0.6300 -0.3141  0.0003
   27SAPC  H19R 3614   1.094   5.486   8.666 -1.0134 -1.5520  0.3982
   27SAPC  H19S 3615   0.948   5.417   8.587 -1.2326 -0.5163  0.9342
   27SAPC  C220 3616   0.900   5.562   8.747 -0.8606 -0.0596  0.5219
   27SAPC  H20R 3617   0.804   5.607   8.713 -2.6023 -0.8445  3.9668
   27SAPC  H20S 3618   0.962   5.634   8.806  1.1081 -1.2432 -0.0140
   27SAPC  H20T 3619   0.888   5.471   8.809 -2.5378 -0.7640 -0.7531
   27SAPC   C33 3620   1.279   5.206   7.617 -0.1795 -0.1832  1.1966
   27SAPC   H3X 3621   1.191   5.139   7.610 -0.7615  0.7538 -2.3025
   27SAPC   H3Y 3622   1.242   5.301   7.661  0.1223 -0.2518  1.6028
   27SAPC   C34 3623   1.372   5.145   7.720 -0.6857  0.1794  0.4076
   27SAPC   H4X 3624   1.466   5.204   7.713 -2.1232  2.5033 -0.6253
   27SAPC   H4Y 3625   1.382   5.041   7.685 -3.0170 -0.1743  0.6412
   27SAPC   C35 3626   1.327   5.147   7.864  0.5791 -0.0228 -0.1456
   27SAPC   H5X 3627   1.225   5.108   7.884  0.5034  1.3304  2.5445
   27SAPC   H5Y 3628   1.328   5.254   7.894  4.8459  0.8257 -2.3943
   27SAPC   C36 3629   1.424   5.080   7.968  0.7643  0.1378 -0.0387
   27SAPC   H6X 3630   1.520   5.132   7.949  0.9302  0.5218  1.6414
   27SAPC   H6Y 3631   1.437   4.976   7.932 -2.0801 -0.0346 -0.8371
   27SAPC   C37 3632   1.383   5.089   8.115 -0.0053  0.2335  0.1906
   27SAPC   H7X 3633   1.460   5.040   8.178 -1.0538 -1.4341  0.2683
   27SAPC   H7Y 3634   1.289   5.034   8.141  0.9574 -1.0169  1.1716
   27SAPC   C38 3635   1.370   5.224   8.177  0.0562  0.2155 -0.6822
   27SAPC   H8X 3636   1.263   5.253   8.175 -1.2654 -3.7796  0.5654
   27SAPC   H8Y 3637   1.433   5.300   8.127 -0.4646  0.6478 -0.6846
   27SAPC   C39 3638   1.402   5.226   8.327 -0.4485 -0.3437 -0.6644
   27SAPC   H9X 3639   1.504   5.187   8.349  0.2432  1.9703  0.5542
   27SAPC   H9Y 3640   1.322   5.172   8.383 -3.1949  1.5070 -2.5496
   27SAPC  C310 3641   1.399   5.368   8.384 -0.4144 -0.3384 -0.4579
   27SAPC  H10X 3642   1.309   5.424   8.353 -0.1274  1.2473  1.3605
   27SAPC  H10Y 3643   1.485   5.425   8.343  1.4855 -1.6648  1.4818
   27SAPC  C311 3644   1.398   5.370   8.539  0.2072 -0.7056  0.2345
   27SAPC  H11X 3645   1.293   5.394   8.564  0.3008  0.8351 -0.7009
   27SAPC  H11Y 3646   1.465   5.452   8.575 -0.3147  1.0433 -2.4618
   27SAPC  C312 3647   1.458   5.249   8.611 -0.3230 -0.5951  0.3993
   27SAPC  H12X 3648   1.556   5.217   8.571  0.1977 -3.8703  3.7095
   27SAPC  H12Y 3649   1.387   5.164   8.609  0.8482 -1.5970  0.0643
   27SAPC  C313 3650   1.482   5.282   8.764  0.4703  0.9144 -0.4336
   27SAPC  H13X 3651   1.546   5.373   8.760 -2.4226  3.0448 -2.1133
   27SAPC  H13Y 3652   1.542   5.200   8.809 -0.5692  0.9075  1.0197
   27SAPC  C314 3653   1.351   5.297   8.844 -0.0739  0.1746  0.0512
   27SAPC  H14X 3654   1.284   5.209   8.838  1.5126 -1.0980  0.3650
   27SAPC  H14Y 3655   1.300   5.387   8.803 -1.3272 -1.4313 -2.0872
   27SAPC  C315 3656   1.382   5.319   8.993 -0.7044  0.1187  0.7646
   27SAPC  H15X 3657   1.429   5.419   9.003 -0.6034  0.0047  1.4661
   27SAPC  H15Y 3658   1.452   5.242   9.031  2.2364  3.0860  1.8309
   27SAPC  C316 3659   1.254   5.307   9.081  0.0241 -0.0594  0.1337
   27SAPC  H16X 3660   1.281   5.281   9.186  1.8288 -0.0647 -0.2858
   27SAPC  H16Y 3661   1.216   5.210   9.042  2.1731 -0.7629 -0.4053
   27SAPC  C317 3662   1.142   5.414   9.052  0.0012 -0.3628 -0.1359
   27SAPC  H17X 3663   1.120   5.425   8.944 -0.8833  1.4418  0.1996
   27SAPC  H17Y 3664   1.180   5.511   9.092 -2.5998  1.0297 -0.8479
   27SAPC  C318 3665   1.008   5.395   9.127  0.3064 -0.1949 -0.5013
   27SAPC  H18X 3666   1.025   5.354   9.228  1.6895 -1.3468 -1.1647
   27SAPC  H18Y 3667   0.948   5.331   9.058 -1.0984  2.8354 -2.3391
   27SAPC  H18Z 3668   0.961   5.495   9.132  0.2353 -0.2614  0.1791
   28SAPC     N 3669   1.245   0.217   6.137 -0.4692  0.3245 -0.0578
   28SAPC   C12 3670   1.143   0.296   6.214 -0.3310  0.1557  0.3366
   28SAPC  H12A 3671   1.044   0.262   6.189 -0.1161 -0.3802  0.2032
   28SAPC  H12B 3672   1.136   0.397   6.176 -1.1543 -0.3020 -0.7939
   28SAPC   C13 3673   1.257   0.074   6.187 -0.3197 -0.8467  0.5454
   28SAPC  H13A 3674   1.168   0.017   6.165 -0.2381 -0.9197  0.3977
   28SAPC  H13B 3675   1.338   0.027   6.134  0.3917 -0.1072  0.9518
   28SAPC  H13C 3676   1.281   0.072   6.292 -0.0337 -0.3508  0.4958
   28SAPC   C14 3677   1.214   0.217   5.990  0.1285  0.2600  0.0518
   28SAPC  H14A 3678   1.132   0.150   5.966  1.0834 -0.8564 -0.1460
   28SAPC  H14B 3679   1.194   0.317   5.954  0.7355 -0.6066 -2.9373
   28SAPC  H14C 3680   1.297   0.183   5.930 -0.0659 -0.1124 -0.0135
   28SAPC   C15 3681   1.386   0.272   6.150  0.4632  0.4011  0.8798
   28SAPC  H15A 3682   1.394   0.379   6.135 -1.6479  0.6190  0.8944
   28SAPC  H15B 3683   1.432   0.243   6.243  1.1209  0.6328  0.6341
   28SAPC  H15C 3684   1.440   0.234   6.065  0.7536  0.6486  0.9498
   28SAPC   C11 3685   1.147   0.296   6.368 -0.4812  1.2098 -0.2046
   28SAPC  H11A 3686   1.082   0.378   6.405 -0.6086 -0.0537  2.5787
   28SAPC  H11B 3687   1.249   0.326   6.400  0.4166 -1.8131  0.0259
   28SAPC     P 3688   0.966   0.126   6.426 -0.2539  0.5033 -0.0492
   28SAPC   O13 3689   0.926   0.070   6.297  0.3484  0.5610 -0.1550
   28SAPC   O14 3690   0.938   0.033   6.545 -0.6038 -1.0247  0.0045
   28SAPC   O12 3691   1.118   0.172   6.429 -0.4727 -0.0353  0.0309
   28SAPC   O11 3692   0.892   0.265   6.448 -0.2400 -0.2827  0.8189
   28SAPC    C1 3693   0.883   0.322   6.582  0.2877 -0.1994  0.0019
   28SAPC    HA 3694   0.984   0.313   6.627  0.0450 -1.1643  0.3930
   28SAPC    HB 3695   0.856   0.429   6.576 -1.9425 -0.6979  0.2999
   28SAPC    C2 3696   0.776   0.255   6.661  0.0379 -0.1296  0.0578
   28SAPC    HS 3697   0.809   0.153   6.691  2.0606  0.8059  1.2303
   28SAPC   O21 3698   0.658   0.266   6.583  0.2817  0.0212  0.0879
   28SAPC   C21 3699   0.618   0.153   6.526 -0.0608  0.2015  0.4164
   28SAPC   O22 3700   0.666   0.038   6.547  0.1873  0.0883 -0.2709
   28SAPC   C22 3701   0.502   0.171   6.426  0.3897 -1.1021 -0.1579
   28SAPC   H2R 3702   0.548   0.212   6.334 -1.8006 -1.2310 -1.3877
   28SAPC   H2S 3703   0.463   0.071   6.399  1.5628 -1.6054 -0.0242
   28SAPC    C3 3704   0.757   0.333   6.795 -0.2667 -0.1917  0.0416
   28SAPC    HX 3705   0.669   0.298   6.853 -0.6562 -3.0022 -2.0670
   28SAPC    HY 3706   0.724   0.436   6.768  0.2136  0.8319  2.9288
   28SAPC   O31 3707   0.879   0.340   6.870 -0.3961 -0.3512  0.6920
   28SAPC   C31 3708   0.897   0.238   6.955 -0.2852 -0.5254 -0.2321
   28SAPC   O32 3709   0.808   0.157   6.977  0.1484  0.3479  0.1437
   28SAPC   C32 3710   1.035   0.246   7.035 -0.6527 -0.0511 -0.4966
   28SAPC   H2X 3711   1.051   0.355   7.053 -2.1730  0.0809  0.2272
   28SAPC   H2Y 3712   1.105   0.208   6.958 -1.7124 -0.8716 -1.0691
   28SAPC   C23 3713   0.389   0.269   6.468 -1.1000  0.3051 -0.2843
   28SAPC   H3R 3714   0.336   0.293   6.374 -0.7655 -0.2090 -0.6106
   28SAPC   H3S 3715   0.435   0.361   6.510 -2.3101  0.6987  0.2363
   28SAPC   C24 3716   0.290   0.222   6.580 -0.2538 -0.0361  0.3462
   28SAPC   H4R 3717   0.249   0.122   6.551 -0.8475 -0.2530  1.8243
   28SAPC   H4S 3718   0.352   0.202   6.670  2.2816 -0.0654 -1.3334
   28SAPC   C25 3719   0.183   0.321   6.609 -0.4917 -0.2186 -0.4240
   28SAPC   H5R 3720   0.112   0.341   6.528 -1.5997 -3.1886 -0.3292
   28SAPC   C26 3721   0.152   0.372   6.734  0.4754  0.1973  1.0626
   28SAPC   H6R 3722   0.052   0.416   6.748 -0.4935 -1.5996  0.0685
   28SAPC   C27 3723   0.232   0.351   6.861  0.7445  0.2611 -0.3943
   28SAPC   H7R 3724   0.259   0.244   6.872 -0.3685 -0.0905 -0.9998
   28SAPC   H7S 3725   0.157   0.351   6.942  1.1475 -0.9393  0.0027
   28SAPC   C28 3726   0.344   0.445   6.874 -0.1522 -0.0076 -0.0158
   28SAPC   H8R 3727   0.368   0.505   6.784  2.2426  1.2330  1.3554
   28SAPC   C29 3728   0.427   0.461   6.978 -0.1004 -0.2536 -0.3784
   28SAPC   H9R 3729   0.507   0.536   6.967 -2.1260  1.6036 -3.8443
   28SAPC  C210 3730   0.417   0.393   7.114 -0.3030  0.1146 -0.3124
   28SAPC  H10R 3731   0.316   0.375   7.156 -0.2755  0.6843 -0.0023
   28SAPC  H10S 3732   0.440   0.471   7.189 -0.0154 -0.4709  0.2192
   28SAPC  C211 3733   0.493   0.261   7.136 -0.3145 -0.7715  0.6566
   28SAPC  H11R 3734   0.505   0.201   7.045  0.2885  0.1079  0.1442
   28SAPC  C212 3735   0.540   0.215   7.253  0.0581 -0.3631 -0.1318
   28SAPC  H12R 3736   0.595   0.121   7.259 -0.5714 -0.6452  2.4342
   28SAPC  C213 3737   0.514   0.285   7.387 -0.1054 -0.0790  0.1083
   28SAPC  H13R 3738   0.428   0.355   7.384  1.3931  1.9732  1.8043
   28SAPC  H13S 3739   0.608   0.344   7.398 -0.7526  1.2199 -1.0505
   28SAPC  C214 3740   0.501   0.186   7.497  0.2276  0.2721 -0.3301
   28SAPC  H14R 3741   0.551   0.090   7.477  2.0683  0.6924  1.8738
   28SAPC  C215 3742   0.423   0.196   7.610  0.0002 -0.1046 -0.3643
   28SAPC  H15R 3743   0.416   0.105   7.671  0.1176  0.4821  0.5481
   28SAPC  C216 3744   0.331   0.310   7.654 -0.1277  0.1374 -0.7837
   28SAPC  H16R 3745   0.226   0.277   7.646 -0.0110  0.0872 -2.9424
   28SAPC  H16S 3746   0.346   0.401   7.591 -0.2478  0.3606 -0.4912
   28SAPC  C217 3747   0.359   0.351   7.798 -0.0581 -0.1894 -0.2686
   28SAPC  H17R 3748   0.465   0.382   7.807  0.2837 -0.8321 -1.8239
   28SAPC  H17S 3749   0.340   0.263   7.863 -3.0759  0.4161 -0.1473
   28SAPC  C218 3750   0.273   0.471   7.838  0.6849 -0.7077 -0.0490
   28SAPC  H18R 3751   0.166   0.442   7.825  0.4418 -0.3818  1.1229
   28SAPC  H18S 3752   0.289   0.562   7.777 -1.6043  0.2793  0.6863
   28SAPC  C219 3753   0.294   0.511   7.980 -1.3683  0.1996 -0.1604
   28SAPC  H19R 3754   0.399   0.545   7.993 -1.0462  0.5033 -2.9090
   28SAPC  H19S 3755   0.299   0.430   8.055  1.2888 -0.0969 -0.5697
   28SAPC  C220 3756   0.209   0.631   8.014  0.0959  0.5663 -1.0064
   28SAPC  H20R 3757   0.100   0.611   8.001 -0.0989  0.8208  0.1184
   28SAPC  H20S 3758   0.233   0.710   7.940  2.5382  2.3223  1.4331
   28SAPC  H20T 3759   0.230   0.667   8.118  1.4318  0.8950 -1.3765
   28SAPC   C33 3760   1.058   0.160   7.166 -0.1573  0.1551  0.7873
   28SAPC   H3X 3761   1.160   0.192   7.194 -1.3029  2.1544  3.0864
   28SAPC   H3Y 3762   1.082   0.054   7.143 -2.5551 -0.2380 -0.2119
   28SAPC   C34 3763   0.966   0.190   7.284 -0.6656  0.0061 -0.3056
   28SAPC   H4X 3764   0.855   0.190   7.274 -0.6551  1.2482 -0.6802
   28SAPC   H4Y 3765   0.991   0.295   7.313  3.4678 -0.4546 -1.5630
   28SAPC   C35 3766   1.000   0.110   7.408  0.8478  0.0854  0.2898
   28SAPC   H5X 3767   1.102   0.138   7.441  1.1510 -1.4018  0.6821
   28SAPC   H5Y 3768   1.006   0.005   7.372 -0.4136 -0.4993  1.6647
   28SAPC   C36 3769   0.888   0.113   7.515 -0.7358 -0.1011  0.6841
   28SAPC   H6X 3770   0.793   0.091   7.462 -0.1328  0.0257 -0.4914
   28SAPC   H6Y 3771   0.881   0.213   7.561  1.6344  0.3219  0.2858
   28SAPC   C37 3772   0.913   0.003   7.620  0.3800 -0.3741  0.7179
   28SAPC   H7X 3773   1.023  -0.011   7.628  0.8347  1.8372 -0.6950
   28SAPC   H7Y 3774   0.859  -0.086   7.581  0.5195 -0.0638 -0.2078
   28SAPC   C38 3775   0.862   0.045   7.758 -0.1177  0.1560  0.5565
   28SAPC   H8X 3776   0.907   0.142   7.788 -0.7983  1.4136 -2.1849
   28SAPC   H8Y 3777   0.892  -0.025   7.839  1.5540  2.0759  1.6894
   28SAPC   C39 3778   0.711   0.058   7.762  0.4179 -0.2898  0.3506
   28SAPC   H9X 3779   0.659  -0.040   7.766 -1.0845  0.4690  0.0424
   28SAPC   H9Y 3780   0.683   0.107   7.666 -0.1259 -2.4108 -0.6455
   28SAPC  C310 3781   0.657   0.133   7.886  0.4170  0.0281  0.4491
   28SAPC  H10X 3782   0.546   0.132   7.895  0.2952 -0.8106 -0.8833
   28SAPC  H10Y 3783   0.687   0.240   7.884 -0.3213  0.2557  0.9716
   28SAPC  C311 3784   0.717   0.081   8.008 -0.2968  0.1471 -1.0443
   28SAPC  H11X 3785   0.828   0.080   8.014 -0.3209 -3.0254  2.1061
   28SAPC  H11Y 3786   0.690  -0.026   8.016  1.2682 -0.1872  0.2856
   28SAPC  C312 3787   0.678   0.163   8.131  0.3113 -0.6822 -0.3971
   28SAPC  H12X 3788   0.728   0.262   8.129 -0.7814 -0.1088 -0.2367
   28SAPC  H12Y 3789   0.722   0.109   8.218 -1.4735 -0.8707  0.4538
   28SAPC  C313 3790   0.528   0.181   8.160  0.2562  0.3666  0.0685
   28SAPC  H13X 3791   0.475   0.245   8.086  0.6084 -0.1017 -0.6016
   28SAPC  H13Y 3792   0.519   0.221   8.263 -1.6941 -1.3978  0.6695
   28SAPC  C314 3793   0.457   0.041   8.159  0.3288 -0.4992  0.0670
   28SAPC  H14X 3794   0.521  -0.027   8.220  0.9605 -1.9805 -2.1295
   28SAPC  H14Y 3795   0.458   0.005   8.054  2.3006 -1.6674  0.4390
   28SAPC  C315 3796   0.306   0.037   8.195  0.1242 -0.3335  0.0883
   28SAPC  H15X 3797   0.282   0.101   8.282 -0.0558  1.2668 -1.0858
   28SAPC  H15Y 3798   0.275  -0.068   8.211 -1.5270  0.3098  1.3772
   28SAPC  C316 3799   0.219   0.097   8.086  0.4733 -0.2733  0.7101
   28SAPC  H16X 3800   0.237   0.048   7.988 -0.4947  1.4652 -0.3978
   28SAPC  H16Y 3801   0.250   0.203   8.076  0.0593 -0.3210 -1.6452
   28SAPC  C317 3802   0.067   0.086   8.116  0.7303  1.0474  0.4325
   28SAPC  H17X 3803   0.030   0.165   8.185 -1.6032  1.9680 -1.7420
   28SAPC  H17Y 3804   0.046  -0.005   8.176  0.5545  0.6023 -0.2940
   28SAPC  C318 3805  -0.015   0.087   7.991  0.9151  0.1674  1.3285
   28SAPC  H18X 3806   0.042   0.036   7.910 -1.5132 -2.0670  0.9023
   28SAPC  H18Y 3807  -0.029   0.193   7.964  0.8887  0.5004  2.5780
   28SAPC  H18Z 3808  -0.109   0.029   7.999  0.4640  0.2182 -2.0575
   29SAPC     N 3809   2.262   5.247   6.092 -0.1179  0.5813  0.5530
   29SAPC   C12 3810   2.332   5.194   6.213  0.0297 -0.6081  0.0291
   29SAPC  H12A 3811   2.368   5.093   6.198 -3.2771 -2.0031  0.5966
   29SAPC  H12B 3812   2.270   5.177   6.299  0.4668 -0.2007  0.4333
   29SAPC   C13 3813   2.140   5.162   6.055 -0.1431  0.0970 -0.2516
   29SAPC  H13A 3814   2.170   5.058   6.050  0.4328  0.2169  0.5691
   29SAPC  H13B 3815   2.063   5.168   6.131 -0.0777 -1.7552  0.0072
   29SAPC  H13C 3816   2.094   5.204   5.967 -1.2124 -0.2071  0.1492
   29SAPC   C14 3817   2.211   5.385   6.122  0.1201 -0.3809 -0.8794
   29SAPC  H14A 3818   2.167   5.374   6.220 -0.3397  0.7298 -0.9480
   29SAPC  H14B 3819   2.296   5.450   6.136  0.0799 -0.3066 -0.9782
   29SAPC  H14C 3820   2.147   5.435   6.051 -0.1890  1.0732  0.3653
   29SAPC   C15 3821   2.365   5.254   5.981 -0.0585  0.6243 -0.3367
   29SAPC  H15A 3822   2.398   5.158   5.946 -1.9027 -0.3485  0.4435
   29SAPC  H15B 3823   2.326   5.306   5.894 -1.1637  0.4620  0.0407
   29SAPC  H15C 3824   2.452   5.306   6.018 -1.8782  3.4976  0.2670
   29SAPC   C11 3825   2.452   5.276   6.280  0.3765 -0.5982 -0.3176
   29SAPC  H11A 3826   2.482   5.238   6.380  0.1102  2.4233  1.0228
   29SAPC  H11B 3827   2.409   5.378   6.292 -1.9054 -0.8804 -4.3459
   29SAPC     P 3828   2.690   5.203   6.193 -0.1404 -0.2452 -0.2678
   29SAPC   O13 3829   2.658   5.066   6.151  1.1018 -0.4488  0.3476
   29SAPC   O14 3830   2.803   5.268   6.117  0.2286  0.0175  1.1158
   29SAPC   O12 3831   2.565   5.300   6.189  0.0102  0.2440 -0.0715
   29SAPC   O11 3832   2.727   5.204   6.347 -0.6906  0.0157 -0.0677
   29SAPC    C1 3833   2.708   5.084   6.418  0.0368  0.2505 -0.0685
   29SAPC    HA 3834   2.599   5.066   6.435  0.3740 -2.8544 -0.7258
   29SAPC    HB 3835   2.748   4.993   6.369  1.2462  1.4254 -1.3288
   29SAPC    C2 3836   2.770   5.093   6.560 -0.8749  0.4345 -0.2158
   29SAPC    HS 3837   2.736   5.004   6.617 -1.2310  0.8632  0.2502
   29SAPC   O21 3838   2.720   5.216   6.630 -0.9197 -0.7214 -0.1828
   29SAPC   C21 3839   2.594   5.215   6.673  0.5249 -0.0518 -0.1824
   29SAPC   O22 3840   2.522   5.115   6.677  0.2086 -0.2108 -0.1472
   29SAPC   C22 3841   2.557   5.355   6.711 -0.4750  0.4817 -0.0137
   29SAPC   H2R 3842   2.570   5.424   6.624  2.5809  0.0748  0.0107
   29SAPC   H2S 3843   2.451   5.359   6.743  0.0609  1.4048  1.7492
   29SAPC    C3 3844   2.931   5.092   6.550  0.4937 -0.8832  0.3193
   29SAPC    HX 3845   2.965   5.171   6.480 -3.3045  0.3715 -0.3792
   29SAPC    HY 3846   2.968   4.997   6.508 -0.5315 -1.6360  1.0494
   29SAPC   O31 3847   2.995   5.098   6.677 -0.4353 -0.4077 -0.4063
   29SAPC   C31 3848   3.023   5.222   6.728 -0.4020  0.4079 -0.1653
   29SAPC   O32 3849   3.001   5.328   6.681  0.1588  0.0169 -0.3706
   29SAPC   C32 3850   3.113   5.192   6.848  0.0869 -0.5975  0.1790
   29SAPC   H2X 3851   3.193   5.268   6.835  0.3813 -1.4122 -4.4113
   29SAPC   H2Y 3852   3.146   5.086   6.840  0.9142 -0.2252 -1.8688
   29SAPC   C23 3853   2.625   5.395   6.835 -0.3552  0.1447 -1.7669
   29SAPC   H3R 3854   2.587   5.491   6.877 -0.6968 -1.0793  0.9301
   29SAPC   H3S 3855   2.734   5.415   6.820  0.2919 -0.3750  1.3589
   29SAPC   C24 3856   2.640   5.287   6.943  0.0565 -0.1463  0.3243
   29SAPC   H4R 3857   2.701   5.329   7.025 -0.4446  1.3457 -0.0418
   29SAPC   H4S 3858   2.694   5.198   6.904  0.6744 -0.3246  1.5305
   29SAPC   C25 3859   2.511   5.254   7.004  0.1160  0.3988 -0.1232
   29SAPC   H5R 3860   2.441   5.195   6.944  0.3382  0.3605 -0.3463
   29SAPC   C26 3861   2.474   5.282   7.134 -0.4440 -0.1022  0.3337
   29SAPC   H6R 3862   2.375   5.249   7.170  0.2427  0.0963  2.5875
   29SAPC   C27 3863   2.554   5.360   7.244  0.4240 -0.1341 -0.1615
   29SAPC   H7R 3864   2.654   5.378   7.201 -0.1938  3.2793 -0.4194
   29SAPC   H7S 3865   2.564   5.300   7.337 -1.0456 -0.7710 -0.3865
   29SAPC   C28 3866   2.484   5.487   7.279 -0.1862  1.6079  0.7804
   29SAPC   H8R 3867   2.442   5.545   7.196 -0.1467 -0.5203 -0.8090
   29SAPC   C29 3868   2.455   5.529   7.406 -0.0063 -0.0893  0.4612
   29SAPC   H9R 3869   2.384   5.612   7.412  2.1515  1.9732 -0.8594
   29SAPC  C210 3870   2.490   5.472   7.542  0.0135  0.4803 -0.5306
   29SAPC  H10R 3871   2.480   5.362   7.547  2.3506  0.2781  1.9361
   29SAPC  H10S 3872   2.424   5.506   7.625  0.3770 -0.5016  0.1797
   29SAPC  C211 3873   2.635   5.509   7.579  0.3615 -0.9854  0.2701
   29SAPC  H11R 3874   2.699   5.526   7.491 -1.0485  1.2920 -0.4013
   29SAPC  C212 3875   2.693   5.517   7.699 -0.9887 -0.1041 -0.0630
   29SAPC  H12R 3876   2.795   5.557   7.708 -0.2928 -1.9368  0.8039
   29SAPC  C213 3877   2.629   5.488   7.832  0.6807 -0.6777 -0.4185
   29SAPC  H13R 3878   2.523   5.459   7.815  0.1136 -0.1150  1.9042
   29SAPC  H13S 3879   2.621   5.587   7.881 -1.2268 -1.3196  0.6634
   29SAPC  C214 3880   2.699   5.389   7.917  0.3244  0.3685 -0.1045
   29SAPC  H14R 3881   2.780   5.343   7.857  1.4992  1.1147  0.8566
   29SAPC  C215 3882   2.662   5.352   8.036  0.2208  0.3066  0.2003
   29SAPC  H15R 3883   2.728   5.295   8.102  1.6598  1.6641 -0.0212
   29SAPC  C216 3884   2.537   5.400   8.111  0.2185 -1.4626  0.1558
   29SAPC  H16R 3885   2.467   5.314   8.103  0.0233 -1.5632  2.2397
   29SAPC  H16S 3886   2.487   5.486   8.061  0.7807  0.0790  2.1143
   29SAPC  C217 3887   2.552   5.438   8.263  0.6165 -0.1447  0.6273
   29SAPC  H17R 3888   2.642   5.503   8.266  2.2217 -2.1271 -1.0980
   29SAPC  H17S 3889   2.584   5.347   8.318  1.4856 -0.7576 -0.8140
   29SAPC  C218 3890   2.430   5.510   8.312 -0.5421 -0.8540 -1.4273
   29SAPC  H18R 3891   2.347   5.439   8.332  0.3319 -1.6230 -0.4218
   29SAPC  H18S 3892   2.400   5.584   8.235  2.2266  1.3671 -0.5636
   29SAPC  C219 3893   2.454   5.605   8.436 -0.0280  0.5507 -0.0902
   29SAPC  H19R 3894   2.513   5.696   8.409 -1.2217  2.3396  2.8524
   29SAPC  H19S 3895   2.523   5.543   8.496  0.3554 -0.5358 -1.5828
   29SAPC  C220 3896   2.330   5.653   8.512 -0.2187  0.0526 -0.2495
   29SAPC  H20R 3897   2.350   5.711   8.604  1.2704  0.4528 -0.8002
   29SAPC  H20S 3898   2.284   5.561   8.556 -1.6950  0.2656 -1.2717
   29SAPC  H20T 3899   2.262   5.707   8.443 -0.6620 -0.7816 -0.4771
   29SAPC   C33 3900   3.029   5.223   6.973  0.1844 -0.8381 -0.0966
   29SAPC   H3X 3901   2.937   5.160   6.981 -0.8623  0.6506  0.0665
   29SAPC   H3Y 3902   2.987   5.325   6.964 -0.5537 -1.1760 -0.6524
   29SAPC   C34 3903   3.107   5.213   7.101 -0.3864  0.8608  0.3582
   29SAPC   H4X 3904   3.191   5.286   7.093  0.5590 -0.3619 -1.5561
   29SAPC   H4Y 3905   3.149   5.111   7.116  0.3393  1.5176  3.7088
   29SAPC   C35 3906   3.025   5.264   7.221 -0.2889 -0.7562 -0.0412
   29SAPC   H5X 3907   2.974   5.360   7.200  1.1385  0.0152 -0.1661
   29SAPC   H5Y 3908   3.095   5.296   7.301  1.7918  1.5458 -2.5962
   29SAPC   C36 3909   2.933   5.160   7.285 -0.5406 -0.3708 -0.2256
   29SAPC   H6X 3910   2.999   5.078   7.322  0.3091 -0.9402 -2.7451
   29SAPC   H6Y 3911   2.860   5.121   7.211  0.0414 -1.6128 -0.1849
   29SAPC   C37 3912   2.851   5.220   7.398  0.5502 -0.2006  0.2036
   29SAPC   H7X 3913   2.819   5.310   7.341  0.5428  0.5957  1.4235
   29SAPC   H7Y 3914   2.917   5.257   7.478 -0.4177  3.1734 -0.4098
   29SAPC   C38 3915   2.748   5.128   7.460  0.3212 -0.1046 -0.0198
   29SAPC   H8X 3916   2.687   5.078   7.381 -1.3674 -0.4469  1.4259
   29SAPC   H8Y 3917   2.683   5.191   7.525  3.0055  1.3496  1.4519
   29SAPC   C39 3918   2.804   5.018   7.558  0.7801 -0.1486 -0.0362
   29SAPC   H9X 3919   2.897   4.971   7.518  2.4417  2.6734  0.2744
   29SAPC   H9Y 3920   2.721   4.943   7.559  0.5373  0.1050  1.8502
   29SAPC  C310 3921   2.833   5.060   7.704 -0.6683 -0.3875 -0.2770
   29SAPC  H10X 3922   2.745   5.108   7.751 -0.5320  0.7011 -1.0948
   29SAPC  H10Y 3923   2.922   5.127   7.701  1.0198 -2.1380  3.4908
   29SAPC  C311 3924   2.869   4.946   7.803  0.4725 -0.3822 -0.2832
   29SAPC  H11X 3925   2.969   4.906   7.777  0.6018  0.4115 -1.0475
   29SAPC  H11Y 3926   2.788   4.870   7.803 -0.2907  0.4001 -0.9248
   29SAPC  C312 3927   2.878   4.988   7.950 -0.1963  1.1077  0.3294
   29SAPC  H12X 3928   2.786   5.038   7.988 -1.4040 -0.1037 -0.8717
   29SAPC  H12Y 3929   2.972   5.047   7.958  1.4471 -1.2817 -0.1844
   29SAPC  C313 3930   2.904   4.871   8.046  0.5436  1.0344 -0.2501
   29SAPC  H13X 3931   2.987   4.806   8.012 -0.3842  0.0772 -0.7309
   29SAPC  H13Y 3932   2.810   4.812   8.045  2.5625 -2.4870 -1.8982
   29SAPC  C314 3933   2.942   4.915   8.182  0.4904 -0.0363 -0.1798
   29SAPC  H14X 3934   3.009   5.004   8.183 -1.8839  1.8654 -1.0929
   29SAPC  H14Y 3935   2.987   4.836   8.246 -0.6778  1.4722  2.6748
   29SAPC  C315 3936   2.815   4.950   8.263  0.1197 -0.1177  0.1236
   29SAPC  H15X 3937   2.784   4.853   8.307 -0.9776 -0.1649 -0.7028
   29SAPC  H15Y 3938   2.738   4.998   8.199  0.1743 -1.1938 -0.7649
   29SAPC  C316 3939   2.847   5.042   8.380 -0.1528  0.0288 -0.1202
   29SAPC  H16X 3940   2.932   5.013   8.445 -0.9061  0.5043  1.1116
   29SAPC  H16Y 3941   2.765   5.039   8.455  0.8495 -0.4490  0.9923
   29SAPC  C317 3942   2.870   5.187   8.338  0.4725 -0.0735  0.2597
   29SAPC  H17X 3943   2.777   5.200   8.278 -0.3091 -2.8001  0.7758
   29SAPC  H17Y 3944   2.957   5.187   8.268 -1.0901 -2.0979 -1.8460
   29SAPC  C318 3945   2.879   5.299   8.448 -0.6149  0.6332  0.1082
   29SAPC  H18X 3946   2.927   5.390   8.407 -1.0354 -0.6036 -3.5292
   29SAPC  H18Y 3947   2.929   5.258   8.539  0.0374  0.5096 -0.2987
   29SAPC  H18Z 3948   2.777   5.336   8.469 -1.3808 -0.6994 -1.0452
   30SAPC     N 3949   4.721   4.658   6.136  0.4062 -0.0505 -0.2766
   30SAPC   C12 3950   4.565   4.632   6.117  0.1084 -0.3064 -0.7271
   30SAPC  H12A 3951   4.545   4.532   6.153 -2.8235  0.9720  1.6911
   30SAPC  H12B 3952   4.541   4.635   6.012  1.0116 -1.5763 -0.9904
   30SAPC   C13 3953   4.758   4.779   6.059 -0.1464 -0.3897 -0.4741
   30SAPC  H13A 3954   4.703   4.863   6.096  0.8064 -0.5282  1.4088
   30SAPC  H13B 3955   4.861   4.808   6.078 -0.8366  0.0303  3.6200
   30SAPC  H13C 3956   4.735   4.760   5.955 -2.5511  1.0162 -0.2513
   30SAPC   C14 3957   4.756   4.701   6.277  0.0644 -0.1008  0.0709
   30SAPC  H14A 3958   4.689   4.777   6.314 -2.1954 -2.0192  0.1020
   30SAPC  H14B 3959   4.754   4.624   6.352  2.0980  0.9732  1.3372
   30SAPC  H14C 3960   4.860   4.731   6.278 -0.4051  1.6066  0.4032
   30SAPC   C15 3961   4.791   4.543   6.080  1.0783  0.0660  1.0934
   30SAPC  H15A 3962   4.768   4.444   6.118  1.3912 -0.9909 -1.2979
   30SAPC  H15B 3963   4.773   4.532   5.974  0.0015  1.7093  1.0689
   30SAPC  H15C 3964   4.899   4.554   6.084  1.0654  1.9480 -1.3562
   30SAPC   C11 3965   4.460   4.722   6.183 -0.2847  0.0881  0.4234
   30SAPC  H11A 3966   4.484   4.745   6.289  2.5470 -1.4487  0.1976
   30SAPC  H11B 3967   4.363   4.667   6.180 -0.1439 -0.4423  3.1252
   30SAPC     P 3968   4.397   4.867   5.973  0.0166  0.2848  0.3641
   30SAPC   O13 3969   4.424   5.007   5.929 -0.4860 -0.0305 -0.8199
   30SAPC   O14 3970   4.445   4.755   5.889 -0.2291  0.0308  0.0877
   30SAPC   O12 3971   4.457   4.848   6.114  0.1061  0.2770 -0.1058
   30SAPC   O11 3972   4.241   4.844   5.996  1.3649 -0.1984 -0.3935
   30SAPC    C1 3973   4.142   4.952   5.979  0.3375 -0.1194  0.6376
   30SAPC    HA 3974   4.146   4.986   5.873  2.4205 -2.1879 -0.0269
   30SAPC    HB 3975   4.042   4.909   5.999  1.1037 -1.2672  2.1842
   30SAPC    C2 3976   4.160   5.066   6.071 -0.6770  0.0974 -0.7015
   30SAPC    HS 3977   4.246   5.134   6.051 -1.3632  1.8768  1.8088
   30SAPC   O21 3978   4.164   5.004   6.200  0.4059  0.7383  0.3969
   30SAPC   C21 3979   4.261   5.057   6.277  0.4804 -0.6838 -0.1550
   30SAPC   O22 3980   4.324   5.158   6.256  0.1405  0.0830  0.1037
   30SAPC   C22 3981   4.275   4.970   6.405 -0.1227 -0.5395  0.1967
   30SAPC   H2R 3982   4.184   4.988   6.465 -1.4764 -0.0404 -1.9231
   30SAPC   H2S 3983   4.282   4.865   6.368  2.0866 -0.1424 -0.6675
   30SAPC    C3 3984   4.029   5.159   6.069 -0.6643  0.0485 -0.9266
   30SAPC    HX 3985   3.957   5.082   6.103 -0.1384  0.4671  1.2955
   30SAPC    HY 3986   4.015   5.201   5.967  1.8182 -0.1532 -1.4179
   30SAPC   O31 3987   4.033   5.259   6.180 -0.0815  0.0573  0.6439
   30SAPC   C31 3988   3.945   5.354   6.164 -0.7418  0.1567 -0.3888
   30SAPC   O32 3989   3.885   5.384   6.063 -0.3668 -0.2871  0.7961
   30SAPC   C32 3990   3.942   5.439   6.296 -0.4166  0.1003 -0.2886
   30SAPC   H2X 3991   3.836   5.435   6.328 -1.0698  2.4642 -1.8957
   30SAPC   H2Y 3992   3.948   5.546   6.265 -2.4093 -0.3494 -2.4973
   30SAPC   C23 3993   4.407   4.990   6.476  0.6343 -0.0159  0.8276
   30SAPC   H3R 3994   4.410   5.089   6.526 -0.7772  0.7722 -0.5696
   30SAPC   H3S 3995   4.497   4.990   6.410  0.3968 -3.1906  0.3515
   30SAPC   C24 3996   4.435   4.884   6.581 -0.3284 -0.2544  0.5353
   30SAPC   H4R 3997   4.532   4.913   6.626 -1.0287  1.5106  0.9690
   30SAPC   H4S 3998   4.455   4.790   6.525  0.1218  0.0750  0.1380
   30SAPC   C25 3999   4.326   4.877   6.685  0.2357 -0.1551  0.0443
   30SAPC   H5R 4000   4.223   4.902   6.654  0.1569  0.9326  1.1347
   30SAPC   C26 4001   4.336   4.837   6.816  0.2192 -0.3679 -0.6133
   30SAPC   H6R 4002   4.248   4.846   6.882 -0.0377 -0.3221 -0.9609
   30SAPC   C27 4003   4.467   4.797   6.881 -0.4529  0.1205  0.1111
   30SAPC   H7R 4004   4.556   4.813   6.816 -1.0426  0.8420 -0.5251
   30SAPC   H7S 4005   4.470   4.687   6.896  0.7197  0.0545 -0.5069
   30SAPC   C28 4006   4.484   4.860   7.022 -0.1818 -0.3432  0.7221
   30SAPC   H8R 4007   4.420   4.946   7.048  2.1195  2.1367 -1.2545
   30SAPC   C29 4008   4.583   4.839   7.109  0.1456  0.4427 -0.0682
   30SAPC   H9R 4009   4.591   4.892   7.206  0.7550  1.4273 -0.6382
   30SAPC  C210 4010   4.695   4.746   7.085 -0.3408 -0.5191 -0.2803
   30SAPC  H10R 4011   4.738   4.752   6.983  0.7792 -0.1635  0.1968
   30SAPC  H10S 4012   4.661   4.642   7.107  0.0033 -0.1480  2.4109
   30SAPC  C211 4013   4.806   4.754   7.185 -0.2240 -0.8952  0.8229
   30SAPC  H11R 4014   4.770   4.761   7.288 -3.1965 -1.2208 -0.0931
   30SAPC  C212 4015   4.938   4.762   7.166  0.9947  0.4682 -0.0701
   30SAPC  H12R 4016   4.999   4.764   7.257  0.8002  0.9543  0.0545
   30SAPC  C213 4017   5.024   4.759   7.038  0.8907 -0.1389 -0.3412
   30SAPC  H13R 4018   5.075   4.857   7.039  0.4720  0.0803  0.2180
   30SAPC  H13S 4019   4.955   4.747   6.951  1.7043 -2.5503 -0.7415
   30SAPC  C214 4020   5.123   4.642   7.044 -0.3397  0.7025 -0.0530
   30SAPC  H14R 4021   5.088   4.542   7.070  3.0945 -0.0966  2.2667
   30SAPC  C215 4022   5.255   4.654   7.039  0.0581  0.4074 -0.0192
   30SAPC  H15R 4023   5.298   4.555   7.022 -0.9468 -0.0324 -0.0528
   30SAPC  C216 4024   5.345   4.775   7.018 -0.3333 -0.3464 -0.0283
   30SAPC  H16R 4025   5.298   4.875   7.027  0.1460 -0.1671  0.4821
   30SAPC  H16S 4026   5.366   4.772   6.909 -2.0001 -1.8059 -0.3641
   30SAPC  C217 4027   5.478   4.765   7.090  0.0136  0.0372 -0.7413
   30SAPC  H17R 4028   5.466   4.694   7.174 -0.6449  2.9317  1.7844
   30SAPC  H17S 4029   5.505   4.861   7.139 -1.2040  1.4570 -2.7157
   30SAPC  C218 4030   5.598   4.748   6.991 -0.5004 -0.0409 -0.5724
   30SAPC  H18R 4031   5.572   4.810   6.903 -3.4808  0.0163  0.2608
   30SAPC  H18S 4032   5.582   4.642   6.963 -0.2287 -1.1785  3.0991
   30SAPC  C219 4033   5.741   4.772   7.047  1.2521  0.3230  0.3283
   30SAPC  H19R 4034   5.740   4.716   7.143 -0.3983  1.0329  0.7526
   30SAPC  H19S 4035   5.759   4.877   7.078  0.7670  0.2640  0.8202
   30SAPC  C220 4036   5.847   4.727   6.947 -0.1668 -0.6135  0.3492
   30SAPC  H20R 4037   5.855   4.806   6.870 -4.5042 -0.3074 -0.0385
   30SAPC  H20S 4038   5.823   4.629   6.899  0.6975 -0.1989 -0.9842
   30SAPC  H20T 4039   5.938   4.698   7.005  0.0218 -1.1488 -0.1981
   30SAPC   C33 4040   4.038   5.407   6.405  0.2773  0.8153 -0.5612
   30SAPC   H3X 4041   4.053   5.492   6.476 -0.0808 -0.2259  0.8037
   30SAPC   H3Y 4042   4.137   5.373   6.367 -0.5979 -1.1778 -1.1547
   30SAPC   C34 4043   3.974   5.297   6.489 -0.9795 -0.6299 -0.6557
   30SAPC   H4X 4044   3.952   5.211   6.421 -3.4613 -0.4609 -0.1846
   30SAPC   H4Y 4045   3.873   5.323   6.528 -1.7794 -0.5179 -2.6646
   30SAPC   C35 4046   4.063   5.249   6.607  0.1584 -0.1751 -0.2363
   30SAPC   H5X 4047   4.084   5.343   6.663 -2.0423 -0.0160  0.4311
   30SAPC   H5Y 4048   4.162   5.213   6.573  0.1402  1.7535 -2.5575
   30SAPC   C36 4049   4.000   5.145   6.699  1.2214 -0.6916  0.0847
   30SAPC   H6X 4050   4.004   5.043   6.654  0.0758  0.1839 -2.1726
   30SAPC   H6Y 4051   3.898   5.172   6.731  1.4091  2.3651 -1.5123
   30SAPC   C37 4052   4.080   5.132   6.827  0.1344 -0.2219  1.5396
   30SAPC   H7X 4053   4.122   5.229   6.861 -1.4640  1.1197 -0.1229
   30SAPC   H7Y 4054   4.166   5.066   6.801  0.2337  1.0416 -1.7426
   30SAPC   C38 4055   3.989   5.087   6.941  0.2272 -0.3342 -0.2409
   30SAPC   H8X 4056   3.922   5.002   6.916 -0.1112 -0.2292  0.2923
   30SAPC   H8Y 4057   3.921   5.169   6.972  0.8276 -0.2360  0.8877
   30SAPC   C39 4058   4.084   5.043   7.053  0.4210 -0.2219 -0.1536
   30SAPC   H9X 4059   4.170   5.113   7.063  0.0718 -0.0387  1.9492
   30SAPC   H9Y 4060   4.122   4.944   7.021 -1.1713 -0.3717 -1.7810
   30SAPC  C310 4061   4.017   5.021   7.189 -0.1339  0.2514  1.1571
   30SAPC  H10X 4062   3.934   4.952   7.163  0.5612  0.2326 -1.2744
   30SAPC  H10Y 4063   3.979   5.115   7.234  0.3716 -0.1139  2.4027
   30SAPC  C311 4064   4.107   4.954   7.290  0.2325  0.1156  0.1512
   30SAPC  H11X 4065   4.201   5.014   7.294  0.6637 -0.3757 -1.6915
   30SAPC  H11Y 4066   4.146   4.857   7.254  1.0766 -0.7277  3.1055
   30SAPC  C312 4067   4.059   4.956   7.435 -0.1010 -0.0760 -0.1512
   30SAPC  H12X 4068   3.970   4.889   7.437  0.3327 -0.6690 -0.5316
   30SAPC  H12Y 4069   4.024   5.057   7.467  3.0252  0.6026  1.5748
   30SAPC  C313 4070   4.151   4.906   7.545  0.2403 -0.3733 -0.6001
   30SAPC  H13X 4071   4.185   4.804   7.516 -0.9291 -1.7226  2.3663
   30SAPC  H13Y 4072   4.086   4.900   7.634 -0.1277  1.4369 -0.7134
   30SAPC  C314 4073   4.264   4.998   7.576  0.2458 -0.1229  0.1489
   30SAPC  H14X 4074   4.224   5.102   7.574  0.6884  0.0768  1.2084
   30SAPC  H14Y 4075   4.334   4.984   7.491 -0.5528  0.6206 -0.6629
   30SAPC  C315 4076   4.316   4.977   7.718 -0.2252  0.4952 -0.2461
   30SAPC  H15X 4077   4.424   4.998   7.702 -0.3023  1.1353  0.0547
   30SAPC  H15Y 4078   4.307   4.871   7.751  1.2700  0.7440  1.0997
   30SAPC  C316 4079   4.258   5.072   7.817  0.0617 -0.1396 -0.8118
   30SAPC  H16X 4080   4.148   5.056   7.823  0.0271  0.3797  0.2373
   30SAPC  H16Y 4081   4.275   5.177   7.786 -3.1169  1.2092  1.4858
   30SAPC  C317 4082   4.316   5.061   7.954 -0.3470 -0.1921  0.2313
   30SAPC  H17X 4083   4.416   5.110   7.957  0.2504 -1.0461 -2.5879
   30SAPC  H17Y 4084   4.335   4.954   7.979  1.5954  0.2424  0.7679
   30SAPC  C318 4085   4.233   5.112   8.068  0.2659 -0.2649 -0.7952
   30SAPC  H18X 4086   4.298   5.127   8.157 -0.3395 -2.9679  0.1800
   30SAPC  H18Y 4087   4.158   5.036   8.098 -0.7683  0.4001 -1.6504
   30SAPC  H18Z 4088   4.179   5.208   8.050 -1.2773 -1.3822 -2.4771
   31SAPC     N 4089   6.790   4.785   6.169  0.2471 -0.4970 -0.1349
   31SAPC   C12 4090   6.711   4.914   6.148  0.8178 -0.1927 -0.5141
   31SAPC  H12A 4091   6.637   4.909   6.069 -0.0053  0.2772  0.2003
   31SAPC  H12B 4092   6.774   4.994   6.114  0.3321 -0.4748 -2.1720
   31SAPC   C13 4093   6.906   4.787   6.071  0.2249  0.1185  0.3494
   31SAPC  H13A 4094   6.968   4.700   6.090 -3.6945 -2.9169  0.6714
   31SAPC  H13B 4095   6.874   4.782   5.968  0.7326 -2.8099  0.2368
   31SAPC  H13C 4096   6.965   4.876   6.087  1.3559 -0.3148 -1.1984
   31SAPC   C14 4097   6.856   4.782   6.308  0.1298 -0.2936  0.5012
   31SAPC  H14A 4098   6.930   4.860   6.315 -1.0042  1.1590 -2.1247
   31SAPC  H14B 4099   6.780   4.804   6.381  0.3837  0.6752  0.4847
   31SAPC  H14C 4100   6.898   4.684   6.328  1.2312  0.3083  1.1904
   31SAPC   C15 4101   6.697   4.669   6.159  0.1757  0.2893  0.6088
   31SAPC  H15A 4102   6.654   4.665   6.059  3.6151 -2.4441 -0.9803
   31SAPC  H15B 4103   6.746   4.573   6.157 -0.0553  0.1685 -1.3382
   31SAPC  H15C 4104   6.617   4.669   6.231  0.7461 -1.1719  1.2766
   31SAPC   C11 4105   6.633   4.972   6.270 -0.2350  0.2546  0.3865
   31SAPC  H11A 4106   6.578   5.062   6.236 -1.6280 -0.3756  0.9096
   31SAPC  H11B 4107   6.700   5.015   6.348 -0.4491  1.2036  0.0605
   31SAPC     P 4108   6.512   4.893   6.484 -0.3190 -0.0840  0.0012
   31SAPC   O13 4109   6.384   4.825   6.505 -0.7076 -0.2594 -0.1102
   31SAPC   O14 4110   6.629   4.835   6.556  0.0711  0.0985 -0.4164
   31SAPC   O12 4111   6.536   4.881   6.318 -0.1158  0.2651 -0.2842
   31SAPC   O11 4112   6.504   5.054   6.512  0.4506  0.2306 -0.1631
   31SAPC    C1 4113   6.582   5.124   6.608 -0.6248  0.0278 -0.3662
   31SAPC    HA 4114   6.688   5.091   6.602  0.7336  3.0031  3.1640
   31SAPC    HB 4115   6.583   5.231   6.581 -1.6917  0.2833  0.5302
   31SAPC    C2 4116   6.541   5.102   6.756  0.1257 -0.8487  0.2663
   31SAPC    HS 4117   6.530   4.995   6.781 -0.6051 -1.2575 -1.6350
   31SAPC   O21 4118   6.414   5.170   6.777  0.2961  0.4457  0.2278
   31SAPC   C21 4119   6.317   5.095   6.822 -0.8431  0.5072  0.4264
   31SAPC   O22 4120   6.329   4.974   6.843 -0.2188  0.1895  0.4383
   31SAPC   C22 4121   6.186   5.173   6.835  0.2151  0.0300 -0.4056
   31SAPC   H2R 4122   6.206   5.269   6.887  1.7579 -0.0450 -0.8040
   31SAPC   H2S 4123   6.151   5.192   6.732 -2.5138  0.7713  0.5691
   31SAPC    C3 4124   6.638   5.166   6.864  0.1578  0.3745 -0.0070
   31SAPC    HX 4125   6.636   5.275   6.845  0.6507  0.0752 -2.0136
   31SAPC    HY 4126   6.743   5.135   6.842 -0.2070 -1.9291  1.1824
   31SAPC   O31 4127   6.601   5.129   6.996 -0.4694 -0.5053 -0.3013
   31SAPC   C31 4128   6.643   5.006   7.031  0.7223  0.2761  0.3606
   31SAPC   O32 4129   6.717   4.934   6.969 -0.0728 -0.1260 -0.0818
   31SAPC   C32 4130   6.591   4.998   7.171 -0.1168 -0.1431  1.2248
   31SAPC   H2X 4131   6.481   5.012   7.174 -0.4087 -2.1047  0.6549
   31SAPC   H2Y 4132   6.653   5.077   7.220 -0.7119  1.4134 -0.4106
   31SAPC   C23 4133   6.071   5.099   6.913 -0.1587  0.1484  0.3870
   31SAPC   H3R 4134   6.056   4.997   6.871  0.3638  0.2151  0.0367
   31SAPC   H3S 4135   5.978   5.158   6.897  0.4203  1.2781  1.0842
   31SAPC   C24 4136   6.091   5.102   7.067 -0.0686  0.0211 -0.2728
   31SAPC   H4R 4137   6.108   5.207   7.101  2.5484 -0.7467  1.0838
   31SAPC   H4S 4138   6.180   5.038   7.086 -0.4914 -0.3763  0.3954
   31SAPC   C25 4139   5.972   5.051   7.140 -0.2897  0.0278 -0.2165
   31SAPC   H5R 4140   5.889   5.123   7.137 -0.5108 -0.2534 -1.5007
   31SAPC   C26 4141   5.971   4.946   7.223 -0.2374 -0.7034 -0.4123
   31SAPC   H6R 4142   5.876   4.905   7.258 -1.2046  1.5924 -0.1450
   31SAPC   C27 4143   6.089   4.853   7.248 -0.2404 -0.0063  0.2770
   31SAPC   H7R 4144   6.171   4.902   7.305 -1.0848  2.6945 -0.6749
   31SAPC   H7S 4145   6.125   4.821   7.148  1.6615  1.7246  0.3327
   31SAPC   C28 4146   6.047   4.724   7.315 -0.0587 -0.3770  0.1059
   31SAPC   H8R 4147   6.015   4.645   7.245 -0.5005 -0.2593  0.1729
   31SAPC   C29 4148   6.048   4.701   7.451 -0.2227  0.0496  0.3597
   31SAPC   H9R 4149   6.022   4.601   7.487 -0.6047 -0.1262 -0.3966
   31SAPC  C210 4150   6.097   4.783   7.561  0.3228 -0.0921 -0.2454
   31SAPC  H10R 4151   6.170   4.857   7.523  0.8284 -0.4675 -0.0117
   31SAPC  H10S 4152   6.161   4.726   7.631 -0.8797 -2.5350 -1.0175
   31SAPC  C211 4153   5.991   4.855   7.641 -1.1687  0.6489  0.8700
   31SAPC  H11R 4154   5.950   4.947   7.596 -0.8507  0.1056 -0.5852
   31SAPC  C212 4155   5.970   4.841   7.767  0.6851  0.1338 -0.7525
   31SAPC  H12R 4156   5.889   4.898   7.814  1.1999  2.3964 -2.4454
   31SAPC  C213 4157   6.032   4.735   7.850  1.2294  0.2065  0.1969
   31SAPC  H13R 4158   6.015   4.764   7.956  1.1913  0.6868  0.0616
   31SAPC  H13S 4159   6.143   4.742   7.851  1.2123  0.4587  1.2091
   31SAPC  C214 4160   5.991   4.592   7.826  0.3999 -0.1378  0.0193
   31SAPC  H14R 4161   5.926   4.573   7.738  1.0647 -0.3296 -0.4370
   31SAPC  C215 4162   6.004   4.488   7.906 -0.8957  0.4307  0.7168
   31SAPC  H15R 4163   5.975   4.387   7.873  1.9766 -0.5394  0.8389
   31SAPC  C216 4164   6.064   4.489   8.043 -0.7209 -0.2337 -0.0450
   31SAPC  H16R 4165   6.105   4.587   8.074 -1.4174  0.1448 -0.3107
   31SAPC  H16S 4166   6.157   4.428   8.054 -0.2241  0.4491 -0.3689
   31SAPC  C217 4167   5.968   4.423   8.137  0.2560 -1.6412 -0.0890
   31SAPC  H17R 4168   5.868   4.472   8.136  1.7033  1.5374 -0.8540
   31SAPC  H17S 4169   5.997   4.435   8.243 -0.4018  1.4235 -0.1541
   31SAPC  C218 4170   5.943   4.273   8.106  0.0692  0.0295  0.2580
   31SAPC  H18R 4171   6.034   4.216   8.135  0.0360 -1.9865 -3.0794
   31SAPC  H18S 4172   5.902   4.250   8.006 -0.4738  0.6563  0.3307
   31SAPC  C219 4173   5.829   4.222   8.198 -0.1018 -0.0858 -0.0036
   31SAPC  H19R 4174   5.802   4.123   8.155 -0.9263 -0.3464  1.0585
   31SAPC  H19S 4175   5.736   4.283   8.195 -0.0337  0.0174 -0.0103
   31SAPC  C220 4176   5.852   4.208   8.348 -0.4499  0.2242 -0.3408
   31SAPC  H20R 4177   5.775   4.169   8.417  2.2297 -2.0706  1.5638
   31SAPC  H20S 4178   5.882   4.311   8.380 -0.6649 -0.0440  0.7732
   31SAPC  H20T 4179   5.933   4.132   8.360 -0.3698  0.2282 -0.8299
   31SAPC   C33 4180   6.627   4.860   7.232 -0.0798 -0.4463  0.0753
   31SAPC   H3X 4181   6.737   4.864   7.241 -0.0750 -0.2289 -0.0601
   31SAPC   H3Y 4182   6.604   4.767   7.176 -1.0493 -0.3603  0.3102
   31SAPC   C34 4183   6.566   4.863   7.372 -0.6805  0.6619 -0.3838
   31SAPC   H4X 4184   6.456   4.871   7.366 -0.7630  1.5232  1.6521
   31SAPC   H4Y 4185   6.593   4.956   7.427 -0.2653  2.5925 -3.5844
   31SAPC   C35 4186   6.613   4.737   7.443 -0.2154  0.3280  0.3626
   31SAPC   H5X 4187   6.719   4.752   7.473 -0.4541  2.3424  0.3665
   31SAPC   H5Y 4188   6.596   4.663   7.362  1.2522  1.4736 -1.0526
   31SAPC   C36 4189   6.530   4.693   7.559 -0.6711 -0.2022  0.1331
   31SAPC   H6X 4190   6.421   4.702   7.540 -0.9613 -1.8357  0.8641
   31SAPC   H6Y 4191   6.550   4.751   7.652 -2.4482 -0.1122  0.4895
   31SAPC   C37 4192   6.549   4.544   7.598  0.0284 -0.1666  0.2337
   31SAPC   H7X 4193   6.650   4.527   7.639  0.9310  2.0324 -0.9047
   31SAPC   H7Y 4194   6.528   4.472   7.516  1.3695 -3.3981  2.5209
   31SAPC   C38 4195   6.452   4.520   7.711 -0.2763 -0.5867  0.2707
   31SAPC   H8X 4196   6.346   4.508   7.678 -0.3595 -2.4322  1.0770
   31SAPC   H8Y 4197   6.456   4.604   7.783 -0.5419 -1.0977  0.8950
   31SAPC   C39 4198   6.484   4.381   7.765  0.2729  0.2892  0.2331
   31SAPC   H9X 4199   6.585   4.394   7.811  0.3784 -0.6817  0.2916
   31SAPC   H9Y 4200   6.504   4.312   7.681  1.0170  0.1346  0.5266
   31SAPC  C310 4201   6.392   4.317   7.870 -0.3481  0.1959 -0.2071
   31SAPC  H10X 4202   6.287   4.346   7.845  0.4038  1.6184 -1.9348
   31SAPC  H10Y 4203   6.417   4.362   7.968  0.3697  0.8490 -0.6848
   31SAPC  C311 4204   6.393   4.164   7.862 -0.8256  0.2265  0.3345
   31SAPC  H11X 4205   6.392   4.125   7.758  0.7837 -0.3155  0.4995
   31SAPC  H11Y 4206   6.307   4.124   7.920  1.7974 -1.6177  3.2103
   31SAPC  C312 4207   6.514   4.106   7.937 -0.3379 -0.8653 -0.4950
   31SAPC  H12X 4208   6.601   4.140   7.878 -0.1839  0.0068  0.2239
   31SAPC  H12Y 4209   6.510   3.995   7.942 -2.1557 -0.7747  2.6896
   31SAPC  C313 4210   6.534   4.144   8.080  0.0843  0.2405  0.4688
   31SAPC  H13X 4211   6.434   4.150   8.129  0.3903  0.3197  1.0943
   31SAPC  H13Y 4212   6.566   4.251   8.077  0.7836  0.0322  0.4982
   31SAPC  C314 4213   6.641   4.062   8.149 -0.5555 -0.3765  0.1115
   31SAPC  H14X 4214   6.721   4.068   8.072  0.7685 -1.8707  1.3019
   31SAPC  H14Y 4215   6.603   3.958   8.153 -2.1363  0.0866 -1.5604
   31SAPC  C315 4216   6.690   4.106   8.291  0.0337 -0.0475 -0.1161
   31SAPC  H15X 4217   6.613   4.092   8.370 -1.1314  1.7118 -0.8992
   31SAPC  H15Y 4218   6.709   4.215   8.291 -2.5289  0.4552 -0.7316
   31SAPC  C316 4219   6.820   4.044   8.340 -0.6358  0.0101  0.4086
   31SAPC  H16X 4220   6.855   4.090   8.435 -1.0862  1.4160 -0.0772
   31SAPC  H16Y 4221   6.904   4.062   8.269  0.6478 -0.1315  1.8505
   31SAPC  C317 4222   6.811   3.894   8.356  0.1184 -0.4358  0.2319
   31SAPC  H17X 4223   6.805   3.850   8.254 -0.8498  1.8287 -0.7593
   31SAPC  H17Y 4224   6.714   3.865   8.401 -1.0809 -0.0543 -1.9590
   31SAPC  C318 4225   6.922   3.825   8.441 -0.1047 -1.0104 -0.2606
   31SAPC  H18X 4226   6.907   3.715   8.441 -0.3089 -1.0015  0.8689
   31SAPC  H18Y 4227   6.924   3.866   8.545 -1.2445  1.9190 -1.2942
   31SAPC  H18Z 4228   7.025   3.842   8.403 -0.2607 -2.2944 -1.3097
   32SAPC     N 4229   6.097   6.803   5.974  0.1637  0.1856 -0.9225
   32SAPC   C12 4230   6.032   6.685   6.041 -0.9961 -0.4316  0.1293
   32SAPC  H12A 4231   5.981   6.636   5.960 -0.1752  0.7299 -1.1441
   32SAPC  H12B 4232   5.961   6.729   6.109 -2.4113  0.2254 -1.6789
   32SAPC   C13 4233   6.193   6.769   5.869 -0.3669 -0.4188 -0.2171
   32SAPC  H13A 4234   6.278   6.723   5.917  0.1437  0.7497  0.0400
   32SAPC  H13B 4235   6.155   6.694   5.801  0.5169 -0.7423 -0.3673
   32SAPC  H13C 4236   6.230   6.858   5.820  0.8321  0.0146  1.3723
   32SAPC   C14 4237   5.983   6.884   5.904 -0.8913  0.3745 -0.3829
   32SAPC  H14A 4238   6.011   6.978   5.859 -3.3834  1.5353  0.3222
   32SAPC  H14B 4239   5.935   6.827   5.826 -3.4557  1.2662  0.4155
   32SAPC  H14C 4240   5.910   6.912   5.979 -2.3178 -1.0991 -1.1558
   32SAPC   C15 4241   6.166   6.888   6.080 -0.0484  0.5896  0.2378
   32SAPC  H15A 4242   6.234   6.826   6.136  0.8200  0.9561 -0.3833
   32SAPC  H15B 4243   6.226   6.963   6.029 -0.9001  2.1513  1.4548
   32SAPC  H15C 4244   6.098   6.934   6.150  0.0077  1.1094 -0.0411
   32SAPC   C11 4245   6.117   6.582   6.125 -0.0483 -0.0803  0.9129
   32SAPC  H11A 4246   6.042   6.506   6.158 -1.9430  1.1066 -0.4867
   32SAPC  H11B 4247   6.148   6.643   6.212  0.6998  3.7116 -1.7860
   32SAPC     P 4248   6.385   6.534   6.116 -0.8924  0.2309 -0.2035
   32SAPC   O13 4249   6.470   6.439   6.047 -0.2101  0.5113  0.6323
   32SAPC   O14 4250   6.427   6.672   6.122 -0.5520 -0.2115 -0.0123
   32SAPC   O12 4251   6.238   6.532   6.056  0.4660  0.4321 -0.1918
   32SAPC   O11 4252   6.360   6.485   6.271 -0.2559  0.0895  0.4594
   32SAPC    C1 4253   6.470   6.443   6.352  0.0677  0.1944 -0.1968
   32SAPC    HA 4254   6.446   6.341   6.389 -1.7781 -0.0906 -1.9858
   32SAPC    HB 4255   6.566   6.442   6.296  0.5760 -2.1679  0.6062
   32SAPC    C2 4256   6.476   6.545   6.467 -0.0660 -0.3592 -0.3826
   32SAPC    HS 4257   6.519   6.640   6.429  0.7047 -0.5548 -0.0211
   32SAPC   O21 4258   6.544   6.494   6.581  0.2190  0.4800 -0.4674
   32SAPC   C21 4259   6.679   6.473   6.558  0.3701  0.5133  0.1621
   32SAPC   O22 4260   6.741   6.515   6.464 -0.0620  0.4594  0.5589
   32SAPC   C22 4261   6.728   6.403   6.681  0.7975 -0.6841  0.2981
   32SAPC   H2R 4262   6.670   6.308   6.689  1.4694 -1.1564 -0.3032
   32SAPC   H2S 4263   6.829   6.361   6.665  0.8024 -0.1741 -1.1864
   32SAPC    C3 4264   6.334   6.579   6.523  0.0020  0.0938 -0.2442
   32SAPC    HX 4265   6.268   6.490   6.523 -1.2595  0.9971 -1.3915
   32SAPC    HY 4266   6.284   6.642   6.447 -2.5963 -0.3319  0.9886
   32SAPC   O31 4267   6.327   6.649   6.646 -0.0018 -0.0629 -0.2533
   32SAPC   C31 4268   6.321   6.567   6.752 -0.0288  0.1524  0.1200
   32SAPC   O32 4269   6.309   6.447   6.746 -0.4608  0.8881 -0.0498
   32SAPC   C32 4270   6.294   6.649   6.884  1.2388  0.1186  1.0649
   32SAPC   H2X 4271   6.189   6.621   6.908  0.1015  1.3890 -1.8978
   32SAPC   H2Y 4272   6.297   6.755   6.852  0.6494  0.1018  0.9448
   32SAPC   C23 4273   6.719   6.501   6.800  0.8159 -0.5869 -0.4789
   32SAPC   H3R 4274   6.617   6.544   6.790  2.2073  3.6919  1.1477
   32SAPC   H3S 4275   6.795   6.581   6.782  0.6760 -0.3934 -0.2238
   32SAPC   C24 4276   6.734   6.431   6.939  0.5676 -0.0503  0.3644
   32SAPC   H4R 4277   6.673   6.338   6.929  0.5862 -0.2003  1.5010
   32SAPC   H4S 4278   6.691   6.505   7.010 -0.0910  0.5305 -0.6142
   32SAPC   C25 4279   6.875   6.394   6.982 -0.0989 -0.0051  0.3373
   32SAPC   H5R 4280   6.944   6.362   6.903  1.1957 -0.5155  1.6152
   32SAPC   C26 4281   6.917   6.379   7.109 -0.3821  0.2865  0.2234
   32SAPC   H6R 4282   7.025   6.367   7.127 -0.0739  1.1777 -0.8957
   32SAPC   C27 4283   6.829   6.411   7.229 -0.0600  0.0068 -0.0878
   32SAPC   H7R 4284   6.751   6.487   7.212  0.7277  0.8706  0.1062
   32SAPC   H7S 4285   6.884   6.471   7.305 -0.1378  0.5387 -0.4483
   32SAPC   C28 4286   6.749   6.292   7.289 -0.7489 -0.5890 -0.3039
   32SAPC   H8R 4287   6.697   6.237   7.210  1.0512  2.0422 -3.6088
   32SAPC   C29 4288   6.764   6.245   7.417 -0.5752 -0.2824 -0.3614
   32SAPC   H9R 4289   6.703   6.157   7.443  1.2985 -2.2737 -2.3430
   32SAPC  C210 4290   6.838   6.307   7.532 -0.4758 -0.3131  0.0882
   32SAPC  H10R 4291   6.875   6.407   7.502 -2.2569  1.2229  2.6061
   32SAPC  H10S 4292   6.932   6.250   7.549 -1.9639 -2.9469  0.1574
   32SAPC  C211 4293   6.769   6.330   7.661 -0.7981 -0.3934 -0.5269
   32SAPC  H11R 4294   6.748   6.438   7.665  0.9485 -0.0440  0.0805
   32SAPC  C212 4295   6.744   6.234   7.760 -0.0516 -0.1786 -0.3196
   32SAPC  H12R 4296   6.718   6.261   7.863  1.2149 -1.7330  0.4506
   32SAPC  C213 4297   6.797   6.094   7.763 -0.5592 -1.3315 -0.0945
   32SAPC  H13R 4298   6.835   6.052   7.667 -1.9731  0.7640 -1.6665
   32SAPC  H13S 4299   6.713   6.035   7.804 -0.5554 -0.0740  1.8754
   32SAPC  C214 4300   6.912   6.086   7.863 -0.7560 -0.4173 -0.3980
   32SAPC  H14R 4301   6.992   6.158   7.839 -1.1780 -0.1866 -1.1691
   32SAPC  C215 4302   6.923   6.007   7.968  0.1578 -1.0193 -0.3239
   32SAPC  H15R 4303   7.015   6.010   8.028  0.0843  0.5077 -0.2489
   32SAPC  C216 4304   6.826   5.896   8.016 -0.3292 -0.4745 -0.7562
   32SAPC  H16R 4305   6.891   5.814   8.052  1.1566  0.2653 -1.6531
   32SAPC  H16S 4306   6.764   5.855   7.933 -1.5717 -0.2417  0.0251
   32SAPC  C217 4307   6.728   5.940   8.116 -0.1757  0.6131  0.3780
   32SAPC  H17R 4308   6.666   5.859   8.161 -1.5597  0.5601 -1.5158
   32SAPC  H17S 4309   6.668   6.018   8.064  0.9169  1.4991  0.4152
   32SAPC  C218 4310   6.795   6.012   8.238 -0.1014  0.3855 -0.0298
   32SAPC  H18R 4311   6.854   6.096   8.197  0.1446 -1.2788 -3.4236
   32SAPC  H18S 4312   6.866   5.937   8.279 -0.3556 -0.3116 -0.8424
   32SAPC  C219 4313   6.703   6.053   8.357  0.2330  0.2611  0.0482
   32SAPC  H19R 4314   6.768   6.089   8.440 -0.1778  0.4565  0.2880
   32SAPC  H19S 4315   6.639   5.972   8.396  2.1927 -0.4119  2.0474
   32SAPC  C220 4316   6.612   6.171   8.321 -0.5525  0.2348 -0.5886
   32SAPC  H20R 4317   6.560   6.211   8.410  0.2870 -1.6652  0.8284
   32SAPC  H20S 4318   6.538   6.149   8.241 -0.6526  1.9382 -0.9872
   32SAPC  H20T 4319   6.673   6.257   8.287  1.3526 -0.1570  1.5676
   32SAPC   C33 4320   6.383   6.604   6.997 -0.9976 -0.2770  0.0297
   32SAPC   H3X 4321   6.346   6.665   7.082 -0.3877  1.3631 -0.8544
   32SAPC   H3Y 4322   6.489   6.630   6.978 -1.0043 -0.7414 -0.6982
   32SAPC   C34 4323   6.368   6.459   7.045  0.7356  0.0866  0.3882
   32SAPC   H4X 4324   6.432   6.396   6.979 -1.7680 -1.3027 -0.8478
   32SAPC   H4Y 4325   6.264   6.426   7.026  1.1636 -1.3780  0.4461
   32SAPC   C35 4326   6.411   6.445   7.189 -0.5007  0.4367  0.7782
   32SAPC   H5X 4327   6.361   6.526   7.246  1.0403  1.2588  1.0244
   32SAPC   H5Y 4328   6.520   6.456   7.207 -0.7487  0.9575  2.0399
   32SAPC   C36 4329   6.372   6.299   7.234 -0.4425 -0.5636 -1.1922
   32SAPC   H6X 4330   6.435   6.227   7.178 -1.4961 -3.1813  0.7615
   32SAPC   H6Y 4331   6.263   6.281   7.225 -0.3669 -3.2682  1.7296
   32SAPC   C37 4332   6.407   6.278   7.391  0.5297  0.0613 -0.2533
   32SAPC   H7X 4333   6.344   6.354   7.442  0.2965  0.2611 -0.8327
   32SAPC   H7Y 4334   6.514   6.304   7.411  0.1013  0.8671  1.1609
   32SAPC   C38 4335   6.366   6.139   7.441 -0.0760 -0.2724 -0.2322
   32SAPC   H8X 4336   6.423   6.053   7.400  1.3933  0.2469  0.6513
   32SAPC   H8Y 4337   6.258   6.118   7.428  0.1253 -0.5975 -1.4778
   32SAPC   C39 4338   6.372   6.146   7.600 -0.5080 -0.0199 -0.0665
   32SAPC   H9X 4339   6.287   6.210   7.631 -0.3124 -0.1753  0.8155
   32SAPC   H9Y 4340   6.468   6.198   7.623 -0.1900 -0.9543  0.7886
   32SAPC  C310 4341   6.347   6.006   7.660  0.6700  0.3415 -0.5955
   32SAPC  H10X 4342   6.432   5.936   7.643  0.5631 -0.6298  2.2112
   32SAPC  H10Y 4343   6.263   5.965   7.600 -1.2260  2.3988  0.4857
   32SAPC  C311 4344   6.315   6.007   7.813  0.1610  0.4239  0.0240
   32SAPC  H11X 4345   6.250   6.096   7.832  1.7958  1.6820 -0.0949
   32SAPC  H11Y 4346   6.409   6.028   7.868  0.3959  2.7743 -1.1221
   32SAPC  C312 4347   6.247   5.873   7.847 -0.3650  0.2198 -0.4091
   32SAPC  H12X 4348   6.315   5.785   7.844 -0.4360  0.1272  0.4304
   32SAPC  H12Y 4349   6.166   5.860   7.773 -0.3903  2.9206 -0.9865
   32SAPC  C313 4350   6.178   5.884   7.990 -0.5257 -0.3769  0.8689
   32SAPC  H13X 4351   6.129   5.787   8.015 -0.8150  0.0147  1.8642
   32SAPC  H13Y 4352   6.096   5.958   7.988 -0.7075 -0.5521 -1.3443
   32SAPC  C314 4353   6.280   5.900   8.103  0.2475 -0.2171 -0.4533
   32SAPC  H14X 4354   6.310   6.006   8.109  1.2460 -0.3693 -2.1879
   32SAPC  H14Y 4355   6.375   5.843   8.092  0.5496 -0.0583  1.0541
   32SAPC  C315 4356   6.217   5.857   8.244  0.3013 -0.0537  0.0587
   32SAPC  H15X 4357   6.208   5.746   8.253 -2.6502  0.1159  0.1630
   32SAPC  H15Y 4358   6.114   5.896   8.256  0.9601  1.4163  1.1740
   32SAPC  C316 4359   6.293   5.927   8.355  0.4534  0.3532 -0.4631
   32SAPC  H16X 4360   6.277   6.035   8.336 -3.6446  0.2128  1.2407
   32SAPC  H16Y 4361   6.402   5.914   8.339  0.3436 -0.7622 -0.3896
   32SAPC  C317 4362   6.242   5.879   8.495 -0.5964  0.2972 -0.1010
   32SAPC  H17X 4363   6.276   5.773   8.499 -2.2026 -0.3678 -2.4132
   32SAPC  H17Y 4364   6.132   5.863   8.500 -0.3631 -2.1240 -1.3586
   32SAPC  C318 4365   6.296   5.956   8.613 -0.5311  0.0630  0.0875
   32SAPC  H18X 4366   6.406   5.969   8.613 -0.4658 -0.4177  0.8353
   32SAPC  H18Y 4367   6.262   5.908   8.707  0.4506  0.5268  0.6928
   32SAPC  H18Z 4368   6.249   6.056   8.610 -0.5887  0.0891 -4.4914
   33POPC     N 4369   4.971   3.005  10.611  0.3576 -0.1304 -0.1273
   33POPC   C12 4370   5.090   3.099  10.590  0.0671  0.1824  0.1448
   33POPC  H12A 4371   5.178   3.056  10.636 -0.0978  0.3420  0.6174
   33POPC  H12B 4372   5.079   3.195  10.638  3.3792  0.5106  0.4632
   33POPC   C13 4373   5.007   2.861  10.569 -0.7467 -0.4451 -0.5605
   33POPC  H13A 4374   5.057   2.870  10.474  0.0716 -1.1938 -0.2180
   33POPC  H13B 4375   5.068   2.818  10.647 -1.1791  0.6971  0.4406
   33POPC  H13C 4376   4.924   2.791  10.564 -2.1372  1.1954 -1.7563
   33POPC   C14 4377   4.929   2.999  10.753  0.1867 -0.1088  0.1676
   33POPC  H14A 4378   4.825   2.970  10.755 -0.6833  2.5901 -1.1456
   33POPC  H14B 4379   4.994   2.939  10.816  0.1223 -1.2877 -0.8498
   33POPC  H14C 4380   4.927   3.101  10.786 -1.2973 -0.2511  0.5721
   33POPC   C15 4381   4.854   3.057  10.531 -0.7326  0.3431  0.0385
   33POPC  H15A 4382   4.898   3.101  10.443  0.9133  0.4267  0.8696
   33POPC  H15B 4383   4.804   3.128  10.595  1.6449  2.7273 -0.6012
   33POPC  H15C 4384   4.786   2.978  10.501  1.6324 -1.6026 -0.5285
   33POPC   C11 4385   5.143   3.135  10.443  0.0742  0.1549  0.4748
   33POPC  H11A 4386   5.133   3.041  10.385 -2.6728  1.6885 -1.7544
   33POPC  H11B 4387   5.249   3.168  10.446  0.5229 -0.8085 -2.3009
   33POPC     P 4388   5.084   3.388  10.391 -0.3248 -0.0838  0.3529
   33POPC   O13 4389   5.169   3.427  10.274 -0.3788  0.0346 -0.1046
   33POPC   O14 4390   5.138   3.423  10.521 -0.4574 -0.2644  0.1108
   33POPC   O12 4391   5.044   3.229  10.391 -0.2349 -0.2497  0.1720
   33POPC   O11 4392   4.953   3.463  10.371  1.0029  0.0486 -0.1883
   33POPC    C1 4393   4.827   3.396  10.344 -0.6363  0.3127 -0.4316
   33POPC    HA 4394   4.815   3.301  10.400  1.2711  0.1025 -0.3366
   33POPC    HB 4395   4.752   3.471  10.380 -1.3633 -1.2692  1.5152
   33POPC    C2 4396   4.802   3.364  10.194 -0.2029  0.2603  0.4396
   33POPC    HS 4397   4.695   3.334  10.183  0.8595 -2.9343 -3.3748
   33POPC   O21 4398   4.893   3.266  10.135 -0.0368  0.0577 -0.9700
   33POPC   C21 4399   4.865   3.138  10.174  0.0200  0.2956  0.6488
   33POPC   O22 4400   4.773   3.102  10.247  0.7560  0.7707  0.2768
   33POPC   C22 4401   4.968   3.041  10.113  0.0997  0.6662 -0.6316
   33POPC   H2R 4402   5.044   3.036  10.194 -0.2743  0.5870 -0.2755
   33POPC   H2S 4403   5.014   3.093  10.027 -0.1647  0.5196 -0.8611
   33POPC    C3 4404   4.817   3.497  10.114  0.0674 -0.4622  0.6163
   33POPC    HX 4405   4.919   3.535  10.133 -0.0878  0.0887  0.3820
   33POPC    HY 4406   4.758   3.583  10.154  3.6209  1.1042  2.9281
   33POPC   O31 4407   4.801   3.470   9.972 -0.6660 -0.4200  0.2331
   33POPC   C31 4408   4.911   3.507   9.896 -0.6729  0.0371 -0.3020
   33POPC   O32 4409   5.017   3.546   9.939 -0.0321  0.2548  0.3406
   33POPC   C32 4410   4.887   3.476   9.750 -0.0935 -1.0619 -0.4954
   33POPC   H2X 4411   4.781   3.497   9.725 -0.5790  0.7360  2.4800
   33POPC   H2Y 4412   4.919   3.373   9.725 -0.3888 -0.8067 -1.9668
   33POPC   C23 4413   4.901   2.902  10.082  0.7586  0.9072 -0.1769
   33POPC   H3R 4414   4.840   2.873  10.169  0.3448 -0.3505 -0.8613
   33POPC   H3S 4415   4.983   2.827  10.073 -0.3083 -0.5631  1.8089
   33POPC   C24 4416   4.824   2.903   9.949  0.3846 -0.7157 -0.8101
   33POPC   H4R 4417   4.901   2.922   9.871  0.4460 -0.5792 -0.7151
   33POPC   H4S 4418   4.751   2.985   9.933  0.1331 -1.2116 -2.4314
   33POPC   C25 4419   4.754   2.767   9.933  0.1995  0.1333 -0.9127
   33POPC   H5R 4420   4.677   2.760  10.013 -1.1626 -1.1443 -2.2711
   33POPC   H5S 4421   4.825   2.683   9.947 -0.3541 -0.1561  0.3769
   33POPC   C26 4422   4.673   2.747   9.799 -0.0056 -0.7289 -0.3485
   33POPC   H6R 4423   4.584   2.813   9.801  0.9443  0.5850  1.0851
   33POPC   H6S 4424   4.652   2.639   9.785  1.6081 -0.9718 -1.1961
   33POPC   C27 4425   4.756   2.787   9.674  0.5908  0.1640  0.6408
   33POPC   H7R 4426   4.855   2.738   9.682 -0.6079 -2.0955  3.0843
   33POPC   H7S 4427   4.782   2.895   9.680 -0.1893  0.4427 -0.5839
   33POPC   C28 4428   4.687   2.750   9.541  0.9477 -0.1304 -0.1347
   33POPC   H8R 4429   4.654   2.644   9.551  0.4790  0.1175  1.0553
   33POPC   H8S 4430   4.757   2.753   9.455 -0.1522 -0.3029 -1.0617
   33POPC   C29 4431   4.573   2.845   9.511  0.1797 -0.0819 -0.4058
   33POPC   H91 4432   4.540   2.912   9.592  0.6744 -1.2564  0.7980
   33POPC  C210 4433   4.505   2.860   9.398  0.3561  0.4415 -0.0622
   33POPC  H101 4434   4.426   2.935   9.393 -0.0697  0.2399  2.5156
   33POPC  C211 4435   4.528   2.771   9.277  0.1479 -0.2849 -0.3038
   33POPC  H11R 4436   4.438   2.714   9.249  0.0634 -0.2776 -0.0537
   33POPC  H11S 4437   4.602   2.690   9.291  0.5456 -0.5700 -3.3823
   33POPC  C212 4438   4.591   2.842   9.150  0.6875 -0.8468  0.4107
   33POPC  H12R 4439   4.699   2.867   9.159  0.1708  1.1991  1.5969
   33POPC  H12S 4440   4.549   2.943   9.132  3.1750  0.1603 -0.1392
   33POPC  C213 4441   4.596   2.760   9.019 -0.2987  0.3548 -0.5903
   33POPC  H13R 4442   4.497   2.713   9.000  0.3323  0.2166 -4.4950
   33POPC  H13S 4443   4.666   2.674   9.027 -0.9723 -0.3846 -2.0713
   33POPC  C214 4444   4.615   2.842   8.887 -0.4090  0.3787 -0.4362
   33POPC  H14R 4445   4.712   2.897   8.887  0.1200 -0.4350  1.9525
   33POPC  H14S 4446   4.533   2.916   8.876 -0.4076  0.3831 -0.4187
   33POPC  C215 4447   4.629   2.745   8.768 -0.0959  0.6576 -0.2232
   33POPC  H15R 4448   4.531   2.746   8.715 -0.1241  0.4997 -0.1725
   33POPC  H15S 4449   4.643   2.640   8.800 -3.3678  0.0761 -0.3736
   33POPC  C216 4450   4.751   2.782   8.669  0.5267 -0.0978 -0.1827
   33POPC  H16R 4451   4.842   2.729   8.705  0.3850 -0.1981  0.0274
   33POPC  H16S 4452   4.772   2.892   8.667  1.7533 -0.2592  1.3038
   33POPC  C217 4453   4.724   2.727   8.528  0.1207  0.1659  0.3276
   33POPC  H17R 4454   4.637   2.783   8.486  0.3862  0.5111  0.2302
   33POPC  H17S 4455   4.684   2.625   8.545  0.1115  0.3512  1.4916
   33POPC  C218 4456   4.830   2.716   8.421 -0.0590 -0.9752 -0.0693
   33POPC  H18R 4457   4.812   2.629   8.355  0.1594 -1.1063  0.0424
   33POPC  H18S 4458   4.934   2.711   8.462  0.3153  0.8313 -0.6742
   33POPC  H18T 4459   4.831   2.814   8.368  0.7942 -1.0400 -0.1993
   33POPC   C33 4460   4.973   3.570   9.662 -0.7189 -0.7447  0.0400
   33POPC   H3X 4461   5.078   3.535   9.653 -0.2330  0.1157  1.9938
   33POPC   H3Y 4462   4.984   3.674   9.699  0.6446 -0.4704 -1.0321
   33POPC   C34 4463   4.920   3.591   9.510  0.7813  0.4636 -0.1934
   33POPC   H4X 4464   4.822   3.642   9.523  0.9481  0.4832  1.1006
   33POPC   H4Y 4465   4.913   3.492   9.460  0.9215  0.2566  0.1919
   33POPC   C35 4466   5.011   3.686   9.430 -1.0499 -0.4642 -0.0480
   33POPC   H5X 4467   5.113   3.643   9.424 -0.1665  1.6174 -0.9687
   33POPC   H5Y 4468   5.012   3.783   9.484 -1.1070  0.5686 -1.8069
   33POPC   C36 4469   4.955   3.697   9.285 -0.1388 -0.3951 -0.4602
   33POPC   H6X 4470   4.868   3.767   9.287  1.3024  1.5230 -1.4853
   33POPC   H6Y 4471   4.912   3.601   9.248  2.1413 -1.1182 -1.4032
   33POPC   C37 4472   5.065   3.742   9.182  0.3807 -0.0904  0.2299
   33POPC   H7X 4473   5.148   3.670   9.198 -0.5974 -1.3806 -0.3306
   33POPC   H7Y 4474   5.079   3.848   9.211 -1.8611 -0.6050  3.8347
   33POPC   C38 4475   5.013   3.744   9.039  0.6817  0.2185 -0.5449
   33POPC   H8X 4476   5.064   3.816   8.972 -1.3813  1.0870 -1.2506
   33POPC   H8Y 4477   4.907   3.777   9.042  0.0512 -1.6828 -0.3759
   33POPC   C39 4478   5.025   3.606   8.981  0.4214 -0.9120  0.6185
   33POPC   H9X 4479   4.963   3.528   9.031 -0.4555 -0.5760  0.0837
   33POPC   H9Y 4480   5.131   3.572   8.984  0.8054 -0.0692 -1.3424
   33POPC  C310 4481   4.992   3.613   8.833  0.1000 -0.4050  0.1238
   33POPC  H10X 4482   4.995   3.510   8.793 -1.1198 -0.5807  0.4262
   33POPC  H10Y 4483   5.081   3.662   8.788  1.4827 -0.7061  2.3952
   33POPC  C311 4484   4.848   3.672   8.804  0.0188 -0.3999 -0.0821
   33POPC  H11X 4485   4.841   3.778   8.837 -0.1200 -0.5095  0.2476
   33POPC  H11Y 4486   4.779   3.612   8.867 -0.6283 -1.4673 -1.7433
   33POPC  C312 4487   4.815   3.665   8.656  0.3315 -0.5871  0.5615
   33POPC  H12X 4488   4.837   3.561   8.622  2.2276 -0.6435  1.8190
   33POPC  H12Y 4489   4.885   3.732   8.602  1.0074 -0.6563  1.3288
   33POPC  C313 4490   4.670   3.704   8.632  0.2202  0.1556  0.8119
   33POPC  H13X 4491   4.658   3.812   8.651 -4.7610  0.3185 -1.5384
   33POPC  H13Y 4492   4.597   3.648   8.694 -0.3406 -2.4913 -1.9943
   33POPC  C314 4493   4.619   3.685   8.484  0.2849 -0.3868 -0.6101
   33POPC  H14X 4494   4.621   3.581   8.445 -1.6130 -0.1907 -1.3242
   33POPC  H14Y 4495   4.689   3.740   8.417 -0.3949  1.7701  0.3375
   33POPC  C315 4496   4.475   3.734   8.448 -0.2601 -0.3766  0.1743
   33POPC  H15X 4497   4.400   3.681   8.511 -2.8516 -0.1645 -2.4964
   33POPC  H15Y 4498   4.455   3.708   8.342  1.2233 -1.7972  0.1887
   33POPC  C316 4499   4.451   3.881   8.480 -0.4133  0.3142  0.0416
   33POPC  H16X 4500   4.359   3.929   8.439  1.4258  3.8946 -0.2366
   33POPC  H16Y 4501   4.538   3.931   8.433 -1.1013  0.4139 -1.1889
   33POPC  H16Z 4502   4.453   3.893   8.591  0.4083 -1.0582  0.2006
   34POPC     N 4503   4.368   1.861  10.673  0.2883  0.8428  0.0534
   34POPC   C12 4504   4.320   1.922  10.539  0.3900 -0.0403 -0.1224
   34POPC  H12A 4505   4.219   1.885  10.526 -0.5838  2.5403 -0.5499
   34POPC  H12B 4506   4.374   1.883  10.454  0.7848  2.7776 -1.2729
   34POPC   C13 4507   4.386   1.709  10.654 -0.5193  0.3205 -0.2369
   34POPC  H13A 4508   4.453   1.698  10.570 -0.7894  1.4871 -0.6187
   34POPC  H13B 4509   4.422   1.661  10.743 -1.7585 -0.4121 -0.0918
   34POPC  H13C 4510   4.293   1.670  10.614 -1.3497 -0.1114  2.0119
   34POPC   C14 4511   4.496   1.926  10.715  0.1265  0.0520 -0.0055
   34POPC  H14A 4512   4.540   1.988  10.639 -1.3737  1.7810  0.4557
   34POPC  H14B 4513   4.476   1.982  10.805  0.6583 -1.2453  0.9554
   34POPC  H14C 4514   4.564   1.851  10.752  1.5131  0.7147 -1.1373
   34POPC   C15 4515   4.273   1.879  10.780  0.2769 -0.1887 -0.1991
   34POPC  H15A 4516   4.244   1.983  10.791 -2.6283 -0.8872 -0.4218
   34POPC  H15B 4517   4.321   1.860  10.875 -0.8479  4.5533  1.6100
   34POPC  H15C 4518   4.192   1.808  10.773  0.6105 -0.5031 -0.9950
   34POPC   C11 4519   4.336   2.076  10.511 -0.6117  0.0149  0.1948
   34POPC  H11A 4520   4.282   2.105  10.419  0.0840  1.2742  0.1574
   34POPC  H11B 4521   4.442   2.093  10.480 -0.8489  0.4959 -0.3636
   34POPC     P 4522   4.358   2.294  10.651 -0.6058 -0.1340  0.2178
   34POPC   O13 4523   4.502   2.283  10.611  0.0329 -0.0691 -0.1360
   34POPC   O14 4524   4.344   2.336  10.791  0.1378 -0.0444 -0.8595
   34POPC   O12 4525   4.287   2.158  10.617  0.3922 -0.2592 -0.1596
   34POPC   O11 4526   4.293   2.399  10.559 -0.2083  0.6644 -0.7676
   34POPC    C1 4527   4.147   2.419  10.556 -0.2533 -0.1151 -1.3974
   34POPC    HA 4528   4.123   2.526  10.542 -2.6821 -0.4580 -0.3540
   34POPC    HB 4529   4.098   2.382  10.649 -2.7134 -2.2585 -3.3585
   34POPC    C2 4530   4.075   2.343  10.442 -0.1386 -0.2211 -0.2733
   34POPC    HS 4531   4.074   2.232  10.451 -0.3490 -0.5767 -3.5156
   34POPC   O21 4532   4.126   2.394  10.320 -0.3246 -0.3281  0.1380
   34POPC   C21 4533   4.114   2.326  10.205  0.5904  0.0259 -0.5213
   34POPC   O22 4534   4.071   2.208  10.198  0.0297 -0.4134 -0.0604
   34POPC   C22 4535   4.140   2.419  10.085  0.0985  0.0911  0.1915
   34POPC   H2R 4536   4.250   2.431  10.085  0.3314 -1.6273  1.7820
   34POPC   H2S 4537   4.097   2.520  10.103 -0.6032 -0.3369  0.9998
   34POPC    C3 4538   3.925   2.375  10.465 -0.0604 -0.4457 -0.1634
   34POPC    HX 4539   3.902   2.481  10.444 -0.4623 -0.8788 -2.0773
   34POPC    HY 4540   3.901   2.350  10.571  0.5944  0.4659  0.2128
   34POPC   O31 4541   3.842   2.279  10.388  0.5406 -1.4825  0.3073
   34POPC   C31 4542   3.708   2.306  10.383 -0.1552  1.4566 -0.5318
   34POPC   O32 4543   3.650   2.395  10.445  0.3067  0.2779  0.8183
   34POPC   C32 4544   3.635   2.207  10.295  0.5488 -0.4708 -0.2993
   34POPC   H2X 4545   3.529   2.241  10.293  1.2350  1.7875 -2.0721
   34POPC   H2Y 4546   3.646   2.109  10.345  0.5225  0.0450  0.7462
   34POPC   C23 4547   4.092   2.351   9.955  0.1955  0.1011  0.0378
   34POPC   H3R 4548   3.993   2.301   9.946  1.8218 -3.4940  0.1896
   34POPC   H3S 4549   4.158   2.266   9.928 -1.1171 -0.0645 -3.0502
   34POPC   C24 4550   4.092   2.442   9.832 -0.2787  0.0126 -0.8371
   34POPC   H4R 4551   4.199   2.471   9.825 -0.2130  0.6486  1.6597
   34POPC   H4S 4552   4.034   2.537   9.829 -2.1166 -0.9897  0.8146
   34POPC   C25 4553   4.049   2.361   9.707 -0.1988 -0.3366  0.3783
   34POPC   H5R 4554   3.938   2.352   9.709 -0.1719 -0.5222  1.9853
   34POPC   H5S 4555   4.087   2.257   9.698 -3.4784 -1.4730 -3.0107
   34POPC   C26 4556   4.088   2.439   9.582 -0.3537  0.3854  0.4334
   34POPC   H6R 4557   4.197   2.457   9.591 -0.4495  0.6405  1.1518
   34POPC   H6S 4558   4.041   2.539   9.585 -0.8200  0.1513  1.5184
   34POPC   C27 4559   4.051   2.349   9.465 -0.4755 -0.3020 -0.3011
   34POPC   H7R 4560   3.953   2.300   9.482  0.4006 -1.2066  2.7398
   34POPC   H7S 4561   4.137   2.280   9.452  0.6948  0.5225  2.3768
   34POPC   C28 4562   4.028   2.437   9.339  0.8143 -0.4746 -0.5374
   34POPC   H8R 4563   4.108   2.509   9.311 -1.5707  1.2479 -3.6156
   34POPC   H8S 4564   3.942   2.504   9.361 -0.1910 -1.8301 -0.2607
   34POPC   C29 4565   3.994   2.351   9.223  0.5310 -0.2274 -0.4391
   34POPC   H91 4566   4.012   2.244   9.240 -1.7852 -0.6954 -0.5342
   34POPC  C210 4567   3.936   2.389   9.109  0.1142 -0.1781 -0.2205
   34POPC  H101 4568   3.912   2.321   9.027 -0.4896 -1.7395  1.1777
   34POPC  C211 4569   3.895   2.534   9.075 -0.4362 -0.1190  0.0062
   34POPC  H11R 4570   3.856   2.589   9.164 -1.1567 -0.4813 -0.0808
   34POPC  H11S 4571   3.801   2.530   9.016  0.3649  0.3147 -1.3510
   34POPC  C212 4572   4.006   2.619   9.008  0.3167 -0.1106 -0.5182
   34POPC  H12R 4573   4.090   2.625   9.080 -0.0915  2.5221 -0.1637
   34POPC  H12S 4574   3.979   2.723   8.982 -0.4959  0.3089  1.7491
   34POPC  C213 4575   4.063   2.556   8.883  0.3602 -0.3752  1.4584
   34POPC  H13R 4576   3.991   2.576   8.801  2.2123  3.2003  0.5090
   34POPC  H13S 4577   4.089   2.450   8.907 -2.2414 -0.9913  1.8698
   34POPC  C214 4578   4.195   2.620   8.835 -0.2671 -0.2619  0.2878
   34POPC  H14R 4579   4.265   2.598   8.919 -0.3795 -1.6684  0.0272
   34POPC  H14S 4580   4.176   2.729   8.824 -0.4114 -0.3566 -0.4747
   34POPC  C215 4581   4.244   2.550   8.709 -0.0586  0.1527  0.1993
   34POPC  H15R 4582   4.223   2.441   8.721  0.2160 -0.2245 -2.3094
   34POPC  H15S 4583   4.353   2.567   8.695 -0.3450  1.1970 -0.9047
   34POPC  C216 4584   4.180   2.599   8.581  0.7668 -0.4698  0.5558
   34POPC  H16R 4585   4.197   2.708   8.570  0.0144 -0.4620 -0.8598
   34POPC  H16S 4586   4.072   2.574   8.590  0.4464  0.1910 -1.0649
   34POPC  C217 4587   4.241   2.526   8.463 -0.4195 -0.0883  0.3995
   34POPC  H17R 4588   4.225   2.419   8.486 -1.0917  0.0474  0.5974
   34POPC  H17S 4589   4.345   2.565   8.461  0.9202 -3.1634  2.8101
   34POPC  C218 4590   4.163   2.565   8.339  0.0018  0.4730 -0.4265
   34POPC  H18R 4591   4.058   2.529   8.345  0.3454 -0.3287  1.9148
   34POPC  H18S 4592   4.215   2.532   8.247  0.2849 -1.6335  0.4291
   34POPC  H18T 4593   4.162   2.676   8.346 -0.4669  0.5161 -1.0220
   34POPC   C33 4594   3.682   2.212  10.157 -0.2178  0.5464  0.4961
   34POPC   H3X 4595   3.645   2.118  10.111 -1.9263  0.7444  1.3835
   34POPC   H3Y 4596   3.791   2.227  10.144 -0.4774  1.1800 -1.3146
   34POPC   C34 4597   3.609   2.311  10.066  0.2940 -0.3274  0.1787
   34POPC   H4X 4598   3.630   2.417  10.092 -2.1095 -0.1753  1.7461
   34POPC   H4Y 4599   3.499   2.299  10.072  0.5064 -1.5942  4.2433
   34POPC   C35 4600   3.646   2.270   9.927  0.7679  0.1436 -0.0863
   34POPC   H5X 4601   3.622   2.163   9.912  0.3483 -0.0467  1.6445
   34POPC   H5Y 4602   3.754   2.285   9.905  0.3548 -0.4267 -2.8731
   34POPC   C36 4603   3.573   2.365   9.826 -0.7324  0.7277  0.0841
   34POPC   H6X 4604   3.592   2.470   9.855  1.1943 -0.2704  3.0129
   34POPC   H6Y 4605   3.465   2.341   9.820 -0.3513 -0.6905 -2.3399
   34POPC   C37 4606   3.640   2.349   9.691  0.2468 -0.6116 -0.8278
   34POPC   H7X 4607   3.664   2.242   9.674  0.3322 -1.1120  1.9746
   34POPC   H7Y 4608   3.729   2.415   9.681  1.6382 -2.1741  0.5540
   34POPC   C38 4609   3.539   2.381   9.580 -0.1391 -0.1463 -0.5918
   34POPC   H8X 4610   3.477   2.472   9.598 -1.2658 -0.3789 -2.8879
   34POPC   H8Y 4611   3.465   2.299   9.571 -0.8805  0.6054 -1.8044
   34POPC   C39 4612   3.601   2.424   9.447 -1.1727 -0.5519  0.3912
   34POPC   H9X 4613   3.685   2.354   9.425 -0.7980  0.2819 -0.9424
   34POPC   H9Y 4614   3.645   2.525   9.463 -0.7566 -0.7156  0.2956
   34POPC  C310 4615   3.513   2.411   9.322 -0.9469  0.0579  0.7888
   34POPC  H10X 4616   3.424   2.471   9.352 -0.7506  0.4040  0.6741
   34POPC  H10Y 4617   3.491   2.304   9.301  2.4853 -0.2832 -2.0115
   34POPC  C311 4618   3.574   2.459   9.189  0.5866 -0.2619 -0.3280
   34POPC  H11X 4619   3.652   2.391   9.150  1.4835  1.0202 -0.8210
   34POPC  H11Y 4620   3.635   2.549   9.212 -0.4512  0.8967 -1.8938
   34POPC  C312 4621   3.469   2.488   9.083  0.2619  0.5600  0.4019
   34POPC  H12X 4622   3.408   2.571   9.125 -0.9147 -0.2267  0.2827
   34POPC  H12Y 4623   3.410   2.395   9.073  0.6735  0.4033 -0.8003
   34POPC  C313 4624   3.529   2.533   8.947 -0.2175  0.1524 -0.2562
   34POPC  H13X 4625   3.609   2.462   8.917  1.0028  1.9644 -1.4663
   34POPC  H13Y 4626   3.590   2.625   8.955 -0.5818  0.5739 -1.8520
   34POPC  C314 4627   3.425   2.541   8.842  0.1773  0.4282  0.4788
   34POPC  H14X 4628   3.362   2.450   8.847  0.6593  0.0076 -0.8352
   34POPC  H14Y 4629   3.465   2.539   8.738 -0.6498  3.9657 -0.0490
   34POPC  C315 4630   3.341   2.669   8.850 -0.1273 -0.1425 -0.3225
   34POPC  H15X 4631   3.406   2.759   8.839 -1.0479  0.9228  2.1939
   34POPC  H15Y 4632   3.295   2.672   8.951 -0.3705 -2.7067 -0.2938
   34POPC  C316 4633   3.232   2.680   8.745  0.1847 -0.2451  0.6957
   34POPC  H16X 4634   3.263   2.678   8.639 -1.3174 -0.5933  0.2371
   34POPC  H16Y 4635   3.172   2.773   8.752  2.2798  1.1941  0.3134
   34POPC  H16Z 4636   3.160   2.596   8.757  1.5730 -1.7663 -0.9792
   35POPC     N 4637   2.509   1.504  11.286  0.3355 -0.9893  0.3145
   35POPC   C12 4638   2.371   1.454  11.320  0.8779  0.0497  0.2922
   35POPC  H12A 4639   2.344   1.474  11.423 -1.6541  2.1125 -0.6535
   35POPC  H12B 4640   2.365   1.347  11.309 -1.1300  0.0329  1.0924
   35POPC   C13 4641   2.508   1.652  11.305 -0.0217 -0.2661  0.2097
   35POPC  H13A 4642   2.606   1.693  11.288 -0.7603  2.4111  1.7912
   35POPC  H13B 4643   2.438   1.704  11.242 -1.5213 -3.6954 -1.1743
   35POPC  H13C 4644   2.490   1.677  11.409  0.5313  0.6197  0.1013
   35POPC   C14 4645   2.610   1.444  11.384 -0.1850 -0.3632  0.1403
   35POPC  H14A 4646   2.708   1.490  11.383 -0.2349 -0.2042  1.3138
   35POPC  H14B 4647   2.566   1.448  11.482 -1.3854 -1.1811 -0.3326
   35POPC  H14C 4648   2.621   1.339  11.360 -0.1885  0.1174 -2.2100
   35POPC   C15 4649   2.542   1.474  11.140 -0.4397 -0.4669 -0.2807
   35POPC  H15A 4650   2.506   1.560  11.087  0.6222 -0.6095 -1.2622
   35POPC  H15B 4651   2.494   1.382  11.110 -1.0232 -0.3133  0.1527
   35POPC  H15C 4652   2.647   1.473  11.115 -0.5299 -1.4899 -0.6818
   35POPC   C11 4653   2.248   1.517  11.247 -0.3436  0.1837  0.0305
   35POPC  H11A 4654   2.254   1.552  11.141 -0.7459 -1.7420 -0.6558
   35POPC  H11B 4655   2.221   1.609  11.304 -0.6271  0.7134 -0.9239
   35POPC     P 4656   2.090   1.336  11.156 -0.0630 -0.4390 -0.3423
   35POPC   O13 4657   1.970   1.387  11.086  0.7032 -0.4745 -0.0127
   35POPC   O14 4658   2.073   1.199  11.202  0.0764 -0.2150  0.0783
   35POPC   O12 4659   2.134   1.437  11.266  0.0034 -0.0718 -0.3489
   35POPC   O11 4660   2.212   1.331  11.056  0.3435  0.2394 -0.1372
   35POPC    C1 4661   2.209   1.385  10.920 -0.3020 -0.4574  0.6128
   35POPC    HA 4662   2.309   1.424  10.888 -0.7865 -0.3891 -0.8838
   35POPC    HB 4663   2.147   1.477  10.915  0.3415 -0.0586 -2.2855
   35POPC    C2 4664   2.167   1.287  10.814  0.2084  0.0838 -0.0714
   35POPC    HS 4665   2.078   1.231  10.850 -0.6196  0.8031 -0.9266
   35POPC   O21 4666   2.284   1.205  10.808 -0.0383  0.1233  0.0310
   35POPC   C21 4667   2.265   1.080  10.792  0.2787  0.5565 -0.0161
   35POPC   O22 4668   2.159   1.016  10.787  0.1084  0.3040  0.0051
   35POPC   C22 4669   2.401   1.002  10.783 -0.0923  0.3361  0.1041
   35POPC   H2R 4670   2.392   0.897  10.820  0.2270  0.6437  1.0868
   35POPC   H2S 4671   2.480   1.052  10.843  0.5283 -0.4514 -0.0335
   35POPC    C3 4672   2.125   1.346  10.679 -0.6721  0.1320 -0.4855
   35POPC    HX 4673   2.214   1.402  10.643 -2.0004  2.0811 -0.8592
   35POPC    HY 4674   2.042   1.418  10.694  0.6457  1.3926  1.1740
   35POPC   O31 4675   2.089   1.235  10.589  0.2175 -0.5626 -0.4751
   35POPC   C31 4676   1.972   1.179  10.597  0.3089 -0.9534  0.0896
   35POPC   O32 4677   1.883   1.218  10.671  0.4991 -0.0761 -0.1566
   35POPC   C32 4678   1.957   1.072  10.487  0.3634  0.8373  0.2074
   35POPC   H2X 4679   1.853   1.035  10.498  0.7158 -0.1245  0.4140
   35POPC   H2Y 4680   2.017   0.990  10.531  0.5165  1.5732  1.4487
   35POPC   C23 4681   2.435   0.975  10.628  0.2247 -0.9196  0.4564
   35POPC   H3R 4682   2.364   0.908  10.576  0.0134  0.1435 -0.6754
   35POPC   H3S 4683   2.535   0.928  10.624 -0.1461 -1.6430 -3.1507
   35POPC   C24 4684   2.438   1.107  10.548 -1.0743  0.0274 -0.2835
   35POPC   H4R 4685   2.541   1.146  10.562  0.8110 -3.5359 -2.7552
   35POPC   H4S 4686   2.356   1.171  10.587 -0.9635  0.0162 -0.0313
   35POPC   C25 4687   2.420   1.079  10.401  0.5577  0.5017 -0.0264
   35POPC   H5R 4688   2.315   1.050  10.378  0.7185 -1.2333  1.1702
   35POPC   H5S 4689   2.481   0.996  10.359  0.3236 -0.6956  1.8647
   35POPC   C26 4690   2.471   1.197  10.330 -0.0450  0.2115  0.5472
   35POPC   H6R 4691   2.579   1.213  10.348  0.0990  0.3758 -0.3951
   35POPC   H6S 4692   2.418   1.287  10.370 -0.0999  1.4141 -2.0296
   35POPC   C27 4693   2.435   1.213  10.183  0.4468  0.7130 -0.2557
   35POPC   H7R 4694   2.328   1.191  10.164  0.6379  0.4060 -1.0088
   35POPC   H7S 4695   2.491   1.140  10.120  0.5317  0.9207 -0.4237
   35POPC   C28 4696   2.467   1.356  10.131 -0.4757  0.1188 -0.0586
   35POPC   H8R 4697   2.576   1.376  10.131  0.2326 -2.8057  2.4607
   35POPC   H8S 4698   2.433   1.424  10.212  0.5077  1.9577 -1.1346
   35POPC   C29 4699   2.420   1.407  10.001 -0.1357 -0.0989  0.7369
   35POPC   H91 4700   2.318   1.449   9.999 -0.1011  0.0782 -2.4094
   35POPC  C210 4701   2.484   1.406   9.879  0.0165 -0.2558 -0.2835
   35POPC  H101 4702   2.425   1.441   9.793 -0.1093  0.8625  0.2367
   35POPC  C211 4703   2.625   1.349   9.843 -0.0226 -1.0890 -0.1514
   35POPC  H11R 4704   2.681   1.291   9.920  2.6410 -0.0272 -1.1803
   35POPC  H11S 4705   2.697   1.432   9.825  0.3447 -1.4259 -0.2391
   35POPC  C212 4706   2.618   1.271   9.714 -0.3934 -0.3273 -0.0163
   35POPC  H12R 4707   2.723   1.253   9.682  0.0189 -2.4144  2.1993
   35POPC  H12S 4708   2.579   1.336   9.633  0.2129 -0.6677 -0.5862
   35POPC  C213 4709   2.574   1.126   9.722  0.6387 -0.0307  0.3558
   35POPC  H13R 4710   2.464   1.120   9.730  0.4657  2.4979  0.9780
   35POPC  H13S 4711   2.604   1.078   9.818  0.1649 -3.6308 -1.1555
   35POPC  C214 4712   2.632   1.040   9.601  0.2663  0.1384  0.2475
   35POPC  H14R 4713   2.590   0.941   9.631  1.7564  0.2940  3.2244
   35POPC  H14S 4714   2.743   1.035   9.603  0.2517 -0.2414  1.3114
   35POPC  C215 4715   2.575   1.085   9.469  0.2049  0.9175  0.3012
   35POPC  H15R 4716   2.600   1.190   9.442 -1.8459  0.8505 -2.2321
   35POPC  H15S 4717   2.464   1.082   9.477  0.1716  1.5380  0.1317
   35POPC  C216 4718   2.615   0.975   9.371 -0.0339  0.4338  0.2903
   35POPC  H16R 4719   2.546   0.965   9.284  0.4637  1.0752 -0.1847
   35POPC  H16S 4720   2.628   0.877   9.422 -0.7313  0.4119  0.4458
   35POPC  C217 4721   2.754   0.999   9.309  0.1439 -0.3973  0.4645
   35POPC  H17R 4722   2.789   0.910   9.253  1.3878  0.0613  0.4630
   35POPC  H17S 4723   2.832   1.003   9.389  0.4781  0.9206  0.1040
   35POPC  C218 4724   2.764   1.126   9.223 -0.0993  0.8957  0.2291
   35POPC  H18R 4725   2.765   1.223   9.277 -0.2267  1.3552 -0.5781
   35POPC  H18S 4726   2.673   1.136   9.159 -1.1078 -0.0703  1.4523
   35POPC  H18T 4727   2.853   1.122   9.157  1.1319  4.1621  1.5022
   35POPC   C33 4728   1.995   1.112  10.345 -0.1476  0.1143 -0.2120
   35POPC   H3X 4729   2.102   1.145  10.342  0.2997 -1.0184  1.8388
   35POPC   H3Y 4730   1.939   1.196  10.298  2.0921  1.5928 -0.4084
   35POPC   C34 4731   1.987   0.998  10.249 -0.1677  0.2525 -0.1147
   35POPC   H4X 4732   1.884   0.957  10.255 -0.4051  0.8142 -0.2964
   35POPC   H4Y 4733   2.050   0.917  10.291 -1.4002 -0.0436  1.2275
   35POPC   C35 4734   2.040   1.015  10.106 -0.0182  0.0594 -0.2698
   35POPC   H5X 4735   2.026   0.919  10.051 -0.3030  0.8934 -1.7097
   35POPC   H5Y 4736   2.150   1.022  10.095 -0.2176  0.6565 -2.6314
   35POPC   C36 4737   1.994   1.138  10.031 -0.1931  0.1489  0.2605
   35POPC   H6X 4738   2.056   1.227  10.058  1.9054 -0.2722 -2.7659
   35POPC   H6Y 4739   1.893   1.173  10.061 -0.0975 -0.1286  0.9280
   35POPC   C37 4740   2.010   1.134   9.877  0.9300 -0.7001 -0.3063
   35POPC   H7X 4741   1.947   1.216   9.839 -0.2405 -1.8350 -0.9141
   35POPC   H7Y 4742   1.951   1.047   9.839 -2.0464  0.4178  1.4490
   35POPC   C38 4743   2.152   1.140   9.816  0.4020 -0.8025 -0.9381
   35POPC   H8X 4744   2.211   1.053   9.852 -0.2721 -1.3552 -1.1570
   35POPC   H8Y 4745   2.195   1.240   9.840 -1.4961  0.4882 -2.6325
   35POPC   C39 4746   2.162   1.122   9.667  0.1439 -0.1625 -0.3921
   35POPC   H9X 4747   2.153   1.013   9.646  1.4655  0.0351 -2.2626
   35POPC   H9Y 4748   2.267   1.148   9.640  0.2540 -0.8159 -0.6162
   35POPC  C310 4749   2.066   1.202   9.578 -0.3397 -0.4825  0.2880
   35POPC  H10X 4750   2.085   1.312   9.580 -0.4622 -0.3913 -1.6887
   35POPC  H10Y 4751   1.967   1.179   9.624 -0.2305 -1.7052 -0.0727
   35POPC  C311 4752   2.045   1.128   9.448  0.2613  0.2203 -0.2562
   35POPC  H11X 4753   2.084   1.024   9.447 -1.5051 -0.4817 -0.6607
   35POPC  H11Y 4754   2.093   1.181   9.363  1.0317 -0.3389 -0.1796
   35POPC  C312 4755   1.896   1.124   9.417  0.4274 -0.5372 -0.3244
   35POPC  H12X 4756   1.845   1.220   9.442  0.9744 -0.5514  0.8877
   35POPC  H12Y 4757   1.853   1.052   9.489  0.0323  0.3494  0.3538
   35POPC  C313 4758   1.870   1.103   9.264 -0.2454 -0.0655 -0.1050
   35POPC  H13X 4759   1.903   1.001   9.233 -0.8367 -0.0738 -0.7281
   35POPC  H13Y 4760   1.934   1.167   9.201  0.3828 -1.4412 -0.9186
   35POPC  C314 4761   1.729   1.097   9.228  0.1771 -0.0847 -0.1176
   35POPC  H14X 4762   1.671   1.041   9.304  1.4218 -1.1291  0.0999
   35POPC  H14Y 4763   1.702   1.043   9.134 -0.8199 -0.1076  0.1706
   35POPC  C315 4764   1.662   1.232   9.206  0.3780  0.5577  0.0645
   35POPC  H15X 4765   1.665   1.285   9.304 -1.2532  2.2166 -0.7274
   35POPC  H15Y 4766   1.554   1.213   9.186  0.7351 -0.3947 -1.0432
   35POPC  C316 4767   1.711   1.331   9.094  0.3226  0.3383 -0.1870
   35POPC  H16X 4768   1.817   1.309   9.068  0.1807  0.9529 -1.3549
   35POPC  H16Y 4769   1.692   1.439   9.112 -1.7008  0.3336 -1.8672
   35POPC  H16Z 4770   1.665   1.309   8.995 -0.8855  1.2597  0.1513
   36POPC     N 4771   4.394   6.381  11.165  0.2627  0.6479  0.0304
   36POPC   C12 4772   4.336   6.401  11.026  0.0123 -0.4415 -0.1187
   36POPC  H12A 4773   4.284   6.495  11.033  0.9279  0.1145 -0.6720
   36POPC  H12B 4774   4.261   6.327  11.000 -0.7583  0.8130 -1.6185
   36POPC   C13 4775   4.275   6.372  11.263 -0.1437 -0.8499  0.2081
   36POPC  H13A 4776   4.248   6.472  11.291 -1.7306 -1.3128  0.4275
   36POPC  H13B 4777   4.191   6.329  11.211 -1.1244  1.1247  0.0653
   36POPC  H13C 4778   4.307   6.307  11.343  1.0456 -3.2810 -2.0709
   36POPC   C14 4779   4.482   6.255  11.174 -0.5284 -0.6039 -0.1530
   36POPC  H14A 4780   4.413   6.172  11.181  0.1314 -1.1981 -0.5287
   36POPC  H14B 4781   4.544   6.250  11.085  0.5804  0.6362  0.5246
   36POPC  H14C 4782   4.537   6.256  11.267 -0.1048 -3.3688 -0.2643
   36POPC   C15 4783   4.485   6.490  11.200  0.6017 -0.2790 -0.4303
   36POPC  H15A 4784   4.528   6.468  11.296 -2.3150 -0.6012  0.9202
   36POPC  H15B 4785   4.438   6.587  11.211  1.1722 -0.0515  0.0228
   36POPC  H15C 4786   4.565   6.500  11.128 -2.2865 -1.4096 -4.1083
   36POPC   C11 4787   4.425   6.410  10.902 -0.0469 -0.7770 -0.7426
   36POPC  H11A 4788   4.495   6.493  10.924 -0.0520 -1.1775  0.9937
   36POPC  H11B 4789   4.366   6.438  10.813  1.0219  0.6151 -1.0415
   36POPC     P 4790   4.451   6.156  10.828  0.0714 -0.0455 -0.1472
   36POPC   O13 4791   4.304   6.155  10.840  0.3599  0.5417  0.2064
   36POPC   O14 4792   4.527   6.045  10.887 -0.7701 -0.2331 -0.3289
   36POPC   O12 4793   4.507   6.297  10.881 -0.6600  0.2520 -0.1138
   36POPC   O11 4794   4.494   6.159  10.676 -0.1659 -0.2226  0.3355
   36POPC    C1 4795   4.464   6.273  10.595 -0.0057 -0.5596 -0.1571
   36POPC    HA 4796   4.519   6.361  10.636  1.1301 -1.0540 -0.5642
   36POPC    HB 4797   4.359   6.309  10.593  1.2880  3.6480 -1.2365
   36POPC    C2 4798   4.493   6.259  10.448  0.2705  0.0062  0.3602
   36POPC    HS 4799   4.449   6.346  10.395  0.3296 -0.6823 -0.8605
   36POPC   O21 4800   4.427   6.143  10.402  0.2450 -0.3403  0.6292
   36POPC   C21 4801   4.297   6.152  10.373 -0.2142 -0.3746  0.2949
   36POPC   O22 4802   4.225   6.247  10.393  0.3326 -0.3210 -0.8286
   36POPC   C22 4803   4.252   6.020  10.315 -0.1772  0.2554  0.3232
   36POPC   H2R 4804   4.261   5.950  10.401  1.9618 -0.0581 -0.1050
   36POPC   H2S 4805   4.331   5.983  10.246  2.1755  4.0632  0.6731
   36POPC    C3 4806   4.648   6.247  10.418  0.2584  0.2128 -0.0665
   36POPC    HX 4807   4.700   6.173  10.482  0.4267 -0.1478 -0.6061
   36POPC    HY 4808   4.688   6.347  10.444  1.0091  0.1322 -0.8469
   36POPC   O31 4809   4.673   6.214  10.279  0.4666  0.3932 -0.1271
   36POPC   C31 4810   4.718   6.084  10.254  0.1153 -0.0196 -0.6903
   36POPC   O32 4811   4.751   6.006  10.339  0.3628  0.5191 -0.0198
   36POPC   C32 4812   4.737   6.080  10.103  0.3665 -0.1884 -0.6913
   36POPC   H2X 4813   4.835   6.130  10.085 -0.0505  0.6772 -0.5811
   36POPC   H2Y 4814   4.654   6.143  10.066  0.4179  0.3586  0.0759
   36POPC   C23 4815   4.112   6.018  10.241  0.1557 -0.2925 -0.0713
   36POPC   H3R 4816   4.052   6.111  10.249  0.9753  0.2210  0.2520
   36POPC   H3S 4817   4.053   5.944  10.300 -0.4861  0.2178 -0.0697
   36POPC   C24 4818   4.126   5.994  10.092  0.2911  0.5328 -0.0282
   36POPC   H4R 4819   4.025   6.000  10.044  0.2518 -2.0202 -0.4135
   36POPC   H4S 4820   4.151   5.886  10.087 -0.3631  0.1679  2.7011
   36POPC   C25 4821   4.219   6.080  10.010 -0.1420 -0.0038  0.3177
   36POPC   H5R 4822   4.325   6.089  10.041 -0.1790  0.0627  0.4228
   36POPC   H5S 4823   4.176   6.182  10.019 -2.2263 -0.8672  0.7994
   36POPC   C26 4824   4.209   6.046   9.860 -0.5801 -0.1279  0.1955
   36POPC   H6R 4825   4.099   6.050   9.845 -0.5251  1.8822 -0.0256
   36POPC   H6S 4826   4.259   5.948   9.847 -1.2725 -0.3507 -0.9039
   36POPC   C27 4827   4.282   6.144   9.770  0.6208  0.2228  0.4894
   36POPC   H7R 4828   4.390   6.139   9.794  0.4949 -1.7915  0.8363
   36POPC   H7S 4829   4.233   6.244   9.768 -0.7776 -0.4104 -2.6089
   36POPC   C28 4830   4.268   6.092   9.622 -0.0623 -0.0966 -0.1143
   36POPC   H8R 4831   4.158   6.072   9.619 -0.3363  1.1316  0.9877
   36POPC   H8S 4832   4.322   5.995   9.623  0.2679  0.0825  1.6784
   36POPC   C29 4833   4.316   6.183   9.514  0.1590 -0.0581 -0.6163
   36POPC   H91 4834   4.284   6.289   9.518  0.4537  0.0106  0.0112
   36POPC  C210 4835   4.367   6.144   9.400 -0.8779  0.0194  0.4877
   36POPC  H101 4836   4.400   6.218   9.326  2.1161 -2.2916 -0.7267
   36POPC  C211 4837   4.390   6.004   9.347 -0.0130  0.7558  0.0737
   36POPC  H11R 4838   4.357   5.931   9.424  2.3721 -0.0786  0.3932
   36POPC  H11S 4839   4.499   6.003   9.328  0.5799  0.1334  2.9860
   36POPC  C212 4840   4.337   5.986   9.207  0.3217  0.6284  0.2389
   36POPC  H12R 4841   4.234   6.027   9.195  0.0759 -0.1824 -0.5178
   36POPC  H12S 4842   4.327   5.877   9.191 -2.6713  0.7948  0.2813
   36POPC  C213 4843   4.433   6.049   9.100  0.0346  1.0507  0.5542
   36POPC  H13R 4844   4.524   5.987   9.094  0.2782  1.5428 -2.0240
   36POPC  H13S 4845   4.467   6.148   9.137  0.2325  1.4269 -0.6072
   36POPC  C214 4846   4.375   6.060   8.961  0.5050 -0.5218 -0.2626
   36POPC  H14R 4847   4.307   6.148   8.962 -1.6417 -2.0754  2.0282
   36POPC  H14S 4848   4.300   5.980   8.945 -1.4245  1.7050 -3.2906
   36POPC  C215 4849   4.465   6.068   8.844 -0.3483 -0.1079 -0.1712
   36POPC  H15R 4850   4.539   5.985   8.832 -0.3290  0.1357 -2.0616
   36POPC  H15S 4851   4.524   6.161   8.862 -0.5938  0.5823 -2.5453
   36POPC  C216 4852   4.390   6.054   8.703 -0.5678  0.1050  0.7593
   36POPC  H16R 4853   4.293   6.108   8.711  0.3932  1.9646  0.3351
   36POPC  H16S 4854   4.358   5.957   8.661  1.0020 -0.9238  1.8490
   36POPC  C217 4855   4.480   6.116   8.595  0.4573 -0.3226 -0.1408
   36POPC  H17R 4856   4.573   6.055   8.594 -0.5565 -1.9248  0.2959
   36POPC  H17S 4857   4.493   6.224   8.618 -0.5243 -0.7131  2.5556
   36POPC  C218 4858   4.430   6.109   8.448 -0.1855 -0.5554 -0.8422
   36POPC  H18R 4859   4.499   6.151   8.372 -0.2534  1.7247  0.2715
   36POPC  H18S 4860   4.334   6.161   8.431  0.6061  1.9881  1.6853
   36POPC  H18T 4861   4.410   6.002   8.425 -1.4785 -0.2594 -1.1437
   36POPC   C33 4862   4.737   5.938  10.046  0.1716  0.4652  0.0777
   36POPC   H3X 4863   4.654   5.877  10.086  0.2278  1.0715  1.1429
   36POPC   H3Y 4864   4.829   5.884  10.077 -1.5055 -0.6999  3.4612
   36POPC   C34 4865   4.745   5.937   9.897  0.1365  0.7310  0.3469
   36POPC   H4X 4866   4.775   5.833   9.875  0.5316  1.4023 -2.8023
   36POPC   H4Y 4867   4.834   5.995   9.864  1.4284 -1.0141  0.6479
   36POPC   C35 4868   4.622   5.985   9.821  0.4505  0.1081  0.1292
   36POPC   H5X 4869   4.592   6.087   9.855  0.4149  0.9584 -2.2484
   36POPC   H5Y 4870   4.536   5.916   9.837  0.0711  0.8453  1.4284
   36POPC   C36 4871   4.632   5.988   9.667  0.2182  0.3766 -0.2258
   36POPC   H6X 4872   4.697   6.070   9.630  0.9187 -0.4715 -0.9274
   36POPC   H6Y 4873   4.530   6.004   9.624 -0.6639 -0.8617  1.3029
   36POPC   C37 4874   4.712   5.874   9.606  0.0111  0.5356  0.1459
   36POPC   H7X 4875   4.668   5.786   9.657  0.6625 -2.0552 -3.4014
   36POPC   H7Y 4876   4.821   5.888   9.623  0.1056  1.5323 -1.1440
   36POPC   C38 4877   4.698   5.856   9.457  0.0123  0.3392 -0.6821
   36POPC   H8X 4878   4.715   5.957   9.414  0.2690  0.3115 -0.6482
   36POPC   H8Y 4879   4.597   5.818   9.431  1.5766 -2.6938 -2.9769
   36POPC   C39 4880   4.796   5.764   9.385 -0.3183 -0.1731 -0.0056
   36POPC   H9X 4881   4.766   5.657   9.394 -1.2191 -0.0084 -0.8483
   36POPC   H9Y 4882   4.893   5.776   9.436  1.1092 -0.9451 -2.3664
   36POPC  C310 4883   4.801   5.803   9.237  0.0227  0.4743  0.5826
   36POPC  H10X 4884   4.831   5.909   9.228 -0.7207  0.6248 -0.1686
   36POPC  H10Y 4885   4.706   5.795   9.179  0.7179 -0.6077 -0.4515
   36POPC  C311 4886   4.892   5.711   9.150 -0.0523 -0.3336  0.4800
   36POPC  H11X 4887   4.833   5.618   9.139 -0.8946 -0.0676  2.3506
   36POPC  H11Y 4888   4.990   5.684   9.195 -0.8403 -1.1932  1.7506
   36POPC  C312 4889   4.896   5.755   9.005  0.7139 -0.1623  0.7457
   36POPC  H12X 4890   4.939   5.856   8.987 -1.2717  0.4286 -1.3309
   36POPC  H12Y 4891   4.789   5.770   8.978  0.6090 -1.8030  0.1074
   36POPC  C313 4892   4.958   5.659   8.901  0.1060 -0.3983 -0.2868
   36POPC  H13X 4893   4.876   5.593   8.868 -1.1792  2.0689 -2.3591
   36POPC  H13Y 4894   5.050   5.607   8.937  0.5175  0.8267  0.4994
   36POPC  C314 4895   4.996   5.728   8.771 -0.0121  0.1498  0.5078
   36POPC  H14X 4896   5.056   5.658   8.711 -1.1879  0.4556 -1.0902
   36POPC  H14Y 4897   5.052   5.820   8.798  0.5440  0.4582 -1.5919
   36POPC  C315 4898   4.879   5.792   8.691  0.7226  0.7072 -0.1535
   36POPC  H15X 4899   4.810   5.860   8.746 -2.2631 -1.4173 -0.9989
   36POPC  H15Y 4900   4.804   5.715   8.660 -0.7015  2.0417 -0.1356
   36POPC  C316 4901   4.921   5.868   8.572  0.2389 -0.6124 -0.3246
   36POPC  H16X 4902   4.834   5.878   8.504 -1.5920 -1.8622  1.7234
   36POPC  H16Y 4903   4.998   5.825   8.505  2.5876  1.3984  0.9078
   36POPC  H16Z 4904   4.942   5.972   8.606 -1.6140 -0.7763  1.5936
   37POPC     N 4905   1.235   1.127   6.537  1.0440 -0.2960 -0.2019
   37POPC   C12 4906   1.319   1.113   6.408  0.3034  0.2201 -0.0721
   37POPC  H12A 4907   1.352   1.214   6.384 -0.2523  0.1585 -1.1667
   37POPC  H12B 4908   1.259   1.080   6.325  0.0423  1.0426 -0.2275
   37POPC   C13 4909   1.169   0.997   6.574  0.2603  0.2614 -0.1683
   37POPC  H13A 4910   1.246   0.922   6.567  1.4046  1.2218  1.5023
   37POPC  H13B 4911   1.125   1.013   6.672 -1.5448  0.6401 -0.9997
   37POPC  H13C 4912   1.094   0.971   6.501 -0.2946  0.4566  0.3209
   37POPC   C14 4913   1.327   1.169   6.651  0.1860  0.4555  0.0298
   37POPC  H14A 4914   1.390   1.253   6.626 -1.6326  1.9002  0.0967
   37POPC  H14B 4915   1.274   1.188   6.743  0.6386 -1.4601  0.7326
   37POPC  H14C 4916   1.387   1.083   6.679  0.3815  0.9236  1.1297
   37POPC   C15 4917   1.127   1.233   6.525 -0.2527 -0.7187  0.4279
   37POPC  H15A 4918   1.174   1.325   6.494 -0.4775 -1.3027 -1.8027
   37POPC  H15B 4919   1.075   1.241   6.619  0.9790  1.7610  0.9852
   37POPC  H15C 4920   1.046   1.207   6.459  0.8222 -1.2701 -0.7314
   37POPC   C11 4921   1.447   1.027   6.417 -0.2384  0.8082 -0.8263
   37POPC  H11A 4922   1.530   1.091   6.456 -0.5981  0.0270  1.3419
   37POPC  H11B 4923   1.464   0.999   6.311 -0.2457  2.0212 -1.1648
   37POPC     P 4924   1.558   0.826   6.543 -0.2790 -0.0719 -0.2339
   37POPC   O13 4925   1.689   0.867   6.474 -0.0124  0.0394 -0.5650
   37POPC   O14 4926   1.524   0.682   6.530  0.0232 -0.1741  0.3378
   37POPC   O12 4927   1.431   0.912   6.505  0.7849 -0.1987  0.5737
   37POPC   O11 4928   1.571   0.870   6.694  0.1243 -0.0301 -0.5561
   37POPC    C1 4929   1.654   0.963   6.760 -0.2230  0.5560  0.6907
   37POPC    HA 4930   1.595   1.007   6.844 -0.3394 -1.5709  1.7799
   37POPC    HB 4931   1.704   1.036   6.693 -3.2722  0.4836 -1.9185
   37POPC    C2 4932   1.762   0.895   6.851  0.0918  0.2145 -0.3941
   37POPC    HS 4933   1.835   0.837   6.790  1.3682  2.7257 -1.4247
   37POPC   O21 4934   1.697   0.826   6.950  0.0220  0.5467  0.3590
   37POPC   C21 4935   1.693   0.693   6.943 -0.1403 -0.7743  0.1454
   37POPC   O22 4936   1.732   0.628   6.852  0.3031 -0.6030  0.0496
   37POPC   C22 4937   1.629   0.628   7.069  0.8544 -0.0224  0.0475
   37POPC   H2R 4938   1.686   0.540   7.104 -2.7482 -1.7572  2.0504
   37POPC   H2S 4939   1.529   0.600   7.029  0.9942 -1.9344  0.9528
   37POPC    C3 4940   1.840   1.010   6.909 -0.5696  0.0514  0.6921
   37POPC    HX 4941   1.782   1.105   6.912  0.9881  1.0204  1.6108
   37POPC    HY 4942   1.918   1.044   6.837 -1.9665  1.0954 -0.3793
   37POPC   O31 4943   1.895   0.988   7.039 -0.0857 -0.7622  0.9146
   37POPC   C31 4944   1.993   0.904   7.042 -1.0258 -0.3322 -0.3257
   37POPC   O32 4945   2.042   0.852   6.942  0.3364 -0.5053  0.4796
   37POPC   C32 4946   2.043   0.875   7.187 -0.1801  0.8276 -0.0552
   37POPC   H2X 4947   2.154   0.876   7.181 -0.2053  2.1814 -1.0574
   37POPC   H2Y 4948   2.018   0.769   7.208 -0.7657  0.4225 -2.4087
   37POPC   C23 4949   1.622   0.724   7.183 -0.1791 -0.4105  0.1126
   37POPC   H3R 4950   1.560   0.812   7.155  0.0459 -0.1305  0.4860
   37POPC   H3S 4951   1.714   0.780   7.210 -1.8079  0.9027  3.5328
   37POPC   C24 4952   1.566   0.662   7.310 -0.2055  0.0918 -0.1762
   37POPC   H4R 4953   1.624   0.571   7.335  0.1349  0.0403 -1.1243
   37POPC   H4S 4954   1.465   0.615   7.301  0.6304 -1.7523 -0.2346
   37POPC   C25 4955   1.572   0.748   7.434  0.6626 -0.6050 -0.3438
   37POPC   H5R 4956   1.541   0.854   7.427 -2.3381 -1.2655  1.0164
   37POPC   H5S 4957   1.675   0.750   7.477  0.5019  2.0159  0.0495
   37POPC   C26 4958   1.490   0.680   7.552 -0.1291 -0.1988 -0.1599
   37POPC   H6R 4959   1.507   0.571   7.568 -0.4425 -0.1286  0.7050
   37POPC   H6S 4960   1.386   0.711   7.528 -1.3328 -0.5497  3.8915
   37POPC   C27 4961   1.525   0.726   7.694 -0.3694  0.0622 -0.5937
   37POPC   H7R 4962   1.447   0.670   7.749 -2.8070  2.0705 -1.8301
   37POPC   H7S 4963   1.512   0.836   7.706  3.0625  0.6626 -1.2853
   37POPC   C28 4964   1.660   0.681   7.759 -0.4924 -0.4206  0.3821
   37POPC   H8R 4965   1.743   0.728   7.701 -0.2824 -0.0939  0.9455
   37POPC   H8S 4966   1.670   0.570   7.749  0.0125 -0.6403  2.7393
   37POPC   C29 4967   1.678   0.713   7.902 -0.0032 -0.0960  0.0859
   37POPC   H91 4968   1.700   0.818   7.928  0.1284 -0.6705  2.4310
   37POPC  C210 4969   1.671   0.625   8.005  0.1696 -0.1077  0.0318
   37POPC  H101 4970   1.682   0.661   8.109  1.4752  3.1992 -1.1185
   37POPC  C211 4971   1.652   0.476   7.995 -0.1025  0.0905 -0.2547
   37POPC  H11R 4972   1.664   0.440   7.890 -1.4744 -1.0340 -0.0589
   37POPC  H11S 4973   1.550   0.444   8.024 -1.0170  2.2914 -0.8368
   37POPC  C212 4974   1.753   0.394   8.067 -0.2767 -0.0644 -0.1224
   37POPC  H12R 4975   1.850   0.439   8.037 -0.7585  2.4679  1.8004
   37POPC  H12S 4976   1.763   0.293   8.022  0.0498  0.5932 -1.5982
   37POPC  C213 4977   1.748   0.393   8.221  0.5430  0.1193 -0.1394
   37POPC  H13R 4978   1.706   0.294   8.250 -2.5972  0.3394 -3.2492
   37POPC  H13S 4979   1.679   0.473   8.256  1.3119  1.1899 -1.0230
   37POPC  C214 4980   1.886   0.422   8.284 -0.4179 -0.2217 -0.1100
   37POPC  H14R 4981   1.916   0.522   8.248 -0.8903 -0.2475 -0.5730
   37POPC  H14S 4982   1.950   0.346   8.233 -2.5956 -2.9052  0.9048
   37POPC  C215 4983   1.891   0.398   8.436 -0.3471  0.8018  0.1143
   37POPC  H15R 4984   1.998   0.413   8.462 -0.3574  2.3871 -0.6407
   37POPC  H15S 4985   1.851   0.296   8.457  1.0895  0.0786 -0.4987
   37POPC  C216 4986   1.802   0.498   8.509 -0.7272 -0.5119  0.1088
   37POPC  H16R 4987   1.699   0.500   8.469 -1.5369 -0.3902  2.0842
   37POPC  H16S 4988   1.865   0.589   8.494  0.7703 -1.6584 -0.8352
   37POPC  C217 4989   1.780   0.489   8.660 -0.8728  0.2632 -0.5961
   37POPC  H17R 4990   1.733   0.395   8.695 -1.6473  0.7881 -0.2046
   37POPC  H17S 4991   1.719   0.576   8.693 -1.2953 -0.1221 -0.3547
   37POPC  C218 4992   1.907   0.505   8.736 -0.5004  0.1729 -0.2671
   37POPC  H18R 4993   1.892   0.480   8.843  0.6784 -0.6225 -0.2664
   37POPC  H18S 4994   1.963   0.600   8.718  0.3534 -0.3362 -0.3477
   37POPC  H18T 4995   1.981   0.424   8.718  1.4246  1.2736  2.0779
   37POPC   C33 4996   1.981   0.971   7.288  0.5767  0.1355  0.9460
   37POPC   H3X 4997   1.871   0.964   7.292  0.4559  1.3588  0.4144
   37POPC   H3Y 4998   1.994   1.079   7.263 -2.0681  0.2805 -0.0425
   37POPC   C34 4999   2.046   0.941   7.420 -0.5764 -0.4973  0.1006
   37POPC   H4X 5000   2.155   0.961   7.424 -0.9200  1.4278  0.8168
   37POPC   H4Y 5001   2.031   0.831   7.424 -0.3507 -0.6236 -1.7304
   37POPC   C35 5002   1.980   0.986   7.550 -0.4528 -0.6080 -0.1189
   37POPC   H5X 5003   1.874   0.957   7.534 -0.0403 -0.8519 -3.0690
   37POPC   H5Y 5004   1.975   1.097   7.552 -0.1393 -0.6071  0.6666
   37POPC   C36 5005   2.029   0.918   7.676  0.0517 -0.2962  0.2253
   37POPC   H6X 5006   2.140   0.916   7.666  0.0954  1.2360  0.0155
   37POPC   H6Y 5007   2.008   0.810   7.665  1.0754 -0.6060  1.1668
   37POPC   C37 5008   1.984   0.987   7.805  0.0282 -0.3547  1.1077
   37POPC   H7X 5009   1.873   0.990   7.802  0.0353  2.5858  1.2837
   37POPC   H7Y 5010   2.012   1.094   7.795  0.6112 -0.6332 -0.6526
   37POPC   C38 5011   2.043   0.925   7.928  0.2154  0.3193  0.0602
   37POPC   H8X 5012   2.151   0.950   7.941  0.8543 -1.7996 -0.8043
   37POPC   H8Y 5013   2.033   0.817   7.905  0.7216  0.6191 -1.6924
   37POPC   C39 5014   1.962   0.978   8.045  0.2506 -0.1097 -0.7048
   37POPC   H9X 5015   1.855   0.984   8.015 -0.3995  0.1830  1.4667
   37POPC   H9Y 5016   1.996   1.081   8.066 -0.6984  0.2037 -0.6463
   37POPC  C310 5017   1.972   0.892   8.175 -0.5665  0.0980 -0.0628
   37POPC  H10X 5018   2.078   0.864   8.192 -0.5767 -0.8267 -1.3670
   37POPC  H10Y 5019   1.926   0.793   8.153  0.3074 -0.7102  1.4961
   37POPC  C311 5020   1.926   0.957   8.313  1.2559  0.3823  0.2052
   37POPC  H11X 5021   1.818   0.977   8.299  1.2801 -0.0385 -0.6451
   37POPC  H11Y 5022   1.967   1.060   8.318 -0.7155  1.2262 -0.3428
   37POPC  C312 5023   1.966   0.888   8.435  0.3570 -0.3674 -0.6537
   37POPC  H12X 5024   1.946   0.780   8.420  2.2738 -0.8663  0.1065
   37POPC  H12Y 5025   1.910   0.907   8.529  0.4481 -1.1521 -0.4349
   37POPC  C313 5026   2.116   0.890   8.465  0.1447 -0.2759 -0.9951
   37POPC  H13X 5027   2.143   0.994   8.493  1.6512 -0.6941 -0.8152
   37POPC  H13Y 5028   2.174   0.866   8.373 -0.7268 -0.1630 -1.5921
   37POPC  C314 5029   2.156   0.788   8.576  1.1507 -0.0078  0.7434
   37POPC  H14X 5030   2.099   0.695   8.557  1.1357  0.2224 -0.3916
   37POPC  H14Y 5031   2.117   0.817   8.676  0.7128 -3.1519  1.5802
   37POPC  C315 5032   2.310   0.774   8.592 -0.5801 -0.2677  0.0656
   37POPC  H15X 5033   2.347   0.754   8.489 -0.1382  2.2793 -0.3206
   37POPC  H15Y 5034   2.334   0.693   8.665  3.1935  0.7468  0.1485
   37POPC  C316 5035   2.398   0.891   8.634  0.0872  0.0416 -0.1559
   37POPC  H16X 5036   2.377   0.927   8.737  0.7994  0.5528 -0.1808
   37POPC  H16Y 5037   2.382   0.977   8.566  0.1791  1.8741  2.0263
   37POPC  H16Z 5038   2.507   0.867   8.634 -0.0665 -0.8018 -1.8787
   38POPC     N 5039   2.467   4.134   6.533 -0.2932 -0.6542  0.3315
   38POPC   C12 5040   2.477   4.249   6.629 -0.0074 -0.4007  0.7535
   38POPC  H12A 5041   2.582   4.275   6.630  0.1982 -1.1842  1.6017
   38POPC  H12B 5042   2.467   4.208   6.729  1.7463 -0.9028  0.7494
   38POPC   C13 5043   2.339   4.061   6.578  0.6934 -0.3936 -0.1440
   38POPC  H13A 5044   2.332   3.964   6.531  1.1101 -1.2720  1.5383
   38POPC  H13B 5045   2.351   4.041   6.683  0.1530 -0.0001 -0.0018
   38POPC  H13C 5046   2.253   4.125   6.564  1.6571  1.3350  1.4562
   38POPC   C14 5047   2.443   4.184   6.391 -0.0056  0.0475  0.5286
   38POPC  H14A 5048   2.536   4.210   6.343 -0.2690 -1.9647 -1.2109
   38POPC  H14B 5049   2.389   4.114   6.329  2.2118 -1.7050  0.4859
   38POPC  H14C 5050   2.388   4.277   6.393  0.3151  0.3837 -2.1775
   38POPC   C15 5051   2.575   4.035   6.543  0.2008 -0.2722 -0.0535
   38POPC  H15A 5052   2.564   3.964   6.462  0.2680 -0.3426 -0.0000
   38POPC  H15B 5053   2.568   3.984   6.638 -1.0527  0.8137  0.4793
   38POPC  H15C 5054   2.674   4.077   6.546  1.1520 -2.3551 -0.9611
   38POPC   C11 5055   2.384   4.369   6.602  0.2964 -0.5658 -0.3355
   38POPC  H11A 5056   2.401   4.440   6.687 -0.0473 -0.9255  0.0418
   38POPC  H11B 5057   2.276   4.344   6.597  0.6550 -2.2646 -0.1805
   38POPC     P 5058   2.306   4.548   6.430  0.2392 -0.0130 -0.4121
   38POPC   O13 5059   2.186   4.562   6.514  0.1462 -0.0597 -0.1206
   38POPC   O14 5060   2.285   4.527   6.281  0.4662 -0.2157  0.4619
   38POPC   O12 5061   2.409   4.435   6.485  0.4642  0.0473 -0.0074
   38POPC   O11 5062   2.392   4.677   6.458  0.0362  0.0781  0.5678
   38POPC    C1 5063   2.529   4.678   6.422 -0.2196 -0.2140 -0.0616
   38POPC    HA 5064   2.549   4.774   6.370 -1.8210 -0.2966 -0.9083
   38POPC    HB 5065   2.552   4.599   6.346  1.6842 -0.6540  0.9133
   38POPC    C2 5066   2.632   4.648   6.532 -0.4020  0.4312 -0.0555
   38POPC    HS 5067   2.578   4.559   6.572 -1.0942 -1.5476 -4.7445
   38POPC   O21 5068   2.654   4.767   6.614 -0.0193  0.3005 -0.2236
   38POPC   C21 5069   2.631   4.717   6.744 -0.3864 -0.4501  0.6506
   38POPC   O22 5070   2.641   4.603   6.781 -0.2008 -0.3189 -0.8849
   38POPC   C22 5071   2.610   4.836   6.838 -0.2491 -0.0413  0.0048
   38POPC   H2R 5072   2.530   4.894   6.786  0.0750  1.4872  1.1407
   38POPC   H2S 5073   2.702   4.898   6.840  0.0318 -0.3946 -1.1193
   38POPC    C3 5074   2.770   4.603   6.484 -0.6943  0.0918  0.7378
   38POPC    HX 5075   2.818   4.687   6.430  1.8452 -1.1778  0.8674
   38POPC    HY 5076   2.762   4.522   6.408 -0.1528 -1.3730  2.1743
   38POPC   O31 5077   2.858   4.570   6.594 -0.6779 -0.0099 -0.3503
   38POPC   C31 5078   2.837   4.449   6.644  0.5807  0.4118 -0.0718
   38POPC   O32 5079   2.770   4.363   6.596  0.4117 -0.1823 -0.5101
   38POPC   C32 5080   2.921   4.429   6.766  0.0015  0.1507  0.3332
   38POPC   H2X 5081   2.925   4.519   6.830  1.8158 -0.1194  0.6632
   38POPC   H2Y 5082   3.023   4.401   6.729  0.4623  2.7268 -0.5104
   38POPC   C23 5083   2.564   4.807   6.980 -0.0623 -0.3006 -0.2007
   38POPC   H3R 5084   2.481   4.734   6.988 -2.0865  1.9624  0.5054
   38POPC   H3S 5085   2.522   4.899   7.024 -2.3096 -0.8305 -1.1081
   38POPC   C24 5086   2.679   4.772   7.074 -0.4419  0.2127  0.5346
   38POPC   H4R 5087   2.764   4.844   7.069  0.4843 -0.9514 -1.9382
   38POPC   H4S 5088   2.723   4.673   7.050 -1.9603 -0.2813 -0.2919
   38POPC   C25 5089   2.638   4.751   7.221 -0.5370 -0.0485  0.3327
   38POPC   H5R 5090   2.588   4.843   7.260 -3.0480  0.3180 -3.2762
   38POPC   H5S 5091   2.730   4.734   7.281  0.3777 -0.6090 -1.2007
   38POPC   C26 5092   2.530   4.644   7.237  0.0361 -0.1896  0.6029
   38POPC   H6R 5093   2.545   4.548   7.182 -1.3219  0.4868 -1.0262
   38POPC   H6S 5094   2.443   4.698   7.196  0.2223  0.0996  0.5855
   38POPC   C27 5095   2.495   4.608   7.384  0.3327 -0.4391 -0.5986
   38POPC   H7R 5096   2.397   4.556   7.375  0.0397  0.2066 -1.2779
   38POPC   H7S 5097   2.483   4.690   7.458 -0.4754 -2.0567  1.1483
   38POPC   C28 5098   2.592   4.510   7.450  1.0656 -0.3598 -1.0104
   38POPC   H8R 5099   2.690   4.559   7.470  1.5223 -0.2153 -3.3830
   38POPC   H8S 5100   2.608   4.418   7.390 -1.0485 -1.3763 -0.1389
   38POPC   C29 5101   2.526   4.464   7.578  0.3016  0.0921 -0.9716
   38POPC   H91 5102   2.441   4.395   7.566  1.0490 -1.1592  0.5706
   38POPC  C210 5103   2.562   4.488   7.703  0.0869 -0.8160  0.7306
   38POPC  H101 5104   2.496   4.447   7.781  0.4034  0.2692  1.5898
   38POPC  C211 5105   2.680   4.574   7.740  0.2136  0.4933  0.1477
   38POPC  H11R 5106   2.639   4.676   7.760 -0.0185  0.7487 -1.4925
   38POPC  H11S 5107   2.757   4.586   7.661  0.3516  2.4857  0.5237
   38POPC  C212 5108   2.753   4.539   7.871  0.1753 -0.4402 -0.6434
   38POPC  H12R 5109   2.848   4.593   7.894 -0.9601  0.7568  1.5856
   38POPC  H12S 5110   2.791   4.436   7.854  0.1329 -0.4007 -0.9973
   38POPC  C213 5111   2.678   4.562   8.001  0.0248  0.5053 -0.1702
   38POPC  H13R 5112   2.579   4.512   8.002 -2.0933  4.2590  2.4856
   38POPC  H13S 5113   2.655   4.670   8.012 -1.9299  0.1714 -0.6073
   38POPC  C214 5114   2.750   4.529   8.137 -0.8970 -0.0252 -0.0173
   38POPC  H14R 5115   2.844   4.588   8.141  0.5064 -2.2106  2.1761
   38POPC  H14S 5116   2.771   4.420   8.143 -1.1046 -0.2000 -1.8463
   38POPC  C215 5117   2.668   4.563   8.264 -0.0948  0.3168  0.2700
   38POPC  H15R 5118   2.585   4.490   8.275 -1.1902  1.5212  0.2605
   38POPC  H15S 5119   2.631   4.667   8.259  1.6223  0.9603  0.3749
   38POPC  C216 5120   2.755   4.557   8.387  0.3193  0.1581 -0.7856
   38POPC  H16R 5121   2.859   4.580   8.356  0.4304  0.2767 -0.3225
   38POPC  H16S 5122   2.741   4.454   8.425  0.2083  0.4028 -0.1616
   38POPC  C217 5123   2.695   4.635   8.505 -0.2481  0.2981  0.0966
   38POPC  H17R 5124   2.593   4.601   8.534 -1.0076  1.9017 -0.5471
   38POPC  H17S 5125   2.709   4.739   8.467  1.4508  0.2897  0.6085
   38POPC  C218 5126   2.784   4.624   8.627  0.2036  0.3688  0.0117
   38POPC  H18R 5127   2.790   4.523   8.673  1.2703  0.4361  0.0553
   38POPC  H18S 5128   2.755   4.694   8.708  0.1351 -1.3050  1.4722
   38POPC  H18T 5129   2.887   4.654   8.596  0.0361  3.3915  2.0113
   38POPC   C33 5130   2.862   4.322   6.864  0.1090 -0.1774 -0.8037
   38POPC   H3X 5131   2.832   4.230   6.810 -0.4568  0.4525 -1.5812
   38POPC   H3Y 5132   2.772   4.368   6.912  0.4198  0.3976 -0.7577
   38POPC   C34 5133   2.940   4.281   6.984  0.0120 -0.3234  0.1443
   38POPC   H4X 5134   2.995   4.369   7.025 -0.8166  0.2965 -0.0467
   38POPC   H4Y 5135   3.009   4.196   6.971 -1.8899 -2.1452  1.3894
   38POPC   C35 5136   2.844   4.237   7.097  0.4503 -0.2995  0.7308
   38POPC   H5X 5137   2.783   4.156   7.050  0.0564 -0.0850  0.8647
   38POPC   H5Y 5138   2.783   4.329   7.113 -1.9795 -1.3074 -1.8087
   38POPC   C36 5139   2.925   4.204   7.227  0.2993 -0.5351  0.3943
   38POPC   H6X 5140   3.002   4.281   7.247  1.2926 -1.0927 -1.0780
   38POPC   H6Y 5141   2.985   4.113   7.202  1.2212  0.9090 -3.3532
   38POPC   C37 5142   2.836   4.200   7.352  0.7648 -0.2520 -0.2194
   38POPC   H7X 5143   2.749   4.131   7.354  1.5144 -1.2124  0.9964
   38POPC   H7Y 5144   2.787   4.299   7.362 -1.8046 -1.5226  0.5502
   38POPC   C38 5145   2.921   4.166   7.478 -0.2419 -0.3538 -0.0587
   38POPC   H8X 5146   2.996   4.248   7.491 -0.9639  0.3990 -0.5694
   38POPC   H8Y 5147   2.981   4.075   7.456  2.4069  1.4215 -0.7517
   38POPC   C39 5148   2.838   4.156   7.608  0.2436 -0.0636  0.6742
   38POPC   H9X 5149   2.760   4.080   7.588  1.1787 -0.3326 -2.3806
   38POPC   H9Y 5150   2.787   4.254   7.625 -0.6088 -0.6928  1.8826
   38POPC  C310 5151   2.914   4.107   7.727 -0.3896  0.2742 -0.4318
   38POPC  H10X 5152   3.012   4.157   7.740 -1.1917  3.0047 -3.5836
   38POPC  H10Y 5153   2.937   4.000   7.705  1.2190  1.1599 -3.7519
   38POPC  C311 5154   2.825   4.106   7.857  0.3462  0.7688 -0.0592
   38POPC  H11X 5155   2.727   4.058   7.834 -0.4467  2.7291 -1.0183
   38POPC  H11Y 5156   2.801   4.210   7.891 -0.6059  0.1217  1.3396
   38POPC  C312 5157   2.876   4.022   7.975 -0.3132 -0.2701 -0.0866
   38POPC  H12X 5158   2.986   4.017   7.988 -0.1411  0.6668 -1.0574
   38POPC  H12Y 5159   2.854   3.914   7.962  0.8258 -0.5213 -0.0748
   38POPC  C313 5160   2.809   4.075   8.101  0.0323 -0.3054  0.5698
   38POPC  H13X 5161   2.700   4.073   8.078 -0.2648  2.2952  1.4955
   38POPC  H13Y 5162   2.812   4.183   8.127  2.6608 -0.1694  0.0184
   38POPC  C314 5163   2.850   3.989   8.220 -0.1091 -0.3140 -0.4460
   38POPC  H14X 5164   2.947   4.026   8.260 -0.7266  1.7645 -0.7516
   38POPC  H14Y 5165   2.867   3.886   8.183  1.6525 -0.8338  1.6329
   38POPC  C315 5166   2.748   3.996   8.338  0.5602  0.4953  0.5876
   38POPC  H15X 5167   2.805   3.942   8.416  0.7542 -0.7537 -0.3774
   38POPC  H15Y 5168   2.661   3.929   8.318  0.2038  0.5767  1.8117
   38POPC  C316 5169   2.726   4.144   8.378 -0.3645  0.2121  0.0602
   38POPC  H16X 5170   2.822   4.199   8.375 -0.4320  0.2862 -1.3474
   38POPC  H16Y 5171   2.685   4.146   8.481 -0.6577 -0.8179 -0.0203
   38POPC  H16Z 5172   2.649   4.185   8.309 -0.3065 -0.1158 -0.2075
   39POPC     N 5173   6.439   0.903   5.841  0.2170 -0.0622 -0.2053
   39POPC   C12 5174   6.501   0.964   5.966 -0.5220  0.5781 -0.5294
   39POPC  H12A 5175   6.424   0.985   6.039  1.2882  1.4705  1.2221
   39POPC  H12B 5176   6.554   1.055   5.942 -0.3425  1.3272  2.2876
   39POPC   C13 5177   6.540   0.881   5.738  0.0461  0.5551 -0.0354
   39POPC  H13A 5178   6.603   0.796   5.757 -1.8696 -0.7711  0.7548
   39POPC  H13B 5179   6.500   0.847   5.643  2.1019 -2.6305  0.1001
   39POPC  H13C 5180   6.585   0.977   5.717 -0.0840  1.1325  2.1575
   39POPC   C14 5181   6.358   0.780   5.862 -0.1998  0.1967  0.0132
   39POPC  H14A 5182   6.309   0.746   5.772  1.9616  2.4298 -2.1604
   39POPC  H14B 5183   6.408   0.695   5.906  0.1419 -0.1942 -1.1165
   39POPC  H14C 5184   6.274   0.813   5.922  1.1883  0.1703  2.1054
   39POPC   C15 5185   6.336   0.999   5.790  0.1295  0.0005  0.7454
   39POPC  H15A 5186   6.298   0.960   5.697  0.1725 -1.6150  1.3782
   39POPC  H15B 5187   6.378   1.095   5.764 -0.9004  0.5066  0.9306
   39POPC  H15C 5188   6.254   1.008   5.859  0.3731 -3.5956  1.7173
   39POPC   C11 5189   6.602   0.874   6.048 -0.4028  0.1363 -0.4782
   39POPC  H11A 5190   6.638   0.935   6.133 -0.1414 -1.3125  0.4772
   39POPC  H11B 5191   6.690   0.851   5.984 -0.6046 -1.5692 -0.1925
   39POPC     P 5192   6.619   0.624   6.117 -0.1448 -0.0304 -0.1505
   39POPC   O13 5193   6.734   0.618   6.022 -0.4592  0.0615  0.3079
   39POPC   O14 5194   6.525   0.512   6.105 -0.3373 -0.4710 -0.2380
   39POPC   O12 5195   6.541   0.753   6.100 -0.1076  0.0477  0.7038
   39POPC   O11 5196   6.675   0.628   6.261  0.3363 -0.6275  0.2111
   39POPC    C1 5197   6.577   0.670   6.362  0.7559  0.4346 -0.0885
   39POPC    HA 5198   6.475   0.646   6.327  0.8266  0.1835 -0.1199
   39POPC    HB 5199   6.588   0.780   6.374  1.0103  0.5613 -1.3950
   39POPC    C2 5200   6.597   0.601   6.501  0.2338  0.0159 -0.6272
   39POPC    HS 5201   6.505   0.615   6.562  1.8066  0.3069  1.8052
   39POPC   O21 5202   6.714   0.645   6.572 -0.0631 -0.0681 -0.2030
   39POPC   C21 5203   6.706   0.762   6.631 -0.1177 -0.0615  0.7572
   39POPC   O22 5204   6.606   0.830   6.631  0.2799 -0.1830 -0.3556
   39POPC   C22 5205   6.830   0.790   6.712 -0.8214  0.3886 -0.3403
   39POPC   H2R 5206   6.910   0.716   6.687 -1.1324 -0.7236  1.7091
   39POPC   H2S 5207   6.797   0.767   6.816 -1.7879  1.1327 -0.4727
   39POPC    C3 5208   6.610   0.450   6.481 -0.0150  0.3883 -0.6457
   39POPC    HX 5209   6.713   0.419   6.457  0.6190 -0.4878  2.6484
   39POPC    HY 5210   6.549   0.421   6.393  0.4148  0.3899 -0.9445
   39POPC   O31 5211   6.560   0.379   6.601  0.7121 -0.2579  0.7249
   39POPC   C31 5212   6.546   0.246   6.583 -0.0511 -0.5164  0.4914
   39POPC   O32 5213   6.578   0.186   6.481 -0.0287  0.5202 -0.4235
   39POPC   C32 5214   6.497   0.180   6.711 -0.3106  0.4432  0.2393
   39POPC   H2X 5215   6.528   0.246   6.794 -0.6264 -3.0777  3.4452
   39POPC   H2Y 5216   6.387   0.176   6.700 -0.1590 -0.6840 -1.1657
   39POPC   C23 5217   6.890   0.931   6.714  0.1380  0.0117 -0.0284
   39POPC   H3R 5218   6.894   0.961   6.607 -0.6666 -2.2936 -0.7680
   39POPC   H3S 5219   6.996   0.930   6.745  0.6752  0.1499 -1.7585
   39POPC   C24 5220   6.821   1.035   6.808  0.8548  0.2326  0.2565
   39POPC   H4R 5221   6.717   1.056   6.773  1.0954  3.2484  1.0882
   39POPC   H4S 5222   6.861   1.138   6.799 -1.5630  1.3379  1.1277
   39POPC   C25 5223   6.833   1.000   6.957 -0.5575 -0.2473  0.0933
   39POPC   H5R 5224   6.935   0.957   6.964  0.5034  1.8545 -1.4091
   39POPC   H5S 5225   6.758   0.919   6.969 -1.0795 -0.0541 -1.6102
   39POPC   C26 5226   6.816   1.108   7.059  0.5183 -0.4047 -0.1734
   39POPC   H6R 5227   6.878   1.198   7.042  1.3421 -0.8952  0.1852
   39POPC   H6S 5228   6.846   1.066   7.157 -2.6388  2.2851  2.1654
   39POPC   C27 5229   6.674   1.159   7.067  0.0273  0.1669  0.3966
   39POPC   H7R 5230   6.647   1.186   6.963  2.3903 -1.4230 -0.7149
   39POPC   H7S 5231   6.679   1.246   7.136 -2.3746  1.1919 -0.5937
   39POPC   C28 5232   6.567   1.056   7.120 -0.0527  0.0065 -0.1761
   39POPC   H8R 5233   6.552   0.976   7.045  0.9489  1.0435 -1.5374
   39POPC   H8S 5234   6.470   1.111   7.116 -0.2715 -0.4298 -1.3893
   39POPC   C29 5235   6.598   0.991   7.254 -0.0288  0.3690 -0.8286
   39POPC   H91 5236   6.637   0.889   7.238 -0.9111  0.0068 -0.6921
   39POPC  C210 5237   6.585   1.036   7.385 -0.0840  0.0804  0.7930
   39POPC  H101 5238   6.611   0.969   7.468 -0.8281 -0.2746  0.7508
   39POPC  C211 5239   6.519   1.159   7.438  0.2669 -0.1152  0.5001
   39POPC  H11R 5240   6.476   1.209   7.349  0.7125 -2.0867 -0.9148
   39POPC  H11S 5241   6.603   1.226   7.467  2.7771 -1.5452 -2.6994
   39POPC  C212 5242   6.411   1.130   7.535  0.0135  0.2423 -0.1532
   39POPC  H12R 5243   6.354   1.053   7.478 -0.2932  0.8758 -0.7178
   39POPC  H12S 5244   6.354   1.223   7.554 -1.0718 -0.4059 -0.1242
   39POPC  C213 5245   6.464   1.067   7.666  0.3562 -0.9613  0.1050
   39POPC  H13R 5246   6.553   1.122   7.703 -0.3589  1.1985 -1.1895
   39POPC  H13S 5247   6.497   0.963   7.644 -0.4824 -0.5786 -3.6731
   39POPC  C214 5248   6.366   1.060   7.788 -0.7529 -0.0656  0.9379
   39POPC  H14R 5249   6.274   1.003   7.760 -0.4688 -0.1844  0.2057
   39POPC  H14S 5250   6.347   1.162   7.828 -0.9366  0.4290 -0.3420
   39POPC  C215 5251   6.425   0.971   7.900 -0.4804 -0.5927 -0.3661
   39POPC  H15R 5252   6.376   1.004   7.995  1.4711 -1.7196  1.1140
   39POPC  H15S 5253   6.533   0.990   7.914 -0.7930  0.5026  0.8408
   39POPC  C216 5254   6.399   0.823   7.893  0.4194  0.0181 -0.1836
   39POPC  H16R 5255   6.450   0.778   7.805  2.8306  0.7414  0.7502
   39POPC  H16S 5256   6.290   0.802   7.895  0.6513 -1.3873  1.7806
   39POPC  C217 5257   6.457   0.761   8.020  0.7239  0.4590  0.3688
   39POPC  H17R 5258   6.424   0.655   8.018  1.2914  0.2935 -1.0965
   39POPC  H17S 5259   6.415   0.811   8.111  0.3610  2.0816 -0.6436
   39POPC  C218 5260   6.607   0.759   8.041  0.1820 -0.2270  0.0664
   39POPC  H18R 5261   6.643   0.837   8.112  2.6768 -2.2512  1.1716
   39POPC  H18S 5262   6.654   0.778   7.942  0.6029  1.4788  0.5613
   39POPC  H18T 5263   6.630   0.655   8.073 -1.9140 -1.0286 -0.8251
   39POPC   C33 5264   6.571   0.047   6.731  0.2352 -0.2295  0.0379
   39POPC   H3X 5265   6.569  -0.016   6.640 -1.7442  1.0256 -0.8308
   39POPC   H3Y 5266   6.515  -0.008   6.810  0.2410  0.0889  0.2660
   39POPC   C34 5267   6.718   0.060   6.784  0.0226 -0.3651  0.6244
   39POPC   H4X 5268   6.775   0.122   6.712  1.9985 -1.9410  0.7295
   39POPC   H4Y 5269   6.770  -0.038   6.784  0.6307 -0.0505  0.7200
   39POPC   C35 5270   6.722   0.132   6.925  0.5141 -0.1748  1.0600
   39POPC   H5X 5271   6.658   0.222   6.927  0.4335 -0.0941 -1.8367
   39POPC   H5Y 5272   6.827   0.164   6.943  1.1050 -1.5658  0.2337
   39POPC   C36 5273   6.684   0.036   7.038 -0.3390 -0.0306  0.1788
   39POPC   H6X 5274   6.751  -0.052   7.037 -0.1629  0.0959  0.7300
   39POPC   H6Y 5275   6.582  -0.001   7.011  0.2756 -1.2316 -0.5899
   39POPC   C37 5276   6.686   0.091   7.184  0.1867  0.4696  0.6170
   39POPC   H7X 5277   6.627   0.184   7.197  2.5125  1.6757  3.4840
   39POPC   H7Y 5278   6.794   0.102   7.206  0.7122 -0.2257 -1.4322
   39POPC   C38 5279   6.639  -0.032   7.259  0.4003  0.5670  0.0291
   39POPC   H8X 5280   6.720  -0.107   7.269 -1.1393 -1.1666 -0.0123
   39POPC   H8Y 5281   6.560  -0.084   7.201  0.0344 -0.9411  1.8144
   39POPC   C39 5282   6.588   0.000   7.401 -0.5532 -0.4607  0.1609
   39POPC   H9X 5283   6.509   0.078   7.402 -1.8281 -1.6675  2.8432
   39POPC   H9Y 5284   6.677   0.029   7.462 -1.5108 -0.7222  1.7281
   39POPC  C310 5285   6.523  -0.121   7.468 -0.0233 -0.1702  0.1320
   39POPC  H10X 5286   6.591  -0.209   7.468 -0.5145 -0.5633 -0.6479
   39POPC  H10Y 5287   6.443  -0.143   7.395 -1.4140  0.5839  1.3816
   39POPC  C311 5288   6.442  -0.089   7.589  0.0896 -0.0661 -0.3191
   39POPC  H11X 5289   6.368  -0.011   7.559 -1.6129 -0.8133  1.6945
   39POPC  H11Y 5290   6.505  -0.040   7.667  1.5432  0.5062 -1.7812
   39POPC  C312 5291   6.358  -0.214   7.628  0.3454  0.5097  0.3587
   39POPC  H12X 5292   6.319  -0.260   7.535  2.5560 -2.0076  0.5520
   39POPC  H12Y 5293   6.276  -0.184   7.697 -0.2624 -0.2160 -0.0439
   39POPC  C313 5294   6.433  -0.329   7.699  0.0102  0.3025 -0.2693
   39POPC  H13X 5295   6.515  -0.356   7.629  0.8500  0.4953  0.6210
   39POPC  H13Y 5296   6.359  -0.411   7.685 -0.8917  0.9582  0.5438
   39POPC  C314 5297   6.478  -0.310   7.841  0.8128  0.2171  0.2035
   39POPC  H14X 5298   6.513  -0.412   7.867 -0.1829  0.0628  0.9947
   39POPC  H14Y 5299   6.396  -0.296   7.914  0.7539 -1.0359  0.4034
   39POPC  C315 5300   6.608  -0.228   7.865 -0.2929  0.6091  0.6214
   39POPC  H15X 5301   6.575  -0.124   7.889 -4.1219 -0.7651  2.0749
   39POPC  H15Y 5302   6.659  -0.226   7.767 -1.9646 -2.3705 -0.4388
   39POPC  C316 5303   6.702  -0.272   7.980 -0.4910  0.7750 -0.4810
   39POPC  H16X 5304   6.653  -0.249   8.076 -1.1352 -2.8055  0.1807
   39POPC  H16Y 5305   6.799  -0.219   7.972  0.1798 -0.6468 -3.0430
   39POPC  H16Z 5306   6.724  -0.381   7.983 -1.4798  0.5804  0.3969
   40POPC     N 5307   0.099   3.549   6.160 -0.0803 -0.2505  0.4442
   40POPC   C12 5308   0.084   3.686   6.100  0.0955  0.5609 -0.1655
   40POPC  H12A 5309  -0.019   3.691   6.066 -0.4321  0.8004  1.3787
   40POPC  H12B 5310   0.136   3.680   6.006 -0.7783 -2.5868 -0.5663
   40POPC   C13 5311   0.231   3.527   6.229  0.4018 -0.2769  0.3088
   40POPC  H13A 5312   0.252   3.607   6.298 -0.2047  1.5137 -1.4715
   40POPC  H13B 5313   0.237   3.428   6.272  0.1680 -2.0151 -3.2874
   40POPC  H13C 5314   0.311   3.536   6.158 -0.9233  0.4363 -1.1746
   40POPC   C14 5315  -0.002   3.548   6.275  0.0736 -0.5911 -0.2260
   40POPC  H14A 5316   0.031   3.629   6.338 -1.1709  0.1466 -0.4876
   40POPC  H14B 5317  -0.097   3.587   6.244 -0.3468  0.3684  2.0650
   40POPC  H14C 5318  -0.007   3.454   6.329 -0.1881 -0.3653  0.1499
   40POPC   C15 5319   0.067   3.438   6.063  0.3828  0.1516 -0.6686
   40POPC  H15A 5320  -0.028   3.447   6.014 -0.5259 -1.2592  0.7511
   40POPC  H15B 5321   0.057   3.344   6.115 -1.0205  0.2956 -0.6421
   40POPC  H15C 5322   0.152   3.428   5.997  1.6709  0.7164  0.8331
   40POPC   C11 5323   0.118   3.810   6.185  0.3376  0.1740 -0.0958
   40POPC  H11A 5324   0.122   3.904   6.126  0.7992 -0.9638 -1.9272
   40POPC  H11B 5325   0.222   3.788   6.219 -0.4213 -1.9358  1.0791
   40POPC     P 5326  -0.112   3.878   6.294  0.0892 -0.1194 -0.1417
   40POPC   O13 5327  -0.186   3.779   6.215  0.4547 -0.1324 -0.4758
   40POPC   O14 5328  -0.106   4.015   6.238  0.0786 -0.4212 -0.3840
   40POPC   O12 5329   0.035   3.820   6.307  0.1014  0.2021  0.1503
   40POPC   O11 5330  -0.155   3.884   6.441 -0.5735  0.1602  0.2753
   40POPC    C1 5331  -0.235   3.783   6.508  0.4763 -0.1128  0.1467
   40POPC    HA 5332  -0.215   3.679   6.476 -1.1453 -0.3025 -0.3241
   40POPC    HB 5333  -0.340   3.799   6.475  0.0120 -2.2595  0.4608
   40POPC    C2 5334  -0.230   3.797   6.666 -0.0885 -0.6547  0.7237
   40POPC    HS 5335  -0.124   3.788   6.697  0.0282  1.1965  0.9499
   40POPC   O21 5336  -0.303   3.703   6.739  0.4638  0.0156  0.3524
   40POPC   C21 5337  -0.245   3.586   6.737 -0.1531  0.2444  0.1838
   40POPC   O22 5338  -0.139   3.554   6.680 -0.1067 -0.1162  0.4212
   40POPC   C22 5339  -0.349   3.488   6.786 -0.1610  0.7213 -0.1393
   40POPC   H2R 5340  -0.334   3.397   6.724 -1.0324 -0.1457  0.8942
   40POPC   H2S 5341  -0.453   3.523   6.766 -1.0360 -1.9540 -0.7021
   40POPC    C3 5342  -0.285   3.940   6.702  0.0868 -0.7456  0.4781
   40POPC    HX 5343  -0.375   3.966   6.642  0.8285 -0.0505 -0.3665
   40POPC    HY 5344  -0.202   4.003   6.663  1.0198 -2.6520 -0.8051
   40POPC   O31 5345  -0.298   3.964   6.847  0.3280  0.4713 -0.1268
   40POPC   C31 5346  -0.412   3.941   6.898  0.2627 -0.1938 -0.1348
   40POPC   O32 5347  -0.516   3.912   6.838 -0.6980 -0.4289 -0.2773
   40POPC   C32 5348  -0.395   3.949   7.054 -0.0610  0.1035  0.1699
   40POPC   H2X 5349  -0.353   4.046   7.086 -0.3474  0.0469  0.7197
   40POPC   H2Y 5350  -0.327   3.863   7.072  2.1061  1.7005  0.0480
   40POPC   C23 5351  -0.317   3.450   6.932 -0.1807 -0.1442 -0.5365
   40POPC   H3R 5352  -0.211   3.473   6.956 -0.3888 -0.6933  1.0561
   40POPC   H3S 5353  -0.330   3.340   6.945 -0.2165 -0.1000 -0.1955
   40POPC   C24 5354  -0.409   3.527   7.037 -0.5726  0.2957  0.0971
   40POPC   H4R 5355  -0.514   3.508   7.008 -0.2952  0.1314 -0.8398
   40POPC   H4S 5356  -0.383   3.634   7.025  3.4742 -0.7615 -2.5364
   40POPC   C25 5357  -0.364   3.477   7.186  0.3649  0.2591 -0.7606
   40POPC   H5R 5358  -0.253   3.477   7.189  0.5073 -3.1678 -1.3621
   40POPC   H5S 5359  -0.396   3.371   7.194 -2.4160  0.7861 -3.0795
   40POPC   C26 5360  -0.419   3.561   7.308 -0.0588 -0.7756  0.0101
   40POPC   H6R 5361  -0.420   3.669   7.282  0.7929 -0.7024  0.2841
   40POPC   H6S 5362  -0.341   3.561   7.386 -1.0505  3.1602  1.2549
   40POPC   C27 5363  -0.557   3.517   7.358  0.7139 -0.3014  0.1733
   40POPC   H7R 5364  -0.613   3.489   7.266  2.9099  2.0013 -2.0203
   40POPC   H7S 5365  -0.618   3.604   7.390  1.8648  0.3438  0.6895
   40POPC   C28 5366  -0.553   3.403   7.461  0.0688 -0.6782 -0.2235
   40POPC   H8R 5367  -0.462   3.405   7.525 -0.6813 -0.8037  0.8726
   40POPC   H8S 5368  -0.550   3.303   7.413 -0.7294 -1.5519  1.4635
   40POPC   C29 5369  -0.672   3.396   7.550  0.9396  0.2268 -0.2678
   40POPC   H91 5370  -0.762   3.395   7.487  1.5504  2.8443 -1.2697
   40POPC  C210 5371  -0.679   3.378   7.681 -0.0024  0.0077  0.4139
   40POPC  H101 5372  -0.774   3.373   7.736 -2.0281  0.6582 -2.7723
   40POPC  C211 5373  -0.557   3.344   7.770  0.2737 -0.5408  0.6923
   40POPC  H11R 5374  -0.498   3.437   7.782  0.9842 -0.8735 -0.0928
   40POPC  H11S 5375  -0.485   3.282   7.712  0.5165 -0.1706  0.5960
   40POPC  C212 5376  -0.570   3.263   7.903 -0.2564  0.0187 -0.6036
   40POPC  H12R 5377  -0.637   3.317   7.973 -0.3418  2.1688 -2.2367
   40POPC  H12S 5378  -0.475   3.269   7.960 -1.5441  0.6654  1.5740
   40POPC  C213 5379  -0.624   3.122   7.875 -0.3091 -0.2262  0.3796
   40POPC  H13R 5380  -0.541   3.075   7.819 -0.8594 -0.7919  0.0191
   40POPC  H13S 5381  -0.713   3.124   7.808 -0.3670 -0.0833  0.4607
   40POPC  C214 5382  -0.662   3.047   8.001 -0.0059 -0.1980 -0.5364
   40POPC  H14R 5383  -0.695   3.115   8.083  2.8048 -0.3115  0.8140
   40POPC  H14S 5384  -0.570   3.002   8.044  0.2704 -1.6959 -2.5557
   40POPC  C215 5385  -0.767   2.934   7.971 -0.2935  0.0916  0.7802
   40POPC  H15R 5386  -0.859   2.981   7.930  0.9158 -0.7805 -3.3622
   40POPC  H15S 5387  -0.794   2.878   8.063  0.7016  0.2154  1.1610
   40POPC  C216 5388  -0.726   2.839   7.862 -0.4223  0.0595  0.6753
   40POPC  H16R 5389  -0.646   2.771   7.898 -1.0175 -1.8099 -1.2591
   40POPC  H16S 5390  -0.688   2.887   7.769 -1.3390 -1.7540 -0.7204
   40POPC  C217 5391  -0.846   2.751   7.815  0.0825  0.0792  0.2814
   40POPC  H17R 5392  -0.923   2.812   7.764 -0.1590  0.1112  0.6835
   40POPC  H17S 5393  -0.913   2.707   7.891 -0.4629  1.7561  0.8119
   40POPC  C218 5394  -0.803   2.635   7.720  0.3767  0.8205 -0.4930
   40POPC  H18R 5395  -0.888   2.568   7.694  0.1431  0.2211  1.6152
   40POPC  H18S 5396  -0.726   2.574   7.772 -1.3671  0.1911  1.4613
   40POPC  H18T 5397  -0.769   2.658   7.616 -1.3167 -0.1797 -1.3204
   40POPC   C33 5398  -0.529   3.928   7.114 -0.5142 -0.2213 -0.5857
   40POPC   H3X 5399  -0.558   3.826   7.081 -2.3949  0.2441 -0.5277
   40POPC   H3Y 5400  -0.610   3.997   7.081  0.1441  1.7443  1.6099
   40POPC   C34 5401  -0.524   3.945   7.267  1.0266 -0.4287 -0.3550
   40POPC   H4X 5402  -0.509   4.052   7.295 -1.2288 -0.1415 -0.0867
   40POPC   H4Y 5403  -0.444   3.882   7.310  1.2799 -0.0863 -0.3148
   40POPC   C35 5404  -0.661   3.907   7.330 -0.0116  0.0761  0.1721
   40POPC   H5X 5405  -0.672   3.798   7.314  1.0575  0.0088 -0.1632
   40POPC   H5Y 5406  -0.751   3.948   7.278 -0.1402  2.8889  2.3512
   40POPC   C36 5407  -0.655   3.938   7.473  0.1347  0.5708 -0.6932
   40POPC   H6X 5408  -0.655   4.047   7.494  0.2107  0.2035  1.5155
   40POPC   H6Y 5409  -0.558   3.907   7.517  0.0806  1.5300  0.1558
   40POPC   C37 5410  -0.772   3.873   7.559 -0.1154 -0.6544 -0.1718
   40POPC   H7X 5411  -0.784   3.768   7.524  1.7285 -0.8815 -0.2017
   40POPC   H7Y 5412  -0.871   3.923   7.553  0.3006  0.1857 -0.0490
   40POPC   C38 5413  -0.741   3.869   7.705  0.1706  0.6234 -0.4062
   40POPC   H8X 5414  -0.768   3.968   7.749 -1.0843 -0.1943  0.7339
   40POPC   H8Y 5415  -0.638   3.834   7.728 -0.5504 -2.4677 -1.3982
   40POPC   C39 5416  -0.827   3.777   7.782 -0.4840  0.1232  0.2910
   40POPC   H9X 5417  -0.831   3.678   7.731 -0.3519 -0.1034  0.7173
   40POPC   H9Y 5418  -0.934   3.807   7.789  0.0225  2.4409 -1.0804
   40POPC  C310 5419  -0.776   3.739   7.931  0.5240 -0.4298  0.8894
   40POPC  H10X 5420  -0.666   3.723   7.935  0.7577  1.3046  2.8791
   40POPC  H10Y 5421  -0.824   3.639   7.936  0.5022 -0.6758 -2.2384
   40POPC  C311 5422  -0.820   3.831   8.045 -0.1652 -0.9103 -0.3175
   40POPC  H11X 5423  -0.930   3.821   8.061 -0.2429 -2.5451 -1.5875
   40POPC  H11Y 5424  -0.801   3.937   8.018  0.3058 -0.5649  1.2646
   40POPC  C312 5425  -0.753   3.793   8.176 -0.4647  0.0464  0.5159
   40POPC  H12X 5426  -0.726   3.685   8.179  2.6118  0.6200 -1.4814
   40POPC  H12Y 5427  -0.819   3.822   8.260  0.6973  0.6798  1.2451
   40POPC  C313 5428  -0.623   3.865   8.203  0.4757 -0.3295 -0.3851
   40POPC  H13X 5429  -0.649   3.973   8.200 -2.1132 -0.8945 -0.7360
   40POPC  H13Y 5430  -0.547   3.828   8.131  1.7546 -2.2573  1.8124
   40POPC  C314 5431  -0.569   3.821   8.346  0.3821 -0.1927 -0.5383
   40POPC  H14X 5432  -0.552   3.712   8.359  2.0913  0.3505  2.6646
   40POPC  H14Y 5433  -0.650   3.850   8.416 -0.0798  0.2861 -1.2569
   40POPC  C315 5434  -0.442   3.913   8.386 -0.3441  0.5805  0.7628
   40POPC  H15X 5435  -0.453   4.008   8.330  2.8383  0.2777 -0.6284
   40POPC  H15Y 5436  -0.355   3.851   8.355 -0.5755  1.1139 -1.1083
   40POPC  C316 5437  -0.427   3.933   8.538  0.0231 -0.2136 -0.0775
   40POPC  H16X 5438  -0.333   3.980   8.573 -0.4238  0.5458  0.1180
   40POPC  H16Y 5439  -0.437   3.837   8.593 -1.5171 -0.7654 -1.2371
   40POPC  H16Z 5440  -0.502   4.000   8.585  1.6333 -0.0246  2.4290
   41CHL1    C3 5441   5.501   3.786   9.919 -0.3050 -0.0386  0.1664
   41CHL1    H3 5442   5.586   3.852   9.948 -1.1031  0.2768  1.8805
   41CHL1    O3 5443   5.473   3.705  10.035  0.0263 -0.5527 -0.0432
   41CHL1   H3' 5444   5.387   3.668  10.013 -0.0877 -0.2245 -0.1522
   41CHL1    C4 5445   5.386   3.871   9.878  0.5370 -0.4171 -0.1544
   41CHL1   H4A 5446   5.287   3.822   9.869  0.4926 -0.2769 -0.4329
   41CHL1   H4B 5447   5.380   3.939   9.966 -1.6817 -1.4916  0.5777
   41CHL1    C5 5448   5.414   3.952   9.748 -0.5166  0.5834  0.7463
   41CHL1    C6 5449   5.424   4.086   9.734  0.8914 -0.5070  0.4771
   41CHL1    H6 5450   5.405   4.148   9.823 -1.6887  0.3068 -0.5420
   41CHL1    C7 5451   5.452   4.167   9.605  0.0709  0.2536 -0.1129
   41CHL1   H7A 5452   5.379   4.250   9.589  2.8904  2.6759 -1.4581
   41CHL1   H7B 5453   5.548   4.221   9.623  0.1306 -0.0005  0.3372
   41CHL1    C8 5454   5.449   4.076   9.485  1.0134 -1.0501  0.0943
   41CHL1    H8 5455   5.341   4.069   9.463  1.0995  0.8781 -1.2325
   41CHL1   C14 5456   5.511   4.138   9.363 -0.6473  0.0944  1.0148
   41CHL1   H14 5457   5.617   4.150   9.397  0.2143 -1.2302 -0.9917
   41CHL1   C15 5458   5.466   4.276   9.316 -0.2007 -0.5567 -0.1141
   41CHL1  H15A 5459   5.356   4.287   9.302  0.2348  2.1208 -2.3766
   41CHL1  H15B 5460   5.496   4.347   9.395 -1.1455 -0.4761  0.1881
   41CHL1   C16 5461   5.535   4.286   9.175 -0.3617 -0.0699  0.4058
   41CHL1  H16A 5462   5.464   4.314   9.093 -1.4115 -2.3206  0.4889
   41CHL1  H16B 5463   5.622   4.350   9.200 -1.0234 -0.0119  2.7658
   41CHL1   C17 5464   5.600   4.151   9.143  0.1751  0.4104  0.0699
   41CHL1   H17 5465   5.699   4.144   9.194  0.4314 -1.6593 -0.6087
   41CHL1   C13 5466   5.521   4.056   9.230  0.6684  0.9032 -0.1825
   41CHL1   C18 5467   5.382   4.029   9.157 -0.6281 -0.4067 -0.2274
   41CHL1  H18A 5468   5.408   3.966   9.069 -0.3519 -1.0660  0.3187
   41CHL1  H18B 5469   5.321   3.966   9.225  1.5139 -0.8073  1.4474
   41CHL1  H18C 5470   5.338   4.126   9.127 -0.2775 -0.0436  0.4127
   41CHL1   C12 5471   5.592   3.928   9.255  0.6137  0.3359 -0.5185
   41CHL1  H12A 5472   5.590   3.869   9.161 -1.7077 -0.8680  0.2003
   41CHL1  H12B 5473   5.698   3.946   9.283  0.4588 -0.2909  0.5401
   41CHL1   C11 5474   5.524   3.847   9.373 -0.3161  0.4427 -0.3438
   41CHL1  H11A 5475   5.424   3.811   9.340  0.0386 -3.5842  2.3341
   41CHL1  H11B 5476   5.581   3.753   9.388 -1.8110 -0.2978  1.0443
   41CHL1    C9 5477   5.512   3.935   9.506  0.9765  0.3282 -0.0484
   41CHL1    H9 5478   5.619   3.950   9.530  0.9257 -1.1553  1.2783
   41CHL1   C10 5479   5.456   3.859   9.629  0.2830  0.2276  0.0292
   41CHL1   C19 5480   5.339   3.774   9.576 -0.0267  0.0677 -0.3955
   41CHL1  H19A 5481   5.280   3.731   9.659 -0.6903  0.8713 -0.4411
   41CHL1  H19B 5482   5.274   3.825   9.501  0.3486  1.6416  0.2985
   41CHL1  H19C 5483   5.387   3.684   9.531 -0.8901 -0.4672 -0.2620
   41CHL1    C1 5484   5.571   3.764   9.670 -0.5989  0.4070  0.5419
   41CHL1   H1A 5485   5.605   3.688   9.597 -0.4633  0.1285  0.8873
   41CHL1   H1B 5486   5.655   3.835   9.689  0.3386 -0.7556  0.8954
   41CHL1    C2 5487   5.549   3.695   9.807  0.4210 -0.3989 -0.2587
   41CHL1   H2A 5488   5.645   3.646   9.833 -0.2767 -2.1424 -0.8026
   41CHL1   H2B 5489   5.475   3.614   9.793  1.2878 -1.4470  0.9737
   41CHL1   C20 5490   5.624   4.127   8.991  0.6272  0.0438  0.4566
   41CHL1   H20 5491   5.638   4.018   8.978  0.9333  0.1295  0.0437
   41CHL1   C21 5492   5.764   4.187   8.949  0.3718  0.3097  0.3434
   41CHL1  H21A 5493   5.790   4.171   8.842  0.7886  0.1940  0.4606
   41CHL1  H21B 5494   5.839   4.140   9.015  1.8325  0.3382 -1.2342
   41CHL1  H21C 5495   5.775   4.294   8.975 -1.4275 -0.0499  3.0478
   41CHL1   C22 5496   5.510   4.175   8.891  0.2876 -0.1057  0.6920
   41CHL1  H22A 5497   5.411   4.155   8.936 -1.9540  1.0955 -3.1494
   41CHL1  H22B 5498   5.530   4.283   8.873  1.0857 -0.1056  1.5254
   41CHL1   C23 5499   5.508   4.100   8.760  0.3501 -0.4436 -0.5785
   41CHL1  H23A 5500   5.601   4.135   8.712 -0.4452  1.6041 -0.6984
   41CHL1  H23B 5501   5.524   3.994   8.792  2.6374 -0.3519 -1.2287
   41CHL1   C24 5502   5.387   4.129   8.672  0.6463 -0.1113  0.2461
   41CHL1  H24A 5503   5.289   4.093   8.711 -1.2445  1.6179 -2.5577
   41CHL1  H24B 5504   5.395   4.239   8.657  1.4202 -0.2193 -0.1381
   41CHL1   C25 5505   5.394   4.054   8.540 -0.0120 -0.4343 -0.3551
   41CHL1   H25 5506   5.294   4.079   8.498 -0.7527 -0.3155  1.4069
   41CHL1   C26 5507   5.509   4.104   8.443 -0.0185 -0.1363 -0.1420
   41CHL1  H26A 5508   5.603   4.091   8.502 -0.0032 -0.7896 -0.3043
   41CHL1  H26B 5509   5.531   4.043   8.353  0.8172 -2.4136  1.5134
   41CHL1  H26C 5510   5.495   4.209   8.411 -0.3854  0.3664  1.5381
   41CHL1   C27 5511   5.403   3.902   8.562  0.1787  0.5250 -0.0728
   41CHL1  H27A 5512   5.511   3.877   8.564  0.6529  2.3697 -0.6130
   41CHL1  H27B 5513   5.350   3.874   8.655 -0.6516 -0.0218 -0.6951
   41CHL1  H27C 5514   5.365   3.855   8.468  1.3073  1.3363 -0.9717
   42CHL1    C3 5515   6.649   2.717   9.917 -0.7936  0.5206 -0.1194
   42CHL1    H3 5516   6.662   2.827   9.920  0.3355  0.3821  0.4123
   42CHL1    O3 5517   6.667   2.684  10.054  0.5945 -1.0067 -0.0436
   42CHL1   H3' 5518   6.609   2.610  10.073 -0.8310  0.3067  0.8944
   42CHL1    C4 5519   6.506   2.692   9.853 -0.1973 -0.2531 -0.1463
   42CHL1   H4A 5520   6.476   2.589   9.881  0.1681 -0.9460 -2.1644
   42CHL1   H4B 5521   6.430   2.746   9.915 -0.7984  1.7229 -2.4546
   42CHL1    C5 5522   6.496   2.711   9.700  0.4938  0.2171 -0.1610
   42CHL1    C6 5523   6.413   2.806   9.651  0.4394  0.0870  0.5475
   42CHL1    H6 5524   6.343   2.862   9.715  0.7223  0.3565  0.6229
   42CHL1    C7 5525   6.390   2.822   9.504  0.5082 -0.0685  0.1933
   42CHL1   H7A 5526   6.282   2.810   9.479  0.5799 -0.1128 -0.0934
   42CHL1   H7B 5527   6.426   2.921   9.470  2.0940 -0.0279  1.8661
   42CHL1    C8 5528   6.463   2.716   9.418 -0.2517 -0.1405 -0.3925
   42CHL1    H8 5529   6.399   2.626   9.413 -2.9710  1.6984 -1.2564
   42CHL1   C14 5530   6.481   2.763   9.274 -0.3775 -0.2097  0.5162
   42CHL1   H14 5531   6.550   2.850   9.277 -2.2391  1.3444  0.6031
   42CHL1   C15 5532   6.360   2.828   9.197 -0.1710 -0.0950 -0.3417
   42CHL1  H15A 5533   6.268   2.775   9.229 -0.5923  0.8029 -0.0380
   42CHL1  H15B 5534   6.358   2.938   9.215 -0.1900 -0.4502  2.1848
   42CHL1   C16 5535   6.390   2.799   9.047 -0.2618 -0.1796 -0.1432
   42CHL1  H16A 5536   6.314   2.726   9.011  1.7385 -1.8915 -1.1854
   42CHL1  H16B 5537   6.394   2.896   8.993  2.4312 -0.0371  0.1845
   42CHL1   C17 5538   6.530   2.736   9.051 -0.1892 -0.4746  0.6320
   42CHL1   H17 5539   6.608   2.814   9.060  0.4929 -1.3188  3.0827
   42CHL1   C13 5540   6.533   2.657   9.181 -0.4638 -0.0464 -0.1727
   42CHL1   C18 5541   6.440   2.532   9.167  0.0030 -0.1455 -0.8935
   42CHL1  H18A 5542   6.485   2.442   9.119 -1.4350 -1.0893 -0.5300
   42CHL1  H18B 5543   6.418   2.482   9.264 -2.6032 -0.8353 -1.7476
   42CHL1  H18C 5544   6.342   2.553   9.120 -0.7452 -1.4020  0.0448
   42CHL1   C12 5545   6.675   2.616   9.231  0.5446  0.3376  0.3076
   42CHL1  H12A 5546   6.709   2.529   9.171  0.2798  0.4876 -0.0661
   42CHL1  H12B 5547   6.738   2.705   9.207  0.4025  0.4249  0.2523
   42CHL1   C11 5548   6.677   2.574   9.379 -0.1800  0.1999 -0.0956
   42CHL1  H11A 5549   6.624   2.477   9.385 -0.7498  0.4875 -0.4360
   42CHL1  H11B 5550   6.774   2.547   9.426  0.0330 -1.9514 -1.5788
   42CHL1    C9 5551   6.601   2.670   9.474 -0.1033  0.3978 -0.0446
   42CHL1    H9 5552   6.666   2.760   9.474 -0.4942  0.6858 -0.4981
   42CHL1   C10 5553   6.593   2.632   9.624 -0.8506 -0.4428 -0.3083
   42CHL1   C19 5554   6.541   2.485   9.633 -0.6390 -0.1660  0.2421
   42CHL1  H19A 5555   6.458   2.472   9.561  0.2082 -2.4185 -0.4154
   42CHL1  H19B 5556   6.623   2.426   9.587 -0.2429 -0.4636  1.3125
   42CHL1  H19C 5557   6.524   2.439   9.733  3.0680  0.8731  1.5164
   42CHL1    C1 5558   6.731   2.663   9.690 -0.0281 -0.6746  0.4035
   42CHL1   H1A 5559   6.807   2.593   9.648  3.8916  1.9539  2.4626
   42CHL1   H1B 5560   6.767   2.765   9.665  2.1724 -1.4116  0.2931
   42CHL1    C2 5561   6.753   2.642   9.843 -0.2239 -0.0911  0.1610
   42CHL1   H2A 5562   6.853   2.687   9.862 -0.9207  3.1012 -2.6365
   42CHL1   H2B 5563   6.746   2.533   9.859  2.6832 -0.3248  0.3464
   42CHL1   C20 5564   6.553   2.668   8.913 -0.3530  0.4063 -0.0929
   42CHL1   H20 5565   6.520   2.562   8.921  2.4530 -0.7717 -2.2171
   42CHL1   C21 5566   6.709   2.654   8.899  0.7815  1.3146  0.4113
   42CHL1  H21A 5567   6.753   2.748   8.860 -1.3158  1.9764 -0.5072
   42CHL1  H21B 5568   6.735   2.574   8.826 -2.0321  1.9097 -1.3954
   42CHL1  H21C 5569   6.763   2.630   8.993 -3.0418  0.9275  2.6877
   42CHL1   C22 5570   6.481   2.737   8.794  0.0727  0.7142 -0.9934
   42CHL1  H22A 5571   6.370   2.742   8.788  0.0403 -0.3953 -1.5992
   42CHL1  H22B 5572   6.531   2.836   8.805 -1.8225  1.5187  1.1872
   42CHL1   C23 5573   6.511   2.667   8.656 -0.5999 -0.5185  0.3009
   42CHL1  H23A 5574   6.612   2.710   8.641 -0.4348 -1.3379 -1.0439
   42CHL1  H23B 5575   6.510   2.557   8.663 -0.0749 -0.5120  0.4923
   42CHL1   C24 5576   6.428   2.724   8.539 -0.5383  0.3751 -0.3553
   42CHL1  H24A 5577   6.321   2.695   8.543 -0.7739  0.7337 -2.9590
   42CHL1  H24B 5578   6.451   2.832   8.529  2.2358 -0.2564 -2.1577
   42CHL1   C25 5579   6.472   2.647   8.415 -0.3389 -0.9057  0.4231
   42CHL1   H25 5580   6.583   2.657   8.416 -0.3350 -0.6390 -0.7786
   42CHL1   C26 5581   6.444   2.501   8.420  0.1099 -0.6844  0.1249
   42CHL1  H26A 5582   6.489   2.444   8.504 -2.3436 -1.8383  0.7600
   42CHL1  H26B 5583   6.335   2.479   8.426 -0.4701  2.0404  1.2509
   42CHL1  H26C 5584   6.473   2.461   8.320 -0.1040 -2.5565  0.7776
   42CHL1   C27 5585   6.408   2.713   8.292 -0.4969  0.1452  0.2593
   42CHL1  H27A 5586   6.411   2.645   8.205 -3.8202 -1.0770  0.9396
   42CHL1  H27B 5587   6.299   2.734   8.297 -0.1320  2.6849 -0.6076
   42CHL1  H27C 5588   6.450   2.815   8.282  0.9330 -0.4791 -0.2370
   43CHL1    C3 5589   6.161   2.200  10.013 -0.4413  0.5169  0.5345
   43CHL1    H3 5590   6.271   2.210  10.001 -0.3598 -0.7903  0.0231
   43CHL1    O3 5591   6.129   2.171  10.147  0.2738 -0.5167 -0.2964
   43CHL1   H3' 5592   6.040   2.203  10.164 -0.0567 -1.7750  0.5104
   43CHL1    C4 5593   6.095   2.337   9.971 -0.7162  0.0918  0.2417
   43CHL1   H4A 5594   5.987   2.328   9.992 -0.6194 -4.4712 -0.2333
   43CHL1   H4B 5595   6.130   2.410  10.047 -0.6760 -1.0587  1.3536
   43CHL1    C5 5596   6.101   2.376   9.821 -0.4069  0.2523  0.2086
   43CHL1    C6 5597   6.148   2.494   9.776  0.0449  0.0627  0.0638
   43CHL1    H6 5598   6.188   2.564   9.850  1.6723 -2.8757  2.1542
   43CHL1    C7 5599   6.128   2.534   9.630  0.0869  0.6905  0.1227
   43CHL1   H7A 5600   6.080   2.634   9.623  0.5725  1.1665  2.6596
   43CHL1   H7B 5601   6.219   2.553   9.569 -2.3884  4.4301 -2.8541
   43CHL1    C8 5602   6.030   2.442   9.557 -0.4235  0.1611  0.0506
   43CHL1    H8 5603   5.928   2.457   9.600 -0.3543 -0.4719  0.4565
   43CHL1   C14 5604   6.031   2.464   9.407  0.4946 -0.3749 -0.1435
   43CHL1   H14 5605   6.128   2.427   9.367 -0.1278  0.7280 -2.9241
   43CHL1   C15 5606   6.025   2.609   9.356  0.5549  0.2740 -0.3890
   43CHL1  H15A 5607   5.942   2.658   9.412 -0.3736 -2.0712  0.3846
   43CHL1  H15B 5608   6.118   2.670   9.366 -0.2876  1.6887 -0.8243
   43CHL1   C16 5609   5.982   2.592   9.205 -0.6401 -0.8713 -0.0475
   43CHL1  H16A 5610   5.899   2.665   9.192 -0.1683  0.1677  2.3464
   43CHL1  H16B 5611   6.067   2.613   9.137 -1.9387 -0.8612 -1.7497
   43CHL1   C17 5612   5.943   2.442   9.184  0.0349 -0.3184  0.4695
   43CHL1   H17 5613   6.029   2.393   9.134 -1.9131 -2.7266 -0.7013
   43CHL1   C13 5614   5.929   2.379   9.328 -0.0304 -0.1169 -0.8349
   43CHL1   C18 5615   5.776   2.398   9.378  0.8030 -1.0295 -0.2468
   43CHL1  H18A 5616   5.699   2.357   9.310 -0.6250  2.4520 -0.9017
   43CHL1  H18B 5617   5.769   2.360   9.482  0.2514 -0.0358  0.0943
   43CHL1  H18C 5618   5.752   2.506   9.384  3.1129 -0.4551 -0.3267
   43CHL1   C12 5619   5.984   2.234   9.342  0.0015  0.1649 -0.0922
   43CHL1  H12A 5620   5.921   2.154   9.296  2.5638 -1.1066 -1.6315
   43CHL1  H12B 5621   6.082   2.226   9.289  0.5936  2.9963  0.3943
   43CHL1   C11 5622   6.006   2.192   9.494  0.5059 -0.3577  0.5714
   43CHL1  H11A 5623   5.908   2.158   9.532  0.8528 -0.7770  1.0924
   43CHL1  H11B 5624   6.077   2.107   9.493  0.7403 -0.1610 -0.0441
   43CHL1    C9 5625   6.062   2.293   9.590 -0.0359  0.0762 -0.1938
   43CHL1    H9 5626   6.170   2.287   9.562 -0.2519 -0.1418 -1.0313
   43CHL1   C10 5627   6.043   2.261   9.740  0.1648  0.1419 -0.0955
   43CHL1   C19 5628   5.889   2.250   9.764 -0.2721  0.4969 -0.0843
   43CHL1  H19A 5629   5.852   2.156   9.718 -2.0979  1.5430 -0.8308
   43CHL1  H19B 5630   5.866   2.241   9.873  0.3993  3.7471  0.4242
   43CHL1  H19C 5631   5.838   2.340   9.724 -1.2343 -0.3191 -0.7288
   43CHL1    C1 5632   6.124   2.138   9.779  0.3247 -0.0168  0.7257
   43CHL1   H1A 5633   6.094   2.052   9.715 -0.9751  0.1095  1.1347
   43CHL1   H1B 5634   6.230   2.160   9.753 -0.2216  0.9211 -0.8242
   43CHL1    C2 5635   6.118   2.087   9.922  0.1633  0.0019  0.2639
   43CHL1   H2A 5636   6.185   2.000   9.936 -1.3595 -1.5172 -1.3265
   43CHL1   H2B 5637   6.013   2.056   9.945 -0.5060  1.4217 -0.7262
   43CHL1   C20 5638   5.828   2.413   9.079 -0.0784  0.0629  0.0252
   43CHL1   H20 5639   5.735   2.455   9.123  0.9165  0.3949  1.8936
   43CHL1   C21 5640   5.806   2.261   9.063  0.3315  0.1834 -0.1019
   43CHL1  H21A 5641   5.765   2.224   9.160 -2.3041 -0.8165 -1.4825
   43CHL1  H21B 5642   5.904   2.215   9.039 -0.1984  0.4637 -3.2852
   43CHL1  H21C 5643   5.732   2.231   8.986 -1.7515  2.2991  0.9539
   43CHL1   C22 5644   5.860   2.481   8.942  0.1484 -0.0108 -0.9659
   43CHL1  H22A 5645   5.877   2.591   8.943  1.5536 -0.1764 -2.1908
   43CHL1  H22B 5646   5.940   2.423   8.891  0.4427  1.0748 -1.7833
   43CHL1   C23 5647   5.740   2.472   8.845  0.0318  0.0779 -0.8484
   43CHL1  H23A 5648   5.722   2.364   8.824 -0.4468  0.1335 -0.7472
   43CHL1  H23B 5649   5.648   2.502   8.900 -0.2129 -2.6396  0.4104
   43CHL1   C24 5650   5.764   2.552   8.717  0.0445 -0.2502  1.4486
   43CHL1  H24A 5651   5.757   2.658   8.751  0.1728  0.9221 -1.8291
   43CHL1  H24B 5652   5.867   2.539   8.677 -0.4802 -0.6787  0.2024
   43CHL1   C25 5653   5.660   2.519   8.598  0.2538 -0.5024 -0.7790
   43CHL1   H25 5654   5.656   2.413   8.564 -1.5658 -0.5086 -0.6309
   43CHL1   C26 5655   5.520   2.552   8.634 -0.3640 -0.6758  0.1653
   43CHL1  H26A 5656   5.484   2.495   8.722 -0.8848  1.2544  1.2730
   43CHL1  H26B 5657   5.530   2.661   8.656  0.7938 -1.3191  3.2562
   43CHL1  H26C 5658   5.438   2.536   8.560 -1.5974 -0.9009  1.5319
   43CHL1   C27 5659   5.713   2.608   8.484 -0.8062 -0.2107 -0.0228
   43CHL1  H27A 5660   5.640   2.608   8.401 -1.5668 -1.2088  0.6153
   43CHL1  H27B 5661   5.714   2.714   8.517  0.4854 -0.5131  1.0164
   43CHL1  H27C 5662   5.815   2.574   8.455 -0.6291 -0.2801  0.6688
   44CHL1    C3 5663   0.003   3.250  10.100 -0.7380  0.1325 -0.5558
   44CHL1    H3 5664  -0.020   3.353  10.064 -0.7873 -0.0277 -0.9923
   44CHL1    O3 5665  -0.005   3.247  10.242  0.3658 -0.4433 -0.7295
   44CHL1   H3' 5666   0.071   3.191  10.261 -1.4162 -2.4123  1.0176
   44CHL1    C4 5667  -0.087   3.145  10.040  0.2403  0.3125 -0.5682
   44CHL1   H4A 5668  -0.048   3.049  10.081  1.7182 -0.3713 -3.3054
   44CHL1   H4B 5669  -0.188   3.172  10.078  1.5399  0.3528  3.2044
   44CHL1    C5 5670  -0.081   3.145   9.892  0.5896  0.6670 -0.3760
   44CHL1    C6 5671  -0.193   3.166   9.820  0.3146 -0.5017 -0.3901
   44CHL1    H6 5672  -0.287   3.180   9.875  0.6460 -2.3645  0.7151
   44CHL1    C7 5673  -0.205   3.156   9.668  0.5828  0.1109  0.4534
   44CHL1   H7A 5674  -0.279   3.077   9.641  2.4393 -1.8724  0.9045
   44CHL1   H7B 5675  -0.236   3.253   9.624  0.9316  0.2486  0.5065
   44CHL1    C8 5676  -0.064   3.114   9.608  0.0987 -0.1295  0.4242
   44CHL1    H8 5677  -0.055   3.003   9.614  1.6789  0.0374  1.5251
   44CHL1   C14 5678  -0.063   3.147   9.460  0.6694  0.0454  0.3944
   44CHL1   H14 5679  -0.092   3.254   9.461 -1.5478 -0.4941  1.6717
   44CHL1   C15 5680  -0.182   3.095   9.371  0.3245  0.2732  0.7003
   44CHL1  H15A 5681  -0.187   2.986   9.391 -2.7074  0.4881  1.7297
   44CHL1  H15B 5682  -0.280   3.145   9.388 -0.2387 -0.3197 -0.6547
   44CHL1   C16 5683  -0.137   3.138   9.232  0.3729 -0.1890  0.1974
   44CHL1  H16A 5684  -0.133   3.051   9.163  1.4216  0.4432 -0.5770
   44CHL1  H16B 5685  -0.210   3.207   9.183  0.5474 -2.9224 -4.4642
   44CHL1   C17 5686   0.005   3.205   9.237 -0.4488 -0.3008 -0.2822
   44CHL1   H17 5687  -0.007   3.314   9.255 -1.2454 -0.4338  0.0311
   44CHL1   C13 5688   0.064   3.147   9.373 -0.6239  0.1068 -0.0429
   44CHL1   C18 5689   0.102   3.002   9.353  0.6046 -0.0642  0.1093
   44CHL1  H18A 5690   0.064   2.956   9.259 -1.1933  0.4258  0.5495
   44CHL1  H18B 5691   0.212   2.991   9.347  0.6765 -0.2412  1.4603
   44CHL1  H18C 5692   0.059   2.937   9.432 -0.0797 -0.4169 -0.5431
   44CHL1   C12 5693   0.177   3.221   9.458 -0.2646  0.1892  0.4255
   44CHL1  H12A 5694   0.279   3.206   9.417 -0.3605 -1.3523  0.6768
   44CHL1  H12B 5695   0.158   3.330   9.447  0.5725  0.1945 -1.2614
   44CHL1   C11 5696   0.179   3.165   9.606 -0.1495  0.8793  0.7546
   44CHL1  H11A 5697   0.220   3.062   9.612  0.3828  1.0702  0.4709
   44CHL1  H11B 5698   0.261   3.217   9.660  0.3666  2.3437 -1.3099
   44CHL1    C9 5699   0.048   3.175   9.686  0.5286  0.2494 -0.2026
   44CHL1    H9 5700   0.027   3.284   9.684 -0.4967  0.0542 -1.0341
   44CHL1   C10 5701   0.055   3.134   9.831  0.6011 -0.1032 -0.0021
   44CHL1   C19 5702   0.102   2.988   9.839 -0.5817  0.0631  0.0338
   44CHL1  H19A 5703   0.213   2.997   9.832 -0.7149  3.6574  0.7016
   44CHL1  H19B 5704   0.083   2.931   9.933 -4.1795 -1.2089 -1.3372
   44CHL1  H19C 5705   0.069   2.926   9.753 -0.5423 -0.5462  0.4469
   44CHL1    C1 5706   0.159   3.223   9.906  0.3080 -0.3816  0.2164
   44CHL1   H1A 5707   0.262   3.188   9.884  0.2714 -1.0542  1.1128
   44CHL1   H1B 5708   0.151   3.327   9.866  0.2642 -0.5034 -0.0932
   44CHL1    C2 5709   0.154   3.226  10.065  0.5925 -0.8562  0.4368
   44CHL1   H2A 5710   0.213   3.309  10.106 -1.7825  0.6764  0.9591
   44CHL1   H2B 5711   0.189   3.126  10.098  1.3104 -0.6822  0.2233
   44CHL1   C20 5712   0.082   3.193   9.109 -0.4334 -0.2732 -0.4465
   44CHL1   H20 5713   0.083   3.089   9.069  1.7144 -0.5291  0.1642
   44CHL1   C21 5714   0.226   3.238   9.115 -0.4657  0.0615  0.1415
   44CHL1  H21A 5715   0.273   3.194   9.206  1.0811 -0.4995 -0.8840
   44CHL1  H21B 5716   0.233   3.348   9.106  2.6523 -0.1020 -0.4241
   44CHL1  H21C 5717   0.275   3.189   9.028 -0.4561 -0.2431  0.3159
   44CHL1   C22 5718   0.014   3.278   8.998 -0.5270 -0.1565  0.1260
   44CHL1  H22A 5719  -0.091   3.245   8.988 -0.2377 -0.7811 -0.9789
   44CHL1  H22B 5720   0.017   3.388   9.011 -1.0750 -0.1721  0.4096
   44CHL1   C23 5721   0.087   3.255   8.861 -0.0709 -0.1459 -0.3493
   44CHL1  H23A 5722   0.184   3.309   8.860  0.0041 -0.2716  0.1591
   44CHL1  H23B 5723   0.118   3.151   8.834  0.1795  0.1023 -1.0611
   44CHL1   C24 5724  -0.007   3.306   8.744 -0.9122 -0.1763 -0.1102
   44CHL1  H24A 5725  -0.094   3.238   8.734 -1.0207 -0.1714  0.7748
   44CHL1  H24B 5726  -0.042   3.409   8.768 -1.3958 -0.6411  1.1961
   44CHL1   C25 5727   0.057   3.332   8.611 -0.0936  0.6397  0.2261
   44CHL1   H25 5728   0.149   3.392   8.626 -0.8865  1.5565  1.5292
   44CHL1   C26 5729   0.094   3.196   8.540  1.2825  0.9887  0.0668
   44CHL1  H26A 5730   0.141   3.217   8.442  0.8411  1.7142  0.0041
   44CHL1  H26B 5731   0.165   3.138   8.603 -1.0668 -1.8392  0.3647
   44CHL1  H26C 5732  -0.004   3.147   8.525  1.7418 -0.2021  0.7633
   44CHL1   C27 5733  -0.019   3.418   8.509 -0.0089  0.5358 -0.3276
   44CHL1  H27A 5734  -0.007   3.385   8.404 -0.6819  0.8029 -0.4999
   44CHL1  H27B 5735  -0.122   3.414   8.551 -0.3141  0.5074 -1.0728
   44CHL1  H27C 5736   0.021   3.522   8.520  1.3202 -0.1292  1.7124
   45CHL1    C3 5737   3.233   2.593  10.068 -0.0641  0.6167 -0.3771
   45CHL1    H3 5738   3.132   2.561  10.100  0.7456  1.4558  3.5243
   45CHL1    O3 5739   3.329   2.536  10.159 -0.0354  0.0594  0.0317
   45CHL1   H3' 5740   3.288   2.483  10.228 -0.0859  0.5908  0.4129
   45CHL1    C4 5741   3.265   2.540   9.929 -0.1071  0.1109 -0.3538
   45CHL1   H4A 5742   3.368   2.569   9.899 -0.1308  2.2781  1.3648
   45CHL1   H4B 5743   3.260   2.429   9.923 -0.2186  0.1163 -0.3611
   45CHL1    C5 5744   3.167   2.604   9.834 -0.0013  0.3701  0.5029
   45CHL1    C6 5745   3.076   2.530   9.774 -0.5625  0.1702  0.8758
   45CHL1    H6 5746   3.080   2.420   9.781 -1.8182 -0.1826 -2.2514
   45CHL1    C7 5747   2.980   2.579   9.666 -0.2624 -0.0278  0.1217
   45CHL1   H7A 5748   2.979   2.502   9.585  2.1573  0.5769 -0.5768
   45CHL1   H7B 5749   2.882   2.594   9.716  0.5789  0.6976  1.6417
   45CHL1    C8 5750   3.031   2.717   9.613 -0.2483  0.7300 -0.6501
   45CHL1    H8 5751   2.944   2.755   9.556 -2.0156 -0.4243  1.1633
   45CHL1   C14 5752   3.141   2.719   9.496  0.1646 -0.2268  0.6591
   45CHL1   H14 5753   3.224   2.659   9.538 -0.3052 -0.6270  1.0299
   45CHL1   C15 5754   3.093   2.648   9.362  0.8318 -1.3512 -0.0801
   45CHL1  H15A 5755   3.190   2.616   9.319  1.6710  1.3899 -0.4362
   45CHL1  H15B 5756   3.031   2.557   9.380 -0.9370 -0.1333  0.2163
   45CHL1   C16 5757   3.037   2.749   9.264 -0.2864 -0.1974 -0.2694
   45CHL1  H16A 5758   3.102   2.745   9.175  1.1593 -1.2217  0.7848
   45CHL1  H16B 5759   2.929   2.732   9.241 -0.1452 -0.0645 -1.0327
   45CHL1   C17 5760   3.065   2.889   9.331 -0.5662 -0.1062 -0.5152
   45CHL1   H17 5761   2.974   2.910   9.391  0.2285 -2.3235  1.6102
   45CHL1   C13 5762   3.181   2.860   9.438 -0.2082  0.6960 -0.3476
   45CHL1   C18 5763   3.310   2.846   9.357  0.2174  0.0094 -0.3130
   45CHL1  H18A 5764   3.304   2.787   9.264  2.3627  1.2096 -1.2874
   45CHL1  H18B 5765   3.354   2.947   9.340 -0.2383  0.4287  0.8411
   45CHL1  H18C 5766   3.380   2.789   9.423  0.8148 -0.3851 -1.2655
   45CHL1   C12 5767   3.198   2.963   9.552 -0.6952 -0.5345 -0.2879
   45CHL1  H12A 5768   3.302   2.952   9.589 -1.3494  1.7915  2.7502
   45CHL1  H12B 5769   3.206   3.063   9.505  2.4535 -1.5920 -2.2858
   45CHL1   C11 5770   3.096   2.953   9.665  0.0040  0.4425  0.0498
   45CHL1  H11A 5771   3.127   3.021   9.747  0.7625  0.8694 -0.5744
   45CHL1  H11B 5772   3.003   2.978   9.609  0.4801  2.0625 -0.0582
   45CHL1    C9 5773   3.072   2.813   9.726  0.4320  0.2108 -0.0384
   45CHL1    H9 5774   2.986   2.831   9.795  0.4782  0.4445 -0.0419
   45CHL1   C10 5775   3.181   2.753   9.824  0.1619  0.3831 -0.6539
   45CHL1   C19 5776   3.324   2.795   9.785  0.0060 -0.4586 -0.4400
   45CHL1  H19A 5777   3.399   2.749   9.851 -1.0042 -1.3084  0.1520
   45CHL1  H19B 5778   3.348   2.761   9.682 -0.3255 -0.6046 -0.4730
   45CHL1  H19C 5779   3.333   2.906   9.782  0.4615 -0.4988 -0.7199
   45CHL1    C1 5780   3.163   2.810   9.969 -0.6501  0.2336 -0.0693
   45CHL1   H1A 5781   3.175   2.921   9.975  1.4690 -0.0122  1.3772
   45CHL1   H1B 5782   3.057   2.786   9.992 -0.6321 -2.4110 -2.2154
   45CHL1    C2 5783   3.241   2.747  10.081 -0.0825  0.4168 -0.4749
   45CHL1   H2A 5784   3.203   2.772  10.182  2.2708 -2.2423  1.2689
   45CHL1   H2B 5785   3.346   2.773  10.053 -0.1061 -0.4933 -1.4919
   45CHL1   C20 5786   3.081   3.018   9.243 -0.3618 -0.6532 -0.1945
   45CHL1   H20 5787   3.141   3.088   9.305  0.7131 -0.1372 -1.7566
   45CHL1   C21 5788   2.938   3.074   9.217  0.0886 -0.0992 -0.0970
   45CHL1  H21A 5789   2.867   2.994   9.185 -1.2229  1.2935 -0.7482
   45CHL1  H21B 5790   2.945   3.152   9.139 -0.8372 -0.5947 -0.6962
   45CHL1  H21C 5791   2.898   3.123   9.309 -0.7588 -1.4326  0.2928
   45CHL1   C22 5792   3.150   2.998   9.106 -0.8845 -0.7276  0.4102
   45CHL1  H22A 5793   3.230   2.921   9.111 -0.1494 -0.1872 -1.8184
   45CHL1  H22B 5794   3.071   2.961   9.037 -0.4419  3.1768 -2.5065
   45CHL1   C23 5795   3.214   3.119   9.038  0.5173  0.2361 -0.6119
   45CHL1  H23A 5796   3.131   3.193   9.029 -0.0703  0.0856  2.3558
   45CHL1  H23B 5797   3.293   3.155   9.108 -2.1222 -1.6271  3.7739
   45CHL1   C24 5798   3.260   3.091   8.896  0.7350  0.0448  0.1409
   45CHL1  H24A 5799   3.341   3.015   8.892  0.3039 -0.3946 -0.3090
   45CHL1  H24B 5800   3.177   3.045   8.839  2.6860 -1.1964 -1.8737
   45CHL1   C25 5801   3.302   3.214   8.818  0.2214 -0.2491 -0.3683
   45CHL1   H25 5802   3.395   3.258   8.860 -0.0424 -0.5060  0.5001
   45CHL1   C26 5803   3.345   3.175   8.671 -0.2343 -0.0573 -0.0956
   45CHL1  H26A 5804   3.256   3.148   8.610 -0.9784  1.2134  0.3920
   45CHL1  H26B 5805   3.402   3.254   8.617  1.3874 -2.1310 -1.5857
   45CHL1  H26C 5806   3.405   3.081   8.679  0.0013  0.2028  1.4860
   45CHL1   C27 5807   3.203   3.330   8.791  0.1067  0.7856  0.1591
   45CHL1  H27A 5808   3.141   3.308   8.702  0.5062 -2.2783  0.5583
   45CHL1  H27B 5809   3.137   3.334   8.881  1.8345 -2.4406  1.7353
   45CHL1  H27C 5810   3.255   3.424   8.762  0.4377 -0.4584 -3.8757
   46CHL1    C3 5811   4.888   0.068  10.053 -0.0726  0.6082  0.1576
   46CHL1    H3 5812   4.879  -0.038  10.084  1.2858  0.3627 -0.2528
   46CHL1    O3 5813   4.871   0.146  10.172  0.8585 -0.1062 -0.3118
   46CHL1   H3' 5814   4.779   0.133  10.195 -0.2423  1.1761 -3.3825
   46CHL1    C4 5815   5.031   0.088  10.009 -0.0437  0.0010  0.2848
   46CHL1   H4A 5816   5.066   0.193  10.018  2.5534 -0.5382 -2.1658
   46CHL1   H4B 5817   5.103   0.043  10.081 -0.1368  0.3603  0.6045
   46CHL1    C5 5818   5.057   0.036   9.865 -0.9707 -0.3720  0.4991
   46CHL1    C6 5819   5.170  -0.032   9.843 -0.1271  1.1533 -0.6810
   46CHL1    H6 5820   5.218  -0.060   9.938 -0.6926 -1.2721 -1.0395
   46CHL1    C7 5821   5.213  -0.075   9.709 -0.1084  0.2397 -0.1384
   46CHL1   H7A 5822   5.313  -0.035   9.683 -0.4921  0.3928 -1.4307
   46CHL1   H7B 5823   5.226  -0.186   9.713  0.3412  0.1885 -2.1043
   46CHL1    C8 5824   5.126  -0.030   9.597 -0.0726 -0.0871 -0.6976
   46CHL1    H8 5825   5.164   0.072   9.577  0.4941 -0.0685  0.4386
   46CHL1   C14 5826   5.141  -0.110   9.472 -1.0020  0.2546 -0.3183
   46CHL1   H14 5827   5.101  -0.209   9.502 -0.2509  0.2828  0.8143
   46CHL1   C15 5828   5.284  -0.158   9.432  0.3210  0.4495 -0.1663
   46CHL1  H15A 5829   5.339  -0.062   9.420 -1.6535  1.7849  0.9699
   46CHL1  H15B 5830   5.326  -0.216   9.518  1.2981  1.7055  0.2355
   46CHL1   C16 5831   5.264  -0.226   9.300 -0.1031 -0.2840 -0.1195
   46CHL1  H16A 5832   5.338  -0.180   9.231  0.0255 -0.1128  0.1310
   46CHL1  H16B 5833   5.275  -0.336   9.293  1.4072 -0.0562 -2.0433
   46CHL1   C17 5834   5.124  -0.179   9.244 -0.1056 -0.1331 -0.0376
   46CHL1   H17 5835   5.053  -0.263   9.259  2.1024 -1.9893  0.5572
   46CHL1   C13 5836   5.076  -0.061   9.343  0.6084 -0.1284  0.3262
   46CHL1   C18 5837   5.123   0.082   9.295  0.2545 -0.5702  0.7059
   46CHL1  H18A 5838   5.102   0.166   9.364  0.6664 -0.4161  0.6509
   46CHL1  H18B 5839   5.234   0.085   9.301  0.2975 -0.1071 -0.1982
   46CHL1  H18C 5840   5.082   0.120   9.199  1.1727  0.6894  0.7886
   46CHL1   C12 5841   4.921  -0.051   9.376 -0.4721  0.3661  0.7124
   46CHL1  H12A 5842   4.880   0.007   9.291 -0.0436  0.4371  0.5483
   46CHL1  H12B 5843   4.875  -0.151   9.385 -0.3221  0.3528  1.4287
   46CHL1   C11 5844   4.898   0.026   9.502  0.1042  0.0033  0.1106
   46CHL1  H11A 5845   4.910   0.132   9.473  0.5439  0.4487  1.8085
   46CHL1  H11B 5846   4.790   0.008   9.523  0.3730 -0.1949  1.4643
   46CHL1    C9 5847   4.975  -0.018   9.632 -1.0654 -0.1300 -0.1282
   46CHL1    H9 5848   4.932  -0.118   9.655 -1.2725 -0.1267 -0.5026
   46CHL1   C10 5849   4.954   0.073   9.758 -0.2933  0.0353  0.7588
   46CHL1   C19 5850   4.974   0.224   9.723 -0.9048 -0.2705  0.8877
   46CHL1  H19A 5851   4.960   0.295   9.806  2.0641  2.4969 -0.7384
   46CHL1  H19B 5852   5.074   0.250   9.680 -1.5403  1.4359  0.3703
   46CHL1  H19C 5853   4.890   0.249   9.654  1.5973  1.7738 -1.6863
   46CHL1    C1 5854   4.815   0.046   9.810 -0.5599 -0.0275 -0.3265
   46CHL1   H1A 5855   4.745   0.093   9.737  0.2891  2.7960  0.5428
   46CHL1   H1B 5856   4.795  -0.063   9.808 -0.3479 -0.0680 -2.2501
   46CHL1    C2 5857   4.788   0.110   9.941  0.1408 -0.4191 -0.3406
   46CHL1   H2A 5858   4.683   0.091   9.970  0.6391 -0.6545  1.3897
   46CHL1   H2B 5859   4.806   0.219   9.941  0.1809 -0.3581  2.4194
   46CHL1   C20 5860   5.132  -0.146   9.098  0.0529  0.0137 -0.2659
   46CHL1   H20 5861   5.214  -0.074   9.077 -0.3469  1.3729  2.3217
   46CHL1   C21 5862   4.994  -0.101   9.046 -0.0273 -0.1011 -0.4138
   46CHL1  H21A 5863   4.961  -0.010   9.101  0.1874  0.0952 -0.6075
   46CHL1  H21B 5864   4.919  -0.183   9.049 -1.3101  1.0337 -0.1169
   46CHL1  H21C 5865   5.005  -0.077   8.938  2.4425 -0.5692 -0.3121
   46CHL1   C22 5866   5.174  -0.272   9.016 -0.7649  0.1837 -0.0915
   46CHL1  H22A 5867   5.260  -0.323   9.063 -2.3449 -1.1809  1.4616
   46CHL1  H22B 5868   5.089  -0.344   9.019 -1.4511  0.9629 -0.4238
   46CHL1   C23 5869   5.219  -0.249   8.870  0.1195  0.9760  0.6670
   46CHL1  H23A 5870   5.145  -0.189   8.812  2.3642  3.0436 -0.2259
   46CHL1  H23B 5871   5.311  -0.188   8.880  0.6856  0.0197  1.4858
   46CHL1   C24 5872   5.254  -0.387   8.809  0.3352 -0.6682 -0.3658
   46CHL1  H24A 5873   5.292  -0.459   8.885 -0.7382 -1.6627 -0.7448
   46CHL1  H24B 5874   5.162  -0.440   8.775 -1.3098  1.6570  0.2048
   46CHL1   C25 5875   5.347  -0.381   8.685  0.4708 -0.2026 -0.1130
   46CHL1   H25 5876   5.449  -0.349   8.716  0.3220 -1.0851  1.3692
   46CHL1   C26 5877   5.355  -0.524   8.625 -0.2210  0.4289  0.8414
   46CHL1  H26A 5878   5.253  -0.566   8.612 -0.4773  1.2737 -0.0330
   46CHL1  H26B 5879   5.411  -0.520   8.529  0.3126 -1.0727  1.0642
   46CHL1  H26C 5880   5.411  -0.594   8.691 -2.2426 -1.0579  1.0439
   46CHL1   C27 5881   5.286  -0.298   8.574 -0.0607  0.6182 -0.1835
   46CHL1  H27A 5882   5.347  -0.316   8.483  0.3515  0.1804  0.1723
   46CHL1  H27B 5883   5.178  -0.323   8.563  0.4216 -1.3442 -0.7675
   46CHL1  H27C 5884   5.291  -0.189   8.598 -0.3373  0.8037 -0.9538
   47CHL1    C3 5885   0.458   2.885  10.183 -0.1094  0.1991  0.2671
   47CHL1    H3 5886   0.364   2.944  10.169 -0.2203 -0.1547 -0.5506
   47CHL1    O3 5887   0.482   2.875  10.318 -0.1324 -0.5423  0.0977
   47CHL1   H3' 5888   0.418   2.810  10.347  0.5170 -0.7769  1.0605
   47CHL1    C4 5889   0.436   2.737  10.134 -0.3174  0.1494 -0.3441
   47CHL1   H4A 5890   0.509   2.656  10.152 -0.8516 -0.2577  0.0043
   47CHL1   H4B 5891   0.345   2.703  10.189  0.0540  1.0009  0.8492
   47CHL1    C5 5892   0.416   2.736   9.986  0.5404 -0.0711  0.8098
   47CHL1    C6 5893   0.305   2.688   9.921  0.5713 -0.4765  0.2696
   47CHL1    H6 5894   0.221   2.653   9.982 -1.0869  0.3393 -1.4283
   47CHL1    C7 5895   0.293   2.678   9.767  0.3081  0.3426 -0.1002
   47CHL1   H7A 5896   0.240   2.582   9.751 -2.3796  1.1359  2.9007
   47CHL1   H7B 5897   0.214   2.748   9.730  1.3406  0.8894 -1.3534
   47CHL1    C8 5898   0.417   2.712   9.689 -0.3001  0.5876 -0.8329
   47CHL1    H8 5899   0.477   2.618   9.693 -0.1762  0.7183  0.9472
   47CHL1   C14 5900   0.380   2.723   9.537 -0.0364 -0.3994 -0.2332
   47CHL1   H14 5901   0.311   2.810   9.527  0.7310  0.0509 -1.9011
   47CHL1   C15 5902   0.300   2.610   9.467  0.4469 -0.7680 -0.7929
   47CHL1  H15A 5903   0.349   2.515   9.496  4.0117  0.7171 -1.4376
   47CHL1  H15B 5904   0.195   2.625   9.502  0.7070  0.3759 -0.4711
   47CHL1   C16 5905   0.317   2.637   9.322  0.0994 -0.1102 -0.5188
   47CHL1  H16A 5906   0.361   2.545   9.280  0.4053 -0.9548  1.5292
   47CHL1  H16B 5907   0.225   2.660   9.264  1.9532 -0.0658 -3.6525
   47CHL1   C17 5908   0.412   2.763   9.311 -0.0306 -0.2807  0.6073
   47CHL1   H17 5909   0.355   2.858   9.312  0.2127 -0.1190 -0.4022
   47CHL1   C13 5910   0.493   2.762   9.443  0.6786 -0.0494 -0.1426
   47CHL1   C18 5911   0.604   2.646   9.451  0.3783 -0.0408  0.3247
   47CHL1  H18A 5912   0.693   2.676   9.391  0.0075 -1.8554 -1.2407
   47CHL1  H18B 5913   0.637   2.634   9.556 -0.9014  0.2918  0.7831
   47CHL1  H18C 5914   0.563   2.553   9.408 -1.5239  1.4760 -1.3421
   47CHL1   C12 5915   0.553   2.894   9.500  0.3994  0.5549  0.1634
   47CHL1  H12A 5916   0.639   2.947   9.455  0.8826  0.8320  1.3739
   47CHL1  H12B 5917   0.470   2.967   9.509 -1.1224 -1.3283  3.6282
   47CHL1   C11 5918   0.599   2.892   9.654 -0.3005  0.5392 -0.1832
   47CHL1  H11A 5919   0.702   2.848   9.659  0.3833  2.0287 -0.5999
   47CHL1  H11B 5920   0.621   2.993   9.695 -1.3072  0.7378 -0.1260
   47CHL1    C9 5921   0.493   2.832   9.746  0.2308 -0.5788  0.1488
   47CHL1    H9 5922   0.412   2.908   9.741 -1.4695 -2.3173 -0.5168
   47CHL1   C10 5923   0.526   2.805   9.898 -0.7493 -0.4032  0.4872
   47CHL1   C19 5924   0.652   2.715   9.897 -0.6676  0.2971  0.4380
   47CHL1  H19A 5925   0.683   2.689  10.001  1.4177  0.1504 -0.1785
   47CHL1  H19B 5926   0.639   2.625   9.832  0.4496  1.7360 -1.8946
   47CHL1  H19C 5927   0.741   2.763   9.853  0.2901 -2.3062 -0.6928
   47CHL1    C1 5928   0.557   2.947   9.959  0.0707 -0.2353 -0.8705
   47CHL1   H1A 5929   0.648   2.986   9.910 -1.9955  0.2620 -4.6292
   47CHL1   H1B 5930   0.478   3.020   9.935  0.1042 -0.3663 -1.3791
   47CHL1    C2 5931   0.575   2.949  10.113 -0.7784  0.0917  0.3322
   47CHL1   H2A 5932   0.599   3.053  10.146  0.6514 -0.1210  0.0102
   47CHL1   H2B 5933   0.667   2.893  10.141 -1.0987 -0.5678  0.0598
   47CHL1   C20 5934   0.488   2.769   9.180 -0.5164 -0.3315 -0.6918
   47CHL1   H20 5935   0.564   2.687   9.184 -1.3640 -1.1978 -1.7474
   47CHL1   C21 5936   0.571   2.899   9.172 -0.2159  0.2966  0.1339
   47CHL1  H21A 5937   0.613   2.914   9.070 -0.1844  3.2256  0.5008
   47CHL1  H21B 5938   0.649   2.916   9.249 -0.4882 -1.1268  0.7471
   47CHL1  H21C 5939   0.505   2.987   9.186 -0.4159  0.1484  0.1367
   47CHL1   C22 5940   0.402   2.739   9.057  0.0930 -1.3436 -0.5465
   47CHL1  H22A 5941   0.473   2.737   8.972 -0.5046  0.6761 -1.1398
   47CHL1  H22B 5942   0.343   2.645   9.059 -0.4930 -0.9749  1.0279
   47CHL1   C23 5943   0.286   2.852   9.052 -0.5954  0.0334  0.2748
   47CHL1  H23A 5944   0.237   2.856   9.151 -0.6848  0.7611  0.2091
   47CHL1  H23B 5945   0.331   2.949   9.020 -1.4332 -0.2920 -2.1034
   47CHL1   C24 5946   0.189   2.833   8.933 -0.8954 -0.0388  1.0743
   47CHL1  H24A 5947   0.124   2.744   8.945 -2.6882  0.5188 -2.9249
   47CHL1  H24B 5948   0.128   2.925   8.946  2.0637  2.1311  0.6452
   47CHL1   C25 5949   0.256   2.817   8.794  0.1917 -0.0932  0.2823
   47CHL1   H25 5950   0.334   2.737   8.791  0.1199 -0.1637  0.2780
   47CHL1   C26 5951   0.145   2.788   8.680  0.6408 -0.2787  0.1995
   47CHL1  H26A 5952   0.089   2.696   8.708  0.7864 -0.9481 -1.6316
   47CHL1  H26B 5953   0.192   2.761   8.584 -1.1979 -1.1595 -0.5070
   47CHL1  H26C 5954   0.072   2.871   8.665 -0.0884 -0.5792  1.8048
   47CHL1   C27 5955   0.324   2.947   8.752 -0.1639  0.7717  0.6889
   47CHL1  H27A 5956   0.393   2.941   8.666  0.9505  1.0920  1.5437
   47CHL1  H27B 5957   0.244   3.017   8.717  0.2196  1.7248  1.6642
   47CHL1  H27C 5958   0.371   2.993   8.841  0.9774 -0.1709  0.5934
   48CHL1    C3 5959   1.156   2.750  10.009 -0.4473  0.7422  0.2757
   48CHL1    H3 5960   1.221   2.840  10.006 -0.5009  0.9110  2.5840
   48CHL1    O3 5961   1.142   2.697  10.133 -0.5533  0.0986  0.2818
   48CHL1   H3' 5962   1.055   2.658  10.121 -1.2353  2.0767 -2.2214
   48CHL1    C4 5963   1.019   2.804   9.968  0.5660  0.4013 -0.3070
   48CHL1   H4A 5964   0.952   2.720   9.995 -0.3886  0.0271 -3.4560
   48CHL1   H4B 5965   0.994   2.889  10.036  1.0973  1.6403 -1.6010
   48CHL1    C5 5966   1.032   2.862   9.829  0.0189  0.1077  0.6078
   48CHL1    C6 5967   1.002   2.988   9.809 -0.7930  0.1013  0.3265
   48CHL1    H6 5968   0.982   3.056   9.892 -0.1615 -1.3126  1.6813
   48CHL1    C7 5969   1.022   3.062   9.679 -0.1138  0.1690  0.0272
   48CHL1   H7A 5970   0.935   3.128   9.658  1.1820  1.8872 -0.1188
   48CHL1   H7B 5971   1.113   3.125   9.679 -0.3134  0.5158 -1.6013
   48CHL1    C8 5972   1.034   2.968   9.555 -0.7266  0.3732  0.5160
   48CHL1    H8 5973   0.935   2.920   9.538  0.5375 -2.3535  0.3044
   48CHL1   C14 5974   1.085   3.054   9.437 -0.1686 -0.5478  0.7855
   48CHL1   H14 5975   1.190   3.080   9.461  0.3880 -1.1999 -0.7728
   48CHL1   C15 5976   1.014   3.187   9.400  1.0787 -0.2683  0.9512
   48CHL1  H15A 5977   0.904   3.178   9.392  1.1789 -0.0564 -1.4966
   48CHL1  H15B 5978   1.051   3.265   9.470 -0.9834  1.1672  0.5099
   48CHL1   C16 5979   1.066   3.213   9.252  0.6800 -0.1935  0.4678
   48CHL1  H16A 5980   0.981   3.205   9.181  1.4923  0.6883 -0.6269
   48CHL1  H16B 5981   1.112   3.314   9.252  0.2183  0.0295 -0.6217
   48CHL1   C17 5982   1.163   3.095   9.217  0.7485 -0.0000  0.9404
   48CHL1   H17 5983   1.264   3.117   9.257  0.6820  2.2013  0.0144
   48CHL1   C13 5984   1.113   2.975   9.300  0.4530 -0.5147  0.1954
   48CHL1   C18 5985   0.975   2.925   9.250  0.7182  0.3941  0.3747
   48CHL1  H18A 5986   0.930   2.861   9.328  1.5301  1.5213  1.8363
   48CHL1  H18B 5987   0.904   3.007   9.223  0.5705  0.0480 -0.3075
   48CHL1  H18C 5988   0.988   2.854   9.165  0.1407 -0.6434  1.1367
   48CHL1   C12 5989   1.206   2.854   9.329 -0.6156  0.0163 -0.0295
   48CHL1  H12A 5990   1.201   2.785   9.242  0.7606 -0.2762  0.0985
   48CHL1  H12B 5991   1.312   2.885   9.333 -1.1187  1.8034  0.4428
   48CHL1   C11 5992   1.165   2.771   9.457  0.1205 -0.2560  0.3751
   48CHL1  H11A 5993   1.068   2.725   9.426 -1.3409  2.8462 -0.0314
   48CHL1  H11B 5994   1.235   2.693   9.494  1.0340  1.6537  2.9401
   48CHL1    C9 5995   1.125   2.854   9.588 -0.3080 -0.5840  0.3307
   48CHL1    H9 5996   1.224   2.900   9.611 -0.4247 -0.0815 -0.1443
   48CHL1   C10 5997   1.084   2.777   9.719 -0.0331  0.1349  0.1313
   48CHL1   C19 5998   0.967   2.676   9.685  0.1798  0.5848  0.4130
   48CHL1  H19A 5999   0.888   2.715   9.617 -0.5182  0.6625  1.2622
   48CHL1  H19B 6000   1.000   2.594   9.617  0.6649  1.7642 -0.8157
   48CHL1  H19C 6001   0.926   2.630   9.777 -1.6485 -1.0462 -1.1119
   48CHL1    C1 6002   1.210   2.696   9.768  0.5847 -0.3444 -0.0522
   48CHL1   H1A 6003   1.239   2.615   9.698 -0.3801 -1.0164  0.3135
   48CHL1   H1B 6004   1.299   2.763   9.772 -0.9200  1.7313  0.3051
   48CHL1    C2 6005   1.190   2.638   9.911 -0.4028 -0.0514  0.0545
   48CHL1   H2A 6006   1.286   2.596   9.948 -0.0286 -0.1594 -0.9925
   48CHL1   H2B 6007   1.104   2.568   9.919 -1.9552  1.9293  1.5123
   48CHL1   C20 6008   1.168   3.074   9.063  0.3473 -0.6691 -0.4587
   48CHL1   H20 6009   1.080   3.012   9.039  0.0145 -1.0061  1.4256
   48CHL1   C21 6010   1.295   2.990   9.033  0.6898  1.2078  0.6393
   48CHL1  H21A 6011   1.280   2.946   8.932 -0.0007  2.0207  0.3706
   48CHL1  H21B 6012   1.300   2.905   9.105  0.6474 -1.0090 -1.8457
   48CHL1  H21C 6013   1.384   3.056   9.035  0.3211  1.7281  2.4589
   48CHL1   C22 6014   1.165   3.205   8.990  0.2643 -0.6487  0.9313
   48CHL1  H22A 6015   1.060   3.240   8.993  0.8347  1.0907  2.6839
   48CHL1  H22B 6016   1.237   3.278   9.033 -0.8408 -0.2834  2.2337
   48CHL1   C23 6017   1.207   3.189   8.839 -0.4038  0.3300 -0.3610
   48CHL1  H23A 6018   1.318   3.178   8.836 -0.3333  0.5024  1.0746
   48CHL1  H23B 6019   1.160   3.108   8.780  0.3654 -1.1087  0.9214
   48CHL1   C24 6020   1.163   3.316   8.758 -0.5847 -0.2400 -0.4912
   48CHL1  H24A 6021   1.058   3.347   8.775  0.5197  3.1674  0.9005
   48CHL1  H24B 6022   1.217   3.402   8.804  0.5554 -0.2547 -1.7409
   48CHL1   C25 6023   1.190   3.323   8.601 -0.2155 -0.1744  0.1278
   48CHL1   H25 6024   1.168   3.426   8.565  1.3528  0.0437 -0.2889
   48CHL1   C26 6025   1.341   3.312   8.571  0.1682 -0.7495 -0.0374
   48CHL1  H26A 6026   1.397   3.399   8.613 -0.9618 -0.7344  1.5184
   48CHL1  H26B 6027   1.377   3.213   8.607 -1.7452 -0.8841  1.7087
   48CHL1  H26C 6028   1.352   3.320   8.460 -4.7637 -0.3888 -0.7193
   48CHL1   C27 6029   1.115   3.228   8.510 -0.1735  0.1635  0.4035
   48CHL1  H27A 6030   1.173   3.225   8.416  1.2573 -0.9057  1.2624
   48CHL1  H27B 6031   1.106   3.127   8.557  2.6673 -0.2360  0.2462
   48CHL1  H27C 6032   1.011   3.262   8.489 -0.9303 -2.6617 -1.0177
   49CHL1    C3 6033   4.786   5.546  10.026 -0.3578  0.0795 -0.0292
   49CHL1    H3 6034   4.704   5.600   9.975 -0.0688 -2.1409 -3.1423
   49CHL1    O3 6035   4.783   5.555  10.168  0.4483  0.2986  0.2274
   49CHL1   H3' 6036   4.697   5.519  10.191  0.1802 -1.0729 -2.5153
   49CHL1    C4 6037   4.766   5.398   9.975 -0.0441 -0.6311 -0.3915
   49CHL1   H4A 6038   4.819   5.324  10.038 -0.9503  0.4133  1.7124
   49CHL1   H4B 6039   4.660   5.370   9.995 -0.2730  0.4733  0.0560
   49CHL1    C5 6040   4.797   5.376   9.828 -0.4374  0.4287  0.2897
   49CHL1    C6 6041   4.717   5.311   9.745 -0.3548 -0.0195  1.1400
   49CHL1    H6 6042   4.627   5.256   9.777 -1.2479 -0.0292 -1.1492
   49CHL1    C7 6043   4.752   5.299   9.598 -0.0014  0.6387  0.4682
   49CHL1   H7A 6044   4.709   5.198   9.576 -1.4054  1.1765  0.6258
   49CHL1   H7B 6045   4.701   5.376   9.537  0.5034  0.6659  0.0723
   49CHL1    C8 6046   4.900   5.313   9.560 -0.4797  0.3221 -0.8243
   49CHL1    H8 6047   4.950   5.230   9.614 -1.0129 -0.2043 -1.1318
   49CHL1   C14 6048   4.921   5.307   9.413 -0.4240  0.2473  0.5464
   49CHL1   H14 6049   4.876   5.402   9.377 -1.6797 -0.0208  1.3478
   49CHL1   C15 6050   4.863   5.190   9.323 -0.5979 -0.1013  0.4648
   49CHL1  H15A 6051   4.879   5.089   9.368  0.2879  1.1360  3.0864
   49CHL1  H15B 6052   4.754   5.198   9.303 -0.1900  0.8499 -1.7402
   49CHL1   C16 6053   4.938   5.198   9.193  0.0908  0.0962 -0.1089
   49CHL1  H16A 6054   4.981   5.101   9.158 -0.1851  0.7917 -2.5622
   49CHL1  H16B 6055   4.883   5.242   9.107 -0.2431 -0.0471  0.0266
   49CHL1   C17 6056   5.054   5.299   9.215  0.2991 -0.6362  0.0867
   49CHL1   H17 6057   5.021   5.395   9.171  3.4501  1.0085  0.9916
   49CHL1   C13 6058   5.065   5.320   9.364 -0.8215 -0.5779 -0.5780
   49CHL1   C18 6059   5.159   5.214   9.423 -0.0305 -0.2400 -0.8437
   49CHL1  H18A 6060   5.140   5.207   9.532  0.5173  1.3846 -0.6106
   49CHL1  H18B 6061   5.149   5.111   9.384 -1.9416  0.2292 -1.7160
   49CHL1  H18C 6062   5.265   5.245   9.407  0.6471 -2.3291 -0.7066
   49CHL1   C12 6063   5.106   5.473   9.414 -0.0500  0.0840 -0.4769
   49CHL1  H12A 6064   5.214   5.484   9.392  0.1055  1.1299  0.6905
   49CHL1  H12B 6065   5.055   5.552   9.354  0.6111  0.1432 -0.9778
   49CHL1   C11 6066   5.089   5.485   9.570  0.1027  0.2064  0.1028
   49CHL1  H11A 6067   5.175   5.438   9.621  1.8222  1.6499 -1.3070
   49CHL1  H11B 6068   5.098   5.591   9.604  1.6098  0.9150 -2.2325
   49CHL1    C9 6069   4.950   5.438   9.619 -0.1168  0.4594  0.0956
   49CHL1    H9 6070   4.879   5.517   9.589  0.2010  1.2167  1.2743
   49CHL1   C10 6071   4.936   5.433   9.777 -0.4977 -0.5336 -0.0112
   49CHL1   C19 6072   5.053   5.353   9.850 -0.2833 -0.3959  0.5441
   49CHL1  H19A 6073   5.024   5.354   9.957 -2.3241  0.3794  0.0343
   49CHL1  H19B 6074   5.044   5.246   9.823  1.9863 -0.3380 -0.6940
   49CHL1  H19C 6075   5.156   5.395   9.841 -0.7616  0.6974 -0.1173
   49CHL1    C1 6076   4.939   5.587   9.830  0.3064  0.2240  0.2629
   49CHL1   H1A 6077   5.040   5.631   9.810  1.1672 -1.5007  0.6355
   49CHL1   H1B 6078   4.856   5.631   9.771 -0.9949 -0.6068  1.4246
   49CHL1    C2 6079   4.914   5.609   9.980 -0.7039 -0.1311  0.3994
   49CHL1   H2A 6080   4.913   5.719   9.989  1.0344 -0.0889  0.3790
   49CHL1   H2B 6081   5.002   5.582  10.043  1.4279 -0.3442 -2.4672
   49CHL1   C20 6082   5.171   5.260   9.129 -0.5922  0.3524  0.3606
   49CHL1   H20 6083   5.221   5.168   9.168  1.5307  0.2533 -2.3108
   49CHL1   C21 6084   5.268   5.376   9.149 -0.5286  0.8038  0.1214
   49CHL1  H21A 6085   5.322   5.381   9.051  3.0298  2.1151  1.9528
   49CHL1  H21B 6086   5.334   5.347   9.234 -0.6187  1.1590  0.3148
   49CHL1  H21C 6087   5.212   5.469   9.172  1.5125  1.9740  0.6383
   49CHL1   C22 6088   5.141   5.234   8.978  0.2934 -0.0364  0.3024
   49CHL1  H22A 6089   5.041   5.191   8.955 -0.7084  1.6356  1.2860
   49CHL1  H22B 6090   5.139   5.336   8.934  0.2942  1.0246  2.6070
   49CHL1   C23 6091   5.244   5.147   8.899  0.2827 -0.1554  0.1570
   49CHL1  H23A 6092   5.349   5.173   8.926  0.2383  0.4633 -0.2415
   49CHL1  H23B 6093   5.232   5.041   8.928  1.6424 -0.9090 -1.7822
   49CHL1   C24 6094   5.232   5.156   8.743  0.6692  0.1223 -0.1955
   49CHL1  H24A 6095   5.182   5.064   8.706 -0.9813  0.2369  1.5667
   49CHL1  H24B 6096   5.174   5.247   8.718  0.9965  0.5319  0.5204
   49CHL1   C25 6097   5.363   5.164   8.665 -0.4108  0.2758 -0.2362
   49CHL1   H25 6098   5.412   5.261   8.691  0.2651 -0.0901 -0.1456
   49CHL1   C26 6099   5.462   5.052   8.699 -0.8079 -0.4085 -0.0108
   49CHL1  H26A 6100   5.541   5.052   8.621 -0.7843 -1.4501  0.0023
   49CHL1  H26B 6101   5.496   5.069   8.803  0.1466 -0.4835 -0.3010
   49CHL1  H26C 6102   5.412   4.953   8.693 -2.9857  0.6618 -0.7120
   49CHL1   C27 6103   5.337   5.149   8.515 -0.6226 -0.1473  1.0407
   49CHL1  H27A 6104   5.239   5.191   8.486 -0.3777 -1.0873 -1.4153
   49CHL1  H27B 6105   5.416   5.184   8.445 -0.6274 -1.4869  0.3274
   49CHL1  H27C 6106   5.318   5.042   8.492 -1.4705 -0.3359  2.4730
   50CHL1    C3 6107   0.134   0.015   9.937 -0.4439  0.3065 -0.2002
   50CHL1    H3 6108   0.048   0.080   9.965 -1.0162 -0.4633 -0.1259
   50CHL1    O3 6109   0.197   0.004  10.061 -0.3082  0.2428 -0.0813
   50CHL1   H3' 6110   0.155   0.059  10.127 -2.9455 -1.3670 -0.2809
   50CHL1    C4 6111   0.095  -0.124   9.886  0.2534  0.2305  0.2679
   50CHL1   H4A 6112   0.180  -0.195   9.897  0.5162  0.7641  1.8857
   50CHL1   H4B 6113   0.020  -0.161   9.959 -0.7358  1.5763 -0.0497
   50CHL1    C5 6114   0.047  -0.139   9.743  0.1851  0.7896  0.4384
   50CHL1    C6 6115  -0.068  -0.201   9.713 -0.0192  0.0578  0.4196
   50CHL1    H6 6116  -0.130  -0.246   9.793 -0.6564 -0.3326 -0.2872
   50CHL1    C7 6117  -0.110  -0.218   9.568 -0.1957 -0.0924  0.0553
   50CHL1   H7A 6118  -0.143  -0.322   9.548 -2.5364  0.6166 -0.1089
   50CHL1   H7B 6119  -0.185  -0.138   9.550  0.8129  1.4918  2.3538
   50CHL1    C8 6120  -0.002  -0.175   9.457  0.6631  0.3362  0.1620
   50CHL1    H8 6121   0.080  -0.251   9.454  0.9399  0.6158  0.5503
   50CHL1   C14 6122  -0.056  -0.159   9.314  0.6213 -0.1032 -0.3145
   50CHL1   H14 6123  -0.136  -0.083   9.327 -0.4392 -1.3162  0.7589
   50CHL1   C15 6124  -0.152  -0.272   9.259 -0.0671  0.9831 -0.3798
   50CHL1  H15A 6125  -0.118  -0.378   9.266  0.4919  1.2559  1.6369
   50CHL1  H15B 6126  -0.253  -0.265   9.306 -0.0433  0.2475 -0.2047
   50CHL1   C16 6127  -0.153  -0.237   9.106 -0.2731  0.2143 -0.2168
   50CHL1  H16A 6128  -0.109  -0.325   9.054  1.0233 -1.9539  4.0690
   50CHL1  H16B 6129  -0.254  -0.215   9.063 -0.2768  0.0694 -0.2808
   50CHL1   C17 6130  -0.070  -0.107   9.090 -0.2074  0.6690 -0.6057
   50CHL1   H17 6131  -0.139  -0.025   9.118 -1.3164 -0.2351 -0.6097
   50CHL1   C13 6132   0.037  -0.111   9.209  0.5080 -0.1200 -0.1238
   50CHL1   C18 6133   0.149  -0.218   9.180  0.4503  0.5232 -0.8719
   50CHL1  H18A 6134   0.204  -0.242   9.273  2.1156  2.4024 -1.3228
   50CHL1  H18B 6135   0.100  -0.312   9.145 -0.9229  1.0198 -0.3394
   50CHL1  H18C 6136   0.222  -0.182   9.105 -0.5142  0.5366 -1.8390
   50CHL1   C12 6137   0.094   0.025   9.260 -0.4517 -0.3138 -0.5325
   50CHL1  H12A 6138   0.165   0.068   9.187 -1.0318  2.5026  0.4376
   50CHL1  H12B 6139   0.013   0.099   9.279 -0.4549  0.0988 -1.9875
   50CHL1   C11 6140   0.160   0.005   9.397 -1.0833  0.4615  0.5926
   50CHL1  H11A 6141   0.242  -0.068   9.378 -1.9677 -0.8221  1.5165
   50CHL1  H11B 6142   0.211   0.099   9.424  3.1108 -0.9219 -1.5436
   50CHL1    C9 6143   0.071  -0.052   9.510 -0.6692 -0.1196  0.0846
   50CHL1    H9 6144  -0.010   0.023   9.521 -0.5946 -0.0439  0.1157
   50CHL1   C10 6145   0.137  -0.067   9.644 -0.0707  0.5319  0.2244
   50CHL1   C19 6146   0.271  -0.162   9.629 -0.3532  0.1990 -0.7137
   50CHL1  H19A 6147   0.237  -0.267   9.611 -1.0454  0.4064 -0.6301
   50CHL1  H19B 6148   0.343  -0.124   9.553  1.2280 -2.2676 -0.5744
   50CHL1  H19C 6149   0.330  -0.165   9.723  0.0949  0.4071 -0.9844
   50CHL1    C1 6150   0.176   0.073   9.696 -0.1158 -0.0776  0.4626
   50CHL1   H1A 6151   0.258   0.116   9.635  1.0995 -0.9142  1.4721
   50CHL1   H1B 6152   0.088   0.141   9.690  0.2288  0.5239  1.8597
   50CHL1    C2 6153   0.226   0.078   9.840 -0.3847 -0.5941  0.1556
   50CHL1   H2A 6154   0.239   0.183   9.874 -1.7279 -0.9536  1.9357
   50CHL1   H2B 6155   0.324   0.025   9.838 -0.0595 -0.0546  1.0018
   50CHL1   C20 6156  -0.013  -0.108   8.947  0.0490 -0.4637 -0.2109
   50CHL1   H20 6157   0.055  -0.196   8.948 -0.2555 -0.7712  2.5119
   50CHL1   C21 6158   0.072   0.019   8.916 -0.0116  0.1446  0.0847
   50CHL1  H21A 6159   0.151   0.036   8.992 -0.2543  0.6866  0.2275
   50CHL1  H21B 6160   0.005   0.109   8.914  0.1968  0.3080  0.5307
   50CHL1  H21C 6161   0.131   0.019   8.822 -0.1823  2.6203 -0.0986
   50CHL1   C22 6162  -0.113  -0.141   8.825 -0.3340  0.8199  0.0325
   50CHL1  H22A 6163  -0.159  -0.237   8.857  0.7150  0.3440  0.1420
   50CHL1  H22B 6164  -0.198  -0.070   8.810 -0.4413  0.6249 -0.2897
   50CHL1   C23 6165  -0.046  -0.163   8.696  0.1124  0.0417  0.1425
   50CHL1  H23A 6166  -0.017  -0.067   8.647  0.2758 -0.8935 -1.6637
   50CHL1  H23B 6167   0.044  -0.227   8.703  0.6155  0.7729  0.4165
   50CHL1   C24 6168  -0.144  -0.228   8.603  0.4772 -0.1568 -0.3150
   50CHL1  H24A 6169  -0.198  -0.308   8.656  0.8671  0.3875  0.9339
   50CHL1  H24B 6170  -0.224  -0.154   8.581 -0.7613 -1.2817  0.2615
   50CHL1   C25 6171  -0.088  -0.275   8.465  0.1903 -0.5352  0.0636
   50CHL1   H25 6172  -0.175  -0.283   8.396 -0.4866  1.5453  0.6090
   50CHL1   C26 6173  -0.000  -0.166   8.406  0.2335  0.2193  0.0427
   50CHL1  H26A 6174   0.034  -0.205   8.308 -0.4337 -2.2181  0.7186
   50CHL1  H26B 6175  -0.059  -0.072   8.398  0.0913  0.1835  0.6102
   50CHL1  H26C 6176   0.081  -0.155   8.481 -1.5541  1.9493  1.8634
   50CHL1   C27 6177  -0.004  -0.403   8.470 -0.1111  0.2208  0.1043
   50CHL1  H27A 6178   0.029  -0.434   8.368 -0.4030  1.0423 -0.2525
   50CHL1  H27B 6179   0.092  -0.379   8.521  1.0937 -0.4587 -1.7221
   50CHL1  H27C 6180  -0.049  -0.490   8.523  0.8038 -0.5702 -0.3843
   51CHL1    C3 6181   3.021   5.561  10.047  0.6059  0.1608  0.4995
   51CHL1    H3 6182   2.966   5.479   9.997 -0.6851  1.2006  0.1508
   51CHL1    O3 6183   3.054   5.513  10.171 -0.1432 -0.0417  0.0240
   51CHL1   H3' 6184   3.102   5.585  10.212  0.4284  0.5164 -1.5481
   51CHL1    C4 6185   3.150   5.599   9.975 -1.1392  0.4794 -0.0420
   51CHL1   H4A 6186   3.197   5.677  10.039 -0.6204  0.2090 -0.0884
   51CHL1   H4B 6187   3.217   5.510   9.980 -2.4248 -0.6384 -1.5080
   51CHL1    C5 6188   3.143   5.667   9.844  0.1208 -0.3836  0.4120
   51CHL1    C6 6189   3.203   5.618   9.743 -0.0812 -0.2971 -0.1868
   51CHL1    H6 6190   3.270   5.533   9.763 -1.1519 -0.5806  2.6570
   51CHL1    C7 6191   3.186   5.677   9.609  0.0093  0.4080  0.3640
   51CHL1   H7A 6192   3.282   5.665   9.554 -1.4702 -3.0917 -1.8314
   51CHL1   H7B 6193   3.124   5.608   9.548  2.2921 -2.3413  0.8889
   51CHL1    C8 6194   3.120   5.813   9.607  0.0996 -0.1052  0.3320
   51CHL1    H8 6195   3.198   5.882   9.645 -0.2603 -0.4946  1.8601
   51CHL1   C14 6196   3.081   5.851   9.471 -0.6761  0.2020 -0.4200
   51CHL1   H14 6197   3.006   5.774   9.445 -0.7086 -0.4687  1.5243
   51CHL1   C15 6198   3.186   5.838   9.361  0.2997  0.0365 -0.9800
   51CHL1  H15A 6199   3.273   5.888   9.408 -0.4535  0.5223 -0.0826
   51CHL1  H15B 6200   3.204   5.730   9.338 -1.7287 -0.5829  0.1224
   51CHL1   C16 6201   3.125   5.907   9.235 -0.0707  0.1534 -0.5782
   51CHL1  H16A 6202   3.203   5.968   9.186  1.3225 -1.1230 -0.0292
   51CHL1  H16B 6203   3.097   5.841   9.151 -1.0347  1.2760 -1.1649
   51CHL1   C17 6204   2.993   5.972   9.288 -0.7551 -0.3091  0.4177
   51CHL1   H17 6205   2.918   5.892   9.270  1.5819 -2.6759  0.6046
   51CHL1   C13 6206   3.009   5.982   9.442  0.7149  0.0369  0.4136
   51CHL1   C18 6207   3.100   6.100   9.479 -1.3532  0.3691 -0.0590
   51CHL1  H18A 6208   3.189   6.114   9.415 -1.2690 -1.0806 -0.2867
   51CHL1  H18B 6209   3.039   6.192   9.464 -0.3114  1.3555  1.4097
   51CHL1  H18C 6210   3.140   6.088   9.582  1.0162 -1.2945 -1.1050
   51CHL1   C12 6211   2.879   5.976   9.519  0.6229 -0.6661 -0.1586
   51CHL1  H12A 6212   2.816   6.068   9.519  2.3319  0.5632 -1.3937
   51CHL1  H12B 6213   2.819   5.896   9.471 -0.6331 -1.0597  1.9437
   51CHL1   C11 6214   2.916   5.947   9.671  0.0212  0.1558  0.1498
   51CHL1  H11A 6215   2.982   6.031   9.704  0.2869 -0.7112  1.9169
   51CHL1  H11B 6216   2.827   5.941   9.737  0.4728 -0.4732  0.7133
   51CHL1    C9 6217   2.997   5.816   9.686 -0.1136 -0.3062 -0.0114
   51CHL1    H9 6218   2.934   5.734   9.645 -1.5126 -0.2111  1.8159
   51CHL1   C10 6219   3.037   5.777   9.836 -0.0523  0.2354 -0.1708
   51CHL1   C19 6220   3.088   5.901   9.906  0.1692  0.7104  0.2148
   51CHL1  H19A 6221   3.121   5.875  10.009  1.5296 -0.5893 -0.5040
   51CHL1  H19B 6222   3.177   5.939   9.852 -1.3687  3.0373 -0.8648
   51CHL1  H19C 6223   3.019   5.988   9.909 -1.2532 -0.3102 -1.2129
   51CHL1    C1 6224   2.916   5.726   9.910  0.0261 -0.0212  0.2839
   51CHL1   H1A 6225   2.835   5.800   9.899 -0.0438 -0.1579 -0.1455
   51CHL1   H1B 6226   2.873   5.636   9.861 -0.4417  0.1079  0.4591
   51CHL1    C2 6227   2.932   5.681  10.055 -0.5190  0.9859 -0.0331
   51CHL1   H2A 6228   2.842   5.632  10.098 -0.1083 -2.8357 -2.9948
   51CHL1   H2B 6229   2.961   5.755  10.133 -0.5677 -1.6689  2.6944
   51CHL1   C20 6230   2.955   6.092   9.203  1.2224  0.4008  0.3386
   51CHL1   H20 6231   3.019   6.173   9.244  0.0791 -0.3143  3.8088
   51CHL1   C21 6232   2.806   6.117   9.221 -0.4528  0.4431 -0.3028
   51CHL1  H21A 6233   2.752   6.027   9.184  0.1424 -0.1001  0.1298
   51CHL1  H21B 6234   2.772   6.210   9.170 -0.5848 -0.7351 -2.4787
   51CHL1  H21C 6235   2.777   6.120   9.328  0.8865 -1.8253  0.1829
   51CHL1   C22 6236   2.981   6.070   9.054 -0.0015 -0.3616 -0.3072
   51CHL1  H22A 6237   3.090   6.061   9.030  0.6332  0.4362  2.0104
   51CHL1  H22B 6238   2.923   5.987   9.009  0.6097 -0.4971 -0.8642
   51CHL1   C23 6239   2.956   6.204   8.975  0.4571 -0.1340  0.1895
   51CHL1  H23A 6240   2.846   6.215   8.978  0.5724  0.8933  1.3319
   51CHL1  H23B 6241   3.004   6.280   9.040 -2.8613  1.4272  0.9865
   51CHL1   C24 6242   3.011   6.212   8.835 -0.1780  0.6623  0.2047
   51CHL1  H24A 6243   3.004   6.319   8.808 -0.0519  1.3888  2.7776
   51CHL1  H24B 6244   3.118   6.188   8.852  0.5710  1.9128 -2.2982
   51CHL1   C25 6245   2.948   6.122   8.724 -0.6204 -0.1613  0.1642
   51CHL1   H25 6246   2.932   6.022   8.770  0.7598  0.1274  1.3414
   51CHL1   C26 6247   2.810   6.180   8.697  0.5269  0.2191 -0.3448
   51CHL1  H26A 6248   2.808   6.284   8.659  2.1747  0.6003  0.5240
   51CHL1  H26B 6249   2.751   6.122   8.622 -2.0819  2.6791 -0.3652
   51CHL1  H26C 6250   2.743   6.168   8.785 -0.1524 -1.1861 -1.0182
   51CHL1   C27 6251   3.032   6.126   8.599 -0.3614  0.3789 -0.0602
   51CHL1  H27A 6252   2.977   6.059   8.530 -0.6884 -0.1790  0.7325
   51CHL1  H27B 6253   3.045   6.225   8.549 -0.5586  0.7613  0.6320
   51CHL1  H27C 6254   3.132   6.082   8.620 -1.3125 -1.6549  0.4809
   52CHL1    C3 6255   6.119   1.266  10.073  0.2334  0.8792 -0.0587
   52CHL1    H3 6256   6.103   1.376  10.078 -0.1634  0.7981  0.6744
   52CHL1    O3 6257   6.116   1.223  10.205  0.4777  0.3966  0.1959
   52CHL1   H3' 6258   6.026   1.192  10.217  0.2460  0.7776 -0.4854
   52CHL1    C4 6259   5.997   1.201  10.003 -0.1233  0.9146  0.0760
   52CHL1   H4A 6260   6.006   1.092  10.021  1.5594  0.8159 -1.2005
   52CHL1   H4B 6261   5.899   1.218  10.053 -0.5109  1.1260 -0.7448
   52CHL1    C5 6262   6.006   1.231   9.857 -0.7985  0.6989  0.5394
   52CHL1    C6 6263   5.899   1.295   9.805 -0.2571  0.4664  0.4268
   52CHL1    H6 6264   5.827   1.317   9.885 -0.1878 -1.9146  1.2019
   52CHL1    C7 6265   5.888   1.338   9.662 -0.4165  0.1001 -0.9784
   52CHL1   H7A 6266   5.782   1.333   9.630 -0.7384  1.5832 -0.2399
   52CHL1   H7B 6267   5.905   1.447   9.662 -0.1252  0.0565 -0.6822
   52CHL1    C8 6268   5.984   1.245   9.585 -0.0589  0.5062  0.5338
   52CHL1    H8 6269   5.942   1.143   9.584 -2.8198  1.5217  2.2537
   52CHL1   C14 6270   5.984   1.298   9.445 -0.3253 -0.2575  0.6281
   52CHL1   H14 6271   6.018   1.403   9.456 -1.1022 -0.1303  1.9466
   52CHL1   C15 6272   5.856   1.319   9.357 -0.3943  0.0051 -0.2640
   52CHL1  H15A 6273   5.785   1.234   9.371 -1.6419  1.3302  2.0503
   52CHL1  H15B 6274   5.801   1.408   9.394 -2.0868 -0.4556 -1.5762
   52CHL1   C16 6275   5.907   1.337   9.214  0.5620  0.1529 -0.8602
   52CHL1  H16A 6276   5.875   1.249   9.155  1.5582 -0.4255 -0.5514
   52CHL1  H16B 6277   5.871   1.434   9.173 -3.7463 -0.9748 -0.2972
   52CHL1   C17 6278   6.060   1.319   9.222 -0.3096  0.1289 -0.8943
   52CHL1   H17 6279   6.095   1.419   9.253 -1.1264 -0.1973  1.2879
   52CHL1   C13 6280   6.082   1.229   9.349  0.2196 -0.5035 -1.3144
   52CHL1   C18 6281   6.028   1.083   9.335 -0.5586 -0.9809 -0.4949
   52CHL1  H18A 6282   6.114   1.033   9.284  0.7702 -0.2972  0.9995
   52CHL1  H18B 6283   6.005   1.039   9.434 -2.2950  0.9407  0.0111
   52CHL1  H18C 6284   5.940   1.065   9.270  0.0932 -1.5535 -1.2416
   52CHL1   C12 6285   6.224   1.238   9.411  0.0769  0.2167  0.1075
   52CHL1  H12A 6286   6.297   1.182   9.348 -0.0862 -0.4185  0.4645
   52CHL1  H12B 6287   6.256   1.343   9.423  0.8336 -0.0955  0.9309
   52CHL1   C11 6288   6.225   1.167   9.550 -0.0243  0.1870  0.5073
   52CHL1  H11A 6289   6.202   1.061   9.529  1.8569 -0.0563 -0.5433
   52CHL1  H11B 6290   6.327   1.180   9.593  0.4410 -1.2362 -0.1075
   52CHL1    C9 6291   6.128   1.241   9.644  0.9321 -0.2451 -0.7500
   52CHL1    H9 6292   6.171   1.343   9.652  2.2622 -0.8269 -0.2050
   52CHL1   C10 6293   6.127   1.181   9.789 -0.3247  0.5443  0.0884
   52CHL1   C19 6294   6.132   1.023   9.791  0.7380 -0.0378 -0.0736
   52CHL1  H19A 6295   6.045   0.983   9.734  0.2178  0.6396  0.2389
   52CHL1  H19B 6296   6.224   0.980   9.744  1.4865 -0.5256  1.7617
   52CHL1  H19C 6297   6.127   0.984   9.895  0.6670  1.0456  0.3372
   52CHL1    C1 6298   6.251   1.238   9.848  0.1759  0.3118 -0.0432
   52CHL1   H1A 6299   6.349   1.202   9.810  0.0290  1.2600 -1.3964
   52CHL1   H1B 6300   6.264   1.348   9.838  0.8331  0.1941 -0.5368
   52CHL1    C2 6301   6.252   1.228  10.002  0.2298 -0.6408  0.3285
   52CHL1   H2A 6302   6.336   1.281  10.052  0.2861 -0.2389 -0.1859
   52CHL1   H2B 6303   6.261   1.122  10.032  0.3240 -0.5022  0.8047
   52CHL1   C20 6304   6.132   1.272   9.088  0.0017  0.1303 -0.1543
   52CHL1   H20 6305   6.235   1.234   9.106 -0.7517 -1.6644  0.5522
   52CHL1   C21 6306   6.141   1.404   9.007  0.0796 -0.7550  0.6537
   52CHL1  H21A 6307   6.043   1.435   8.967  0.5426  1.3820  1.0517
   52CHL1  H21B 6308   6.207   1.392   8.918  0.8116  0.3909  1.0062
   52CHL1  H21C 6309   6.184   1.484   9.072  0.7463 -1.7016  1.4130
   52CHL1   C22 6310   6.051   1.165   9.004  0.0046 -0.1113 -0.0682
   52CHL1  H22A 6311   6.022   1.075   9.063  0.5769 -0.1823  0.1068
   52CHL1  H22B 6312   5.958   1.210   8.962 -0.0584  1.1367  1.3314
   52CHL1   C23 6313   6.145   1.114   8.881 -0.0200 -0.5994 -0.7162
   52CHL1  H23A 6314   6.193   1.203   8.836  0.4229  0.1071  1.0929
   52CHL1  H23B 6315   6.213   1.037   8.924  0.5162  0.9314  1.3283
   52CHL1   C24 6316   6.061   1.049   8.766  0.0576 -0.3536 -0.1005
   52CHL1  H24A 6317   6.025   0.957   8.815  0.9498 -0.1721  0.9216
   52CHL1  H24B 6318   5.974   1.108   8.728  0.7977 -0.7103 -2.5243
   52CHL1   C25 6319   6.146   1.009   8.649  0.1591 -0.4978  0.4452
   52CHL1   H25 6320   6.230   0.943   8.683  2.2898  0.8160 -1.9068
   52CHL1   C26 6321   6.061   0.912   8.562 -0.8544  0.3426 -0.2163
   52CHL1  H26A 6322   6.122   0.883   8.474 -1.1401 -1.0879  0.0319
   52CHL1  H26B 6323   6.038   0.820   8.620 -1.1981  0.6689  0.1703
   52CHL1  H26C 6324   5.972   0.962   8.520  0.6032  1.4947 -2.1141
   52CHL1   C27 6325   6.197   1.132   8.562  0.1510 -0.1707 -0.1208
   52CHL1  H27A 6326   6.109   1.162   8.501 -0.2542  0.1154  0.5934
   52CHL1  H27B 6327   6.242   1.209   8.628 -0.1884 -0.3757  0.3544
   52CHL1  H27C 6328   6.280   1.106   8.492  2.4381  2.6698  1.3179
   53CHL1    C3 6329   0.262   0.616   9.963  0.7075  0.6184  0.0377
   53CHL1    H3 6330   0.371   0.599   9.952  1.3753  4.2888 -0.0926
   53CHL1    O3 6331   0.246   0.654  10.098 -0.5522  0.0936 -0.2857
   53CHL1   H3' 6332   0.163   0.702  10.108 -0.0006  1.7966 -2.9226
   53CHL1    C4 6333   0.210   0.725   9.873 -0.3289  0.0098 -0.0962
   53CHL1   H4A 6334   0.113   0.760   9.913  0.7843  0.4091  2.5173
   53CHL1   H4B 6335   0.284   0.808   9.872 -0.8522  0.4753 -0.9215
   53CHL1    C5 6336   0.186   0.691   9.727  0.2083  0.0949  0.3532
   53CHL1    C6 6337   0.237   0.760   9.623  0.3165  0.0464  0.1130
   53CHL1    H6 6338   0.295   0.851   9.645 -0.3356  0.1456  1.4923
   53CHL1    C7 6339   0.198   0.741   9.479 -0.0954 -0.3906  0.2802
   53CHL1   H7A 6340   0.173   0.839   9.433 -0.8047  0.7232  2.8377
   53CHL1   H7B 6341   0.285   0.710   9.418  0.0737  3.9700 -2.1286
   53CHL1    C8 6342   0.081   0.643   9.463 -0.7242 -0.0145 -0.0109
   53CHL1    H8 6343  -0.014   0.695   9.489 -1.0562  0.0544 -1.2817
   53CHL1   C14 6344   0.074   0.598   9.321 -0.0625 -0.0446  0.4004
   53CHL1   H14 6345   0.173   0.550   9.305  0.7626  1.0810  1.8186
   53CHL1   C15 6346   0.066   0.707   9.211 -0.0950 -0.0016 -1.2668
   53CHL1  H15A 6347  -0.002   0.788   9.247  1.5837  1.7473 -1.8879
   53CHL1  H15B 6348   0.162   0.757   9.187 -0.3431  0.3888 -1.4495
   53CHL1   C16 6349   0.011   0.636   9.085  0.6469 -0.1294 -0.3326
   53CHL1  H16A 6350  -0.084   0.689   9.062 -0.0902 -1.7478 -1.2042
   53CHL1  H16B 6351   0.084   0.637   9.001  0.0654 -0.3024 -0.8470
   53CHL1   C17 6352  -0.007   0.488   9.129  0.3448  0.6408 -0.5426
   53CHL1   H17 6353   0.097   0.452   9.113  1.1015  1.1500  2.6958
   53CHL1   C13 6354  -0.033   0.490   9.282  0.5085 -0.0126 -0.3770
   53CHL1   C18 6355  -0.177   0.547   9.308 -0.8519  0.1542 -0.4981
   53CHL1  H18A 6356  -0.198   0.640   9.249  1.1977  0.8021 -0.2795
   53CHL1  H18B 6357  -0.254   0.470   9.286 -0.5581 -0.2911  0.0290
   53CHL1  H18C 6358  -0.190   0.576   9.414 -0.6813 -0.0614 -0.4186
   53CHL1   C12 6359   0.005   0.371   9.366 -0.4308  0.7892  0.1921
   53CHL1  H12A 6360  -0.068   0.293   9.337 -1.0031  1.4292 -0.1361
   53CHL1  H12B 6361   0.110   0.348   9.340 -0.5281  1.0704 -0.4791
   53CHL1   C11 6362   0.009   0.404   9.515 -0.2437  0.5456 -0.3249
   53CHL1  H11A 6363  -0.094   0.407   9.556 -0.0819  1.9318  0.0171
   53CHL1  H11B 6364   0.048   0.315   9.568  0.4499  1.4740  0.7530
   53CHL1    C9 6365   0.094   0.528   9.561  0.9382  0.6574 -0.5827
   53CHL1    H9 6366   0.194   0.482   9.546  0.0620 -1.5881  0.0205
   53CHL1   C10 6367   0.100   0.564   9.712  0.0215  0.6146 -0.3491
   53CHL1   C19 6368  -0.048   0.593   9.758 -0.2516  0.0018  0.6912
   53CHL1  H19A 6369  -0.050   0.621   9.866  2.0078 -0.3369  0.8813
   53CHL1  H19B 6370  -0.084   0.682   9.703 -0.5361 -1.5714 -1.7904
   53CHL1  H19C 6371  -0.107   0.500   9.753 -1.4384  0.6069  2.4103
   53CHL1    C1 6372   0.171   0.451   9.795 -0.4332 -0.2501 -0.2481
   53CHL1   H1A 6373   0.105   0.362   9.791 -1.8150  0.7791 -1.2860
   53CHL1   H1B 6374   0.268   0.420   9.752 -0.4009 -1.0173  0.3598
   53CHL1    C2 6375   0.185   0.485   9.946 -0.4059 -0.3787 -0.2552
   53CHL1   H2A 6376   0.241   0.398   9.986 -2.4570 -1.5680  0.1888
   53CHL1   H2B 6377   0.086   0.484   9.997 -0.6925  0.9844 -0.7601
   53CHL1   C20 6378  -0.106   0.419   9.041 -0.4218 -0.4388  0.1510
   53CHL1   H20 6379  -0.193   0.487   9.026 -0.6432 -0.9257 -0.8220
   53CHL1   C21 6380  -0.146   0.282   9.093 -0.9647  0.7543 -0.3154
   53CHL1  H21A 6381  -0.204   0.290   9.187 -1.7200 -2.7165 -0.3392
   53CHL1  H21B 6382  -0.059   0.214   9.106 -0.8547  0.9773  0.1130
   53CHL1  H21C 6383  -0.224   0.240   9.026 -1.7391  0.7682  0.5635
   53CHL1   C22 6384  -0.035   0.392   8.901  0.7409  0.5374 -0.1562
   53CHL1  H22A 6385   0.019   0.479   8.858 -0.7672  1.2748 -0.6242
   53CHL1  H22B 6386   0.026   0.300   8.914  0.2355  0.1229 -0.6869
   53CHL1   C23 6387  -0.136   0.351   8.798  0.2646  0.1015  0.1768
   53CHL1  H23A 6388  -0.211   0.275   8.830 -0.2661 -0.8805 -3.0103
   53CHL1  H23B 6389  -0.196   0.442   8.775  0.2199 -0.1517 -0.7767
   53CHL1   C24 6390  -0.081   0.311   8.651 -0.5811 -0.7292 -0.6357
   53CHL1  H24A 6391  -0.018   0.399   8.626 -0.6371 -0.2187  0.9130
   53CHL1  H24B 6392  -0.021   0.217   8.659 -0.3027 -0.4466  1.0813
   53CHL1   C25 6393  -0.205   0.299   8.558  0.2452  0.5482 -0.6545
   53CHL1   H25 6394  -0.279   0.381   8.567  0.3481  0.5014  0.8364
   53CHL1   C26 6395  -0.155   0.294   8.409  0.1376  0.0972 -0.4074
   53CHL1  H26A 6396  -0.084   0.377   8.386 -1.3622  2.1755  1.9251
   53CHL1  H26B 6397  -0.119   0.192   8.383  0.4095 -0.3045  1.4101
   53CHL1  H26C 6398  -0.240   0.293   8.338 -0.5090  1.2381  0.3347
   53CHL1   C27 6399  -0.281   0.176   8.597  0.2877  0.6937  0.4405
   53CHL1  H27A 6400  -0.335   0.188   8.693 -0.3833  0.2688  0.1246
   53CHL1  H27B 6401  -0.362   0.144   8.527  0.6601  0.7277 -0.0133
   53CHL1  H27C 6402  -0.212   0.090   8.611  0.2091  0.2363 -1.6601
   54CHL1    C3 6403   0.379   1.414  10.027 -0.3189 -0.0630  0.1560
   54CHL1    H3 6404   0.284   1.470  10.015 -1.1515 -1.3991  0.2840
   54CHL1    O3 6405   0.405   1.411  10.167  1.0682 -0.2679 -0.0526
   54CHL1   H3' 6406   0.489   1.457  10.176 -0.3695  2.5024  0.3656
   54CHL1    C4 6407   0.356   1.269   9.983  0.1744 -0.1740 -0.4663
   54CHL1   H4A 6408   0.449   1.220  10.020  2.1551  3.7176  0.2690
   54CHL1   H4B 6409   0.272   1.231  10.045 -0.7105 -0.8979 -2.0487
   54CHL1    C5 6410   0.330   1.265   9.833 -0.0887 -0.0088 -0.3600
   54CHL1    C6 6411   0.225   1.203   9.785 -0.2002  0.5608  0.1439
   54CHL1    H6 6412   0.153   1.157   9.854 -1.6184  0.9141 -1.0470
   54CHL1    C7 6413   0.203   1.185   9.636  0.0960 -0.6102  0.1337
   54CHL1   H7A 6414   0.175   1.079   9.615 -0.0893 -1.7370  4.8412
   54CHL1   H7B 6415   0.112   1.245   9.615  0.3950  0.6157  2.0931
   54CHL1    C8 6416   0.318   1.241   9.544 -0.4721  0.1813  0.6091
   54CHL1    H8 6417   0.402   1.168   9.534  0.6348  1.3498  1.1191
   54CHL1   C14 6418   0.263   1.271   9.407  0.0646 -0.0102  0.8018
   54CHL1   H14 6419   0.189   1.352   9.427  0.1994  0.8297 -1.7084
   54CHL1   C15 6420   0.180   1.158   9.339 -0.4775 -1.5200 -0.4557
   54CHL1  H15A 6421   0.242   1.066   9.333 -0.1778 -1.5919  2.4915
   54CHL1  H15B 6422   0.080   1.137   9.384  1.4686 -1.2313  4.5931
   54CHL1   C16 6423   0.174   1.210   9.194  0.2439 -0.5057 -0.0070
   54CHL1  H16A 6424   0.227   1.128   9.141  1.2184 -0.8341  1.4225
   54CHL1  H16B 6425   0.068   1.230   9.168  0.3101 -0.5435 -0.3127
   54CHL1   C17 6426   0.268   1.339   9.181 -0.3429  0.2610 -0.0446
   54CHL1   H17 6427   0.204   1.427   9.205  1.4595  1.1557  1.8736
   54CHL1   C13 6428   0.366   1.326   9.304 -0.0318 -0.9377 -0.6669
   54CHL1   C18 6429   0.472   1.222   9.261 -0.4443 -0.1231  0.3081
   54CHL1  H18A 6430   0.539   1.208   9.348  1.8738 -1.3149 -1.5384
   54CHL1  H18B 6431   0.429   1.122   9.237 -0.8575 -0.3712  2.0049
   54CHL1  H18C 6432   0.534   1.250   9.173 -0.5808 -3.4293 -0.9963
   54CHL1   C12 6433   0.421   1.462   9.360  0.0314  0.4825  0.1605
   54CHL1  H12A 6434   0.506   1.505   9.303 -0.9179  1.5341 -0.4969
   54CHL1  H12B 6435   0.339   1.537   9.361 -1.6661 -1.3026  0.4255
   54CHL1   C11 6436   0.462   1.446   9.512 -0.3165 -0.2825 -0.6912
   54CHL1  H11A 6437   0.553   1.383   9.504 -0.9154 -0.9927 -2.2530
   54CHL1  H11B 6438   0.485   1.546   9.555 -0.4414 -0.1351 -0.9672
   54CHL1    C9 6439   0.371   1.369   9.602 -0.0015  0.1814 -0.0623
   54CHL1    H9 6440   0.288   1.439   9.628  0.3753 -0.0115  1.8243
   54CHL1   C10 6441   0.433   1.346   9.746 -0.5638 -0.0622 -0.1119
   54CHL1   C19 6442   0.573   1.274   9.744 -0.0626  0.1647 -0.3326
   54CHL1  H19A 6443   0.651   1.347   9.716 -1.5660  1.4602 -1.3461
   54CHL1  H19B 6444   0.597   1.248   9.849 -2.1671 -1.0272 -0.0770
   54CHL1  H19C 6445   0.580   1.184   9.679 -0.2306  1.1306 -1.7270
   54CHL1    C1 6446   0.463   1.488   9.807  0.2635 -0.7711 -0.4939
   54CHL1   H1A 6447   0.544   1.540   9.751  1.2806 -0.8714  0.8513
   54CHL1   H1B 6448   0.366   1.543   9.803 -0.2031 -1.6229 -2.5234
   54CHL1    C2 6449   0.502   1.484   9.952  0.6569  0.5705 -0.8461
   54CHL1   H2A 6450   0.515   1.585   9.997 -1.1472  0.1103  0.8538
   54CHL1   H2B 6451   0.592   1.420   9.963  0.5428  0.2652 -1.6067
   54CHL1   C20 6452   0.319   1.356   9.036  0.3833 -0.4322  0.2854
   54CHL1   H20 6453   0.397   1.283   9.006  1.9015  1.1157  0.3404
   54CHL1   C21 6454   0.393   1.493   9.036  0.8759 -0.1109  0.5832
   54CHL1  H21A 6455   0.484   1.495   9.100  1.9257 -0.8050 -0.8458
   54CHL1  H21B 6456   0.321   1.575   9.057 -0.6589 -1.3312  0.2401
   54CHL1  H21C 6457   0.424   1.507   8.930  3.3699 -1.6355  1.0357
   54CHL1   C22 6458   0.203   1.351   8.939  0.1825  0.4271 -1.0671
   54CHL1  H22A 6459   0.137   1.261   8.946  1.1797 -0.2099  0.7166
   54CHL1  H22B 6460   0.140   1.441   8.952 -1.0408 -0.8345  3.7093
   54CHL1   C23 6461   0.245   1.325   8.790 -0.2916  0.5068  0.2148
   54CHL1  H23A 6462   0.317   1.399   8.750 -0.5184 -0.3902 -2.0451
   54CHL1  H23B 6463   0.293   1.225   8.792  1.5556  1.3738  1.9942
   54CHL1   C24 6464   0.128   1.323   8.688  0.2751 -0.1835  0.2820
   54CHL1  H24A 6465   0.048   1.256   8.727  0.6574 -2.6484 -2.7703
   54CHL1  H24B 6466   0.091   1.427   8.676 -0.7447 -0.5669 -0.0082
   54CHL1   C25 6467   0.174   1.269   8.554  0.5268 -0.3452 -0.3014
   54CHL1   H25 6468   0.226   1.173   8.576  0.6007  0.0924  1.6378
   54CHL1   C26 6469   0.053   1.262   8.467  0.0609  0.7169  0.3714
   54CHL1  H26A 6470   0.033   1.368   8.438  3.2180  1.1378 -0.6107
   54CHL1  H26B 6471   0.068   1.196   8.380  0.7554 -0.6351  1.4836
   54CHL1  H26C 6472  -0.035   1.221   8.521  0.1135  0.1691  0.0492
   54CHL1   C27 6473   0.282   1.369   8.491  0.5877  0.1741 -0.1775
   54CHL1  H27A 6474   0.307   1.334   8.388 -0.0207  0.0172 -0.2766
   54CHL1  H27B 6475   0.240   1.471   8.490  0.0652 -0.0291  0.3652
   54CHL1  H27C 6476   0.375   1.371   8.552  0.8603  3.6582 -0.5403
   55CHL1    C3 6477   0.599   0.247  10.070 -0.3949  0.2811 -0.1508
   55CHL1    H3 6478   0.513   0.178  10.084 -2.2466  2.4845  0.0080
   55CHL1    O3 6479   0.666   0.262  10.193  0.3084 -0.7597 -0.2920
   55CHL1   H3' 6480   0.661   0.355  10.215 -0.7735 -0.6667 -0.8798
   55CHL1    C4 6481   0.695   0.182   9.975 -0.1396 -0.3703 -0.3125
   55CHL1   H4A 6482   0.793   0.233   9.987  0.2721 -1.1102 -0.5171
   55CHL1   H4B 6483   0.710   0.079  10.012  2.2283 -0.1483 -0.4971
   55CHL1    C5 6484   0.654   0.175   9.831 -0.6516 -1.0157 -0.3007
   55CHL1    C6 6485   0.636   0.064   9.759  0.0819  0.7267  0.5002
   55CHL1    H6 6486   0.675  -0.031   9.797 -0.2953  0.2411 -0.2992
   55CHL1    C7 6487   0.586   0.063   9.617 -0.6658  0.2063  0.1278
   55CHL1   H7A 6488   0.630  -0.027   9.567 -0.9484  0.5690 -0.7978
   55CHL1   H7B 6489   0.475   0.050   9.615 -0.7112  0.4070  1.2145
   55CHL1    C8 6490   0.614   0.197   9.543  0.7032  0.2641 -0.5793
   55CHL1    H8 6491   0.723   0.211   9.529  0.5386  1.7773 -0.5807
   55CHL1   C14 6492   0.533   0.199   9.408 -0.0393 -0.0799 -1.0730
   55CHL1   H14 6493   0.429   0.198   9.447  0.3249  0.5311 -0.0434
   55CHL1   C15 6494   0.543   0.084   9.315  0.1748  0.4207 -0.5155
   55CHL1  H15A 6495   0.650   0.059   9.297 -0.5447 -1.4285 -2.8438
   55CHL1  H15B 6496   0.512  -0.014   9.356  2.3833 -0.2611 -0.2999
   55CHL1   C16 6497   0.488   0.131   9.179 -0.0783 -0.3675  0.9005
   55CHL1  H16A 6498   0.573   0.109   9.110  0.1550 -1.2412  1.4399
   55CHL1  H16B 6499   0.407   0.062   9.147 -0.9201  0.6421  0.7980
   55CHL1   C17 6500   0.456   0.281   9.194  0.2032  0.5626  0.2877
   55CHL1   H17 6501   0.352   0.285   9.234 -0.4325  1.7887 -1.3557
   55CHL1   C13 6502   0.539   0.330   9.326  0.2430  0.7857  0.5133
   55CHL1   C18 6503   0.688   0.355   9.278 -0.5577  0.8196 -0.2393
   55CHL1  H18A 6504   0.715   0.268   9.214 -3.7814  1.5725 -2.8929
   55CHL1  H18B 6505   0.703   0.442   9.210 -0.7402  0.7319 -0.3931
   55CHL1  H18C 6506   0.767   0.367   9.355 -0.6403  0.6371 -0.1255
   55CHL1   C12 6507   0.486   0.451   9.410  0.1104  0.0557  0.1301
   55CHL1  H12A 6508   0.497   0.550   9.360  3.7258 -0.5157 -0.5164
   55CHL1  H12B 6509   0.380   0.423   9.424  0.1015  0.3185  0.6018
   55CHL1   C11 6510   0.558   0.450   9.547 -0.2113  0.2908 -0.1943
   55CHL1  H11A 6511   0.659   0.494   9.535  0.1382 -0.9235 -2.1270
   55CHL1  H11B 6512   0.493   0.523   9.600 -0.6883  0.2638 -0.7343
   55CHL1    C9 6513   0.560   0.314   9.631 -0.1561 -0.3611  1.1828
   55CHL1    H9 6514   0.450   0.301   9.635 -0.3661  1.4699  2.3549
   55CHL1   C10 6515   0.625   0.318   9.771 -0.1873  0.9253 -0.6967
   55CHL1   C19 6516   0.752   0.400   9.751  0.3524  0.5689 -0.2821
   55CHL1  H19A 6517   0.803   0.410   9.849  0.2000 -1.0429 -0.0155
   55CHL1  H19B 6518   0.821   0.350   9.679 -0.8010  0.1398 -1.1250
   55CHL1  H19C 6519   0.726   0.504   9.721 -1.2193  0.8324  1.7998
   55CHL1    C1 6520   0.526   0.380   9.868 -0.1890  0.1803 -0.4964
   55CHL1   H1A 6521   0.495   0.478   9.825 -0.4434 -0.4659 -1.8396
   55CHL1   H1B 6522   0.439   0.312   9.855 -0.3628  0.1381  0.7554
   55CHL1    C2 6523   0.568   0.389  10.013 -0.3426 -0.3299  0.4272
   55CHL1   H2A 6524   0.495   0.441  10.078  1.7141  1.6807  1.2796
   55CHL1   H2B 6525   0.662   0.447  10.025 -0.7117  0.5332 -0.6485
   55CHL1   C20 6526   0.457   0.354   9.065  0.3875 -0.5767  0.3706
   55CHL1   H20 6527   0.556   0.345   9.016 -0.2470  1.6495 -1.5217
   55CHL1   C21 6528   0.439   0.506   9.095  0.1406 -0.3200  0.1002
   55CHL1  H21A 6529   0.427   0.565   9.001  2.0589 -0.7354 -0.4506
   55CHL1  H21B 6530   0.529   0.545   9.147  1.6436 -1.0263 -1.8124
   55CHL1  H21C 6531   0.345   0.526   9.151  0.6484 -0.2718  0.9550
   55CHL1   C22 6532   0.358   0.303   8.960 -0.2700 -0.3564 -0.3399
   55CHL1  H22A 6533   0.371   0.194   8.944 -3.0089 -0.6418 -1.1315
   55CHL1  H22B 6534   0.259   0.310   9.008  0.5601  0.0543  1.3875
   55CHL1   C23 6535   0.368   0.365   8.816 -0.9786 -0.1380  0.5118
   55CHL1  H23A 6536   0.336   0.471   8.810  0.8678  0.4151 -4.7568
   55CHL1  H23B 6537   0.476   0.358   8.790 -1.0145  2.3055 -0.4888
   55CHL1   C24 6538   0.296   0.290   8.699 -0.1521  0.2999 -0.2538
   55CHL1  H24A 6539   0.352   0.195   8.682  0.3405  0.0250  2.4038
   55CHL1  H24B 6540   0.189   0.272   8.722 -0.5232  1.4155 -1.0045
   55CHL1   C25 6541   0.310   0.366   8.559  0.4877  0.3912  1.1226
   55CHL1   H25 6542   0.289   0.474   8.576  1.0271  0.6650  0.0958
   55CHL1   C26 6543   0.443   0.356   8.483 -0.2069  0.2586  0.7831
   55CHL1  H26A 6544   0.519   0.383   8.560  0.8173  1.1160 -0.4861
   55CHL1  H26B 6545   0.447   0.252   8.443 -0.6913  0.7123 -0.5156
   55CHL1  H26C 6546   0.444   0.423   8.394  0.9630 -1.1684 -0.3329
   55CHL1   C27 6547   0.198   0.328   8.455  0.0104  0.5144 -0.3071
   55CHL1  H27A 6548   0.113   0.394   8.482 -1.4200 -0.5504 -1.9675
   55CHL1  H27B 6549   0.231   0.355   8.352 -0.4986  0.7463 -0.4105
   55CHL1  H27C 6550   0.167   0.221   8.462  1.4459  0.1876  2.0651
   56CHL1    C3 6551   5.058   6.263   9.979  0.0905 -0.2315  0.6279
   56CHL1    H3 6552   4.960   6.260   9.929  0.9257 -0.5275 -1.0649
   56CHL1    O3 6553   5.040   6.302  10.115  0.0160 -0.0709 -0.0100
   56CHL1   H3' 6554   5.067   6.395  10.115  0.4523 -0.1764  1.3284
   56CHL1    C4 6555   5.115   6.121   9.961 -0.2267 -0.7579  0.0010
   56CHL1   H4A 6556   5.208   6.109  10.020  1.1178 -2.1556 -2.3024
   56CHL1   H4B 6557   5.050   6.046  10.012  0.1807 -1.1645 -0.0756
   56CHL1    C5 6558   5.142   6.087   9.819  0.1072 -0.2969 -0.4430
   56CHL1    C6 6559   5.095   5.973   9.766  0.6456  0.2629  0.9419
   56CHL1    H6 6560   5.040   5.901   9.828  0.4338 -0.1418  0.2878
   56CHL1    C7 6561   5.114   5.934   9.622 -0.1976  0.5466  0.2929
   56CHL1   H7A 6562   5.136   5.826   9.607  2.0465  0.8183  1.2362
   56CHL1   H7B 6563   5.014   5.936   9.575 -0.2377 -1.9722  0.1257
   56CHL1    C8 6564   5.227   6.017   9.553  0.6405 -0.3993  0.9224
   56CHL1    H8 6565   5.327   5.992   9.594  1.1213 -0.4028 -0.2146
   56CHL1   C14 6566   5.226   5.984   9.408  0.1013 -0.6360 -0.3677
   56CHL1   H14 6567   5.124   6.017   9.379  0.5082 -0.0073 -1.1395
   56CHL1   C15 6568   5.237   5.836   9.360 -0.4595 -0.6519 -0.1396
   56CHL1  H15A 6569   5.315   5.776   9.412 -0.8898 -2.2320 -1.2337
   56CHL1  H15B 6570   5.138   5.785   9.368  0.2589 -1.9956  0.5680
   56CHL1   C16 6571   5.294   5.853   9.218  0.6405  0.3149 -0.1608
   56CHL1  H16A 6572   5.394   5.805   9.221  0.4232 -0.2118 -1.0833
   56CHL1  H16B 6573   5.238   5.801   9.138 -0.5122  1.6779 -0.2800
   56CHL1   C17 6574   5.308   6.011   9.191 -0.5381 -0.0694 -0.0665
   56CHL1   H17 6575   5.206   6.049   9.170 -0.6187  2.3827  3.7324
   56CHL1   C13 6576   5.323   6.068   9.333  0.5278  0.1180 -0.3311
   56CHL1   C18 6577   5.465   6.041   9.382  0.4425 -0.3832  0.9908
   56CHL1  H18A 6578   5.474   6.085   9.483  1.0567  0.1363  0.7193
   56CHL1  H18B 6579   5.499   5.937   9.362 -2.4126 -1.7923  2.8056
   56CHL1  H18C 6580   5.527   6.102   9.312  1.6979 -2.4653  0.1825
   56CHL1   C12 6581   5.281   6.225   9.348  0.5525  0.4020 -0.4451
   56CHL1  H12A 6582   5.353   6.290   9.293  1.3664 -0.2544 -0.1821
   56CHL1  H12B 6583   5.183   6.239   9.297  0.4899  2.2689  0.1007
   56CHL1   C11 6584   5.275   6.271   9.496  0.7344  0.5648  0.0107
   56CHL1  H11A 6585   5.379   6.279   9.532  0.9436 -1.1570 -0.1432
   56CHL1  H11B 6586   5.225   6.370   9.499 -0.6742 -0.0772 -0.8747
   56CHL1    C9 6587   5.199   6.167   9.586 -0.4044  0.5601  0.2843
   56CHL1    H9 6588   5.092   6.182   9.556 -0.5402 -1.7572 -0.5966
   56CHL1   C10 6589   5.220   6.198   9.742  0.6404  0.4312  0.3717
   56CHL1   C19 6590   5.363   6.201   9.790 -0.3121 -0.2082 -0.1729
   56CHL1  H19A 6591   5.416   6.103   9.792 -1.9765 -1.1862  3.2465
   56CHL1  H19B 6592   5.419   6.266   9.720 -1.2802  2.2034  1.1973
   56CHL1  H19C 6593   5.366   6.242   9.893 -1.4744 -1.5234  0.4115
   56CHL1    C1 6594   5.160   6.341   9.768 -0.4005  0.6754  0.7578
   56CHL1   H1A 6595   5.228   6.421   9.732  0.4598 -0.5000 -0.3277
   56CHL1   H1B 6596   5.063   6.343   9.715 -0.9048  0.6092  1.6519
   56CHL1    C2 6597   5.144   6.375   9.914 -0.4348  0.1434  0.5582
   56CHL1   H2A 6598   5.095   6.474   9.904 -1.9908 -0.8294 -5.1729
   56CHL1   H2B 6599   5.237   6.380   9.974  0.6724 -1.9319 -0.9026
   56CHL1   C20 6600   5.401   6.052   9.072  0.3101  0.7265 -0.0730
   56CHL1   H20 6601   5.439   6.154   9.093 -1.0532  1.7017 -2.0386
   56CHL1   C21 6602   5.299   6.055   8.954  0.1027 -0.1886  0.5728
   56CHL1  H21A 6603   5.349   6.087   8.860  1.0721 -0.1721  1.0850
   56CHL1  H21B 6604   5.218   6.128   8.972  0.2458  0.0557  0.2462
   56CHL1  H21C 6605   5.261   5.951   8.943 -2.4002  0.6241  1.0000
   56CHL1   C22 6606   5.514   5.955   9.042 -0.6297  0.1875  0.3209
   56CHL1  H22A 6607   5.587   5.939   9.124 -0.3411 -0.8488 -0.1184
   56CHL1  H22B 6608   5.461   5.862   9.010 -0.6300 -0.0982  1.1182
   56CHL1   C23 6609   5.598   6.000   8.917  0.3113 -0.6738 -0.2495
   56CHL1  H23A 6610   5.541   5.968   8.828 -1.5039 -0.2063  0.6943
   56CHL1  H23B 6611   5.604   6.110   8.932  1.1553 -0.6225 -0.9004
   56CHL1   C24 6612   5.738   5.932   8.900  0.2630 -0.3967  0.3074
   56CHL1  H24A 6613   5.805   5.989   8.967 -2.0728  0.6565  1.9155
   56CHL1  H24B 6614   5.738   5.823   8.925 -1.4597 -0.9932 -1.8897
   56CHL1   C25 6615   5.788   5.955   8.755 -0.4853  0.2769  0.1634
   56CHL1   H25 6616   5.748   6.046   8.705  0.4288  1.4226  1.4510
   56CHL1   C26 6617   5.943   5.971   8.758 -0.5666  0.6615 -1.1386
   56CHL1  H26A 6618   5.969   5.986   8.651 -1.9897 -2.4082 -2.0387
   56CHL1  H26B 6619   5.985   6.052   8.821 -1.0851 -0.7976  1.2324
   56CHL1  H26C 6620   5.986   5.873   8.790 -1.4405  0.8372  0.7525
   56CHL1   C27 6621   5.738   5.847   8.667  0.3042  0.1248 -1.0972
   56CHL1  H27A 6622   5.627   5.854   8.665  0.2559 -0.4544 -0.4402
   56CHL1  H27B 6623   5.771   5.853   8.561 -1.2509 -1.6006 -1.7397
   56CHL1  H27C 6624   5.770   5.746   8.698  0.9042  0.5918 -0.1551
   57CHL1    C3 6625   1.082   0.760  10.250  0.5005 -0.3516  0.4603
   57CHL1    H3 6626   0.996   0.823  10.217 -0.3006 -1.4410  0.3811
   57CHL1    O3 6627   1.068   0.742  10.394 -0.5910 -0.1049 -0.5848
   57CHL1   H3' 6628   1.121   0.666  10.416 -1.5098 -0.5329  0.2434
   57CHL1    C4 6629   1.085   0.625  10.181  0.6651 -0.3113  0.6705
   57CHL1   H4A 6630   1.172   0.570  10.222  1.4167 -0.0336 -0.4933
   57CHL1   H4B 6631   0.988   0.581  10.213  0.5744 -0.8496 -0.2841
   57CHL1    C5 6632   1.107   0.642  10.030  0.9842 -0.6043 -0.3062
   57CHL1    C6 6633   1.013   0.587   9.941  0.1995 -0.0612 -0.7932
   57CHL1    H6 6634   0.930   0.527   9.981  0.1641  1.0016  0.8095
   57CHL1    C7 6635   1.019   0.611   9.792  0.4546 -1.2826  0.4089
   57CHL1   H7A 6636   0.999   0.516   9.738 -0.7844 -0.2478 -1.0229
   57CHL1   H7B 6637   0.953   0.693   9.758  1.9780  0.0725  0.5945
   57CHL1    C8 6638   1.156   0.662   9.745 -0.1660 -0.2179 -0.5436
   57CHL1    H8 6639   1.218   0.571   9.753  1.2935  0.6168 -1.8355
   57CHL1   C14 6640   1.147   0.708   9.596  0.2291 -0.5437  0.0002
   57CHL1   H14 6641   1.087   0.801   9.591  3.2571  1.4972 -1.5000
   57CHL1   C15 6642   1.080   0.615   9.499  0.2844  0.3782 -0.1479
   57CHL1  H15A 6643   1.107   0.508   9.512 -2.1530 -0.4717 -1.3990
   57CHL1  H15B 6644   0.970   0.625   9.503  0.2636 -0.2414  0.9859
   57CHL1   C16 6645   1.130   0.662   9.359 -0.2545  0.2274  0.0543
   57CHL1  H16A 6646   1.180   0.586   9.295  2.3159  1.4420  0.5294
   57CHL1  H16B 6647   1.037   0.693   9.305  1.0225  1.0159 -1.7756
   57CHL1   C17 6648   1.232   0.777   9.387 -0.1280  0.3149 -0.6507
   57CHL1   H17 6649   1.174   0.871   9.400 -1.6383 -0.6999  0.3187
   57CHL1   C13 6650   1.278   0.757   9.536  0.3312  0.6768 -0.5408
   57CHL1   C18 6651   1.387   0.646   9.543  0.2625 -0.0342  0.4609
   57CHL1  H18A 6652   1.397   0.606   9.647  0.3738  1.2551  0.9695
   57CHL1  H18B 6653   1.370   0.553   9.484  3.5134 -0.1012 -0.6009
   57CHL1  H18C 6654   1.488   0.683   9.514  0.0514 -1.1121 -1.8121
   57CHL1   C12 6655   1.313   0.876   9.623 -0.4186 -0.6164 -0.1171
   57CHL1  H12A 6656   1.407   0.924   9.589 -0.8136  1.0470  1.0297
   57CHL1  H12B 6657   1.235   0.954   9.620  1.8643  1.7929 -2.6436
   57CHL1   C11 6658   1.329   0.844   9.771 -0.2992 -0.0694 -0.2894
   57CHL1  H11A 6659   1.416   0.777   9.784 -1.8844 -2.2441 -0.4081
   57CHL1  H11B 6660   1.343   0.944   9.817 -1.2161  0.8893 -1.9920
   57CHL1    C9 6661   1.207   0.777   9.835  0.8249 -0.1036  0.2383
   57CHL1    H9 6662   1.118   0.844   9.837  0.3487 -0.7241  0.3156
   57CHL1   C10 6663   1.227   0.732   9.981  0.2732  0.8826  0.1796
   57CHL1   C19 6664   1.349   0.642   9.997  0.2306  0.3871  0.1170
   57CHL1  H19A 6665   1.365   0.611  10.102  0.0969  2.9062  0.9406
   57CHL1  H19B 6666   1.342   0.548   9.938  0.6499 -0.1266  0.8631
   57CHL1  H19C 6667   1.446   0.690   9.969  1.2657 -0.9388  1.2743
   57CHL1    C1 6668   1.224   0.862  10.069  0.1228  0.1008  0.3969
   57CHL1   H1A 6669   1.313   0.925  10.047  1.1808 -1.5189 -0.1346
   57CHL1   H1B 6670   1.134   0.916  10.033  1.3913  0.4931 -2.3579
   57CHL1    C2 6671   1.213   0.842  10.220 -0.6530  0.0281 -0.1979
   57CHL1   H2A 6672   1.187   0.939  10.268  0.0209 -0.1755  0.6076
   57CHL1   H2B 6673   1.305   0.793  10.260  0.2675  2.0869  0.3431
   57CHL1   C20 6674   1.321   0.814   9.271 -0.1167 -0.0434  0.0785
   57CHL1   H20 6675   1.396   0.734   9.254 -1.1203 -1.4504  1.8975
   57CHL1   C21 6676   1.407   0.942   9.297 -0.1105 -0.5048 -0.6968
   57CHL1  H21A 6677   1.468   0.989   9.216  1.0839 -0.4049  0.2301
   57CHL1  H21B 6678   1.484   0.908   9.369 -0.6803 -1.8653 -0.7008
   57CHL1  H21C 6679   1.346   1.010   9.360 -1.0494 -3.2401  1.5136
   57CHL1   C22 6680   1.242   0.841   9.138  0.4645  0.8726 -0.0206
   57CHL1  H22A 6681   1.176   0.753   9.124  2.3568 -0.7404  0.7168
   57CHL1  H22B 6682   1.164   0.917   9.155  0.0008  0.1932  0.9715
   57CHL1   C23 6683   1.322   0.867   9.008 -0.5954  0.1346  0.0946
   57CHL1  H23A 6684   1.245   0.897   8.935  1.4747  1.9872 -1.4619
   57CHL1  H23B 6685   1.383   0.957   9.030 -2.0593  1.4436 -1.0670
   57CHL1   C24 6686   1.404   0.751   8.947 -1.0555 -1.0272 -0.0912
   57CHL1  H24A 6687   1.467   0.795   8.867 -2.7207  0.9577 -0.3770
   57CHL1  H24B 6688   1.475   0.706   9.020 -2.2666 -2.1497  0.4235
   57CHL1   C25 6689   1.332   0.632   8.880 -0.7625  0.3694 -0.6225
   57CHL1   H25 6690   1.287   0.578   8.966  0.9234 -0.7872 -0.4121
   57CHL1   C26 6691   1.226   0.677   8.780  1.3995 -0.5618 -0.0848
   57CHL1  H26A 6692   1.188   0.588   8.726 -1.7124  0.7526 -0.2748
   57CHL1  H26B 6693   1.136   0.722   8.825 -0.3869 -1.7090 -2.2793
   57CHL1  H26C 6694   1.268   0.755   8.713  0.1400  0.2805  0.0871
   57CHL1   C27 6695   1.422   0.521   8.824 -0.3894  0.5948  0.0608
   57CHL1  H27A 6696   1.479   0.469   8.904 -0.1615 -0.1043 -0.5425
   57CHL1  H27B 6697   1.356   0.444   8.780 -0.6733  0.8124  0.1095
   57CHL1  H27C 6698   1.494   0.568   8.752 -0.0448 -1.1791 -0.8153
   58CHL1    C3 6699   3.570   6.665  10.059 -0.1351 -0.6234  0.3720
   58CHL1    H3 6700   3.672   6.623  10.052 -0.5189 -1.3272 -1.4285
   58CHL1    O3 6701   3.561   6.718  10.189 -0.5229 -0.4460 -0.3805
   58CHL1   H3' 6702   3.471   6.707  10.221 -0.4923 -0.4500 -0.2957
   58CHL1    C4 6703   3.542   6.779   9.963  0.9548 -0.2272 -0.3368
   58CHL1   H4A 6704   3.443   6.824   9.983  1.7518  1.2306  0.5271
   58CHL1   H4B 6705   3.610   6.866   9.980  2.1861 -0.9061 -1.5343
   58CHL1    C5 6706   3.554   6.723   9.822  0.2771 -0.5703 -0.0395
   58CHL1    C6 6707   3.652   6.773   9.738  0.3561  0.5175 -0.1867
   58CHL1    H6 6708   3.717   6.851   9.779 -0.7339  1.1081  0.4501
   58CHL1    C7 6709   3.670   6.738   9.589  0.0632 -0.4006 -0.0610
   58CHL1   H7A 6710   3.691   6.825   9.523  1.5658  0.2513  1.2177
   58CHL1   H7B 6711   3.762   6.677   9.575  1.5526  1.7400 -0.0301
   58CHL1    C8 6712   3.547   6.655   9.540 -0.2328  0.0428 -0.1605
   58CHL1    H8 6713   3.463   6.724   9.521 -0.9425 -1.1443 -1.4949
   58CHL1   C14 6714   3.575   6.582   9.408  0.4436 -0.0258  0.1098
   58CHL1   H14 6715   3.645   6.501   9.439  0.3626 -0.4728 -0.8388
   58CHL1   C15 6716   3.636   6.665   9.297 -0.0552  0.7250  0.9436
   58CHL1  H15A 6717   3.580   6.759   9.279 -0.4362  0.2602 -0.4799
   58CHL1  H15B 6718   3.743   6.688   9.312  0.4021 -0.5841 -0.0757
   58CHL1   C16 6719   3.632   6.567   9.173  0.3261 -0.0254  0.2187
   58CHL1  H16A 6720   3.595   6.622   9.083 -2.0570 -2.3963 -0.4078
   58CHL1  H16B 6721   3.728   6.514   9.161  0.0269 -0.6944  0.7377
   58CHL1   C17 6722   3.522   6.461   9.208 -0.0590  0.2841  0.4374
   58CHL1   H17 6723   3.577   6.370   9.240 -0.1322  1.3157  3.8200
   58CHL1   C13 6724   3.452   6.513   9.339  0.0603  0.0077  0.4581
   58CHL1   C18 6725   3.343   6.617   9.307 -0.2992 -0.6511 -0.4092
   58CHL1  H18A 6726   3.374   6.692   9.231 -0.0901  1.1466  1.3682
   58CHL1  H18B 6727   3.254   6.562   9.269 -1.1306 -0.8870  1.6962
   58CHL1  H18C 6728   3.309   6.661   9.403  1.8012 -1.1121  0.5996
   58CHL1   C12 6729   3.411   6.399   9.436  0.1460  0.2975  0.0004
   58CHL1  H12A 6730   3.317   6.343   9.414  0.3293 -0.7590  1.6957
   58CHL1  H12B 6731   3.492   6.324   9.442 -0.9471 -1.1726 -2.4245
   58CHL1   C11 6732   3.387   6.465   9.580  0.1017 -0.1634 -0.1111
   58CHL1  H11A 6733   3.299   6.530   9.560 -0.5377 -1.0772 -0.3396
   58CHL1  H11B 6734   3.351   6.390   9.654 -0.6048  0.9188  0.6684
   58CHL1    C9 6735   3.502   6.548   9.641  0.2558  0.4308 -0.7333
   58CHL1    H9 6736   3.590   6.483   9.660 -0.5800 -0.3196  0.8656
   58CHL1   C10 6737   3.463   6.606   9.785  0.0856 -0.4376  0.5945
   58CHL1   C19 6738   3.321   6.663   9.779  0.5891 -0.2187  0.1156
   58CHL1  H19A 6739   3.248   6.581   9.798  0.5372 -0.1457  0.2317
   58CHL1  H19B 6740   3.299   6.744   9.851  0.8834 -0.0278 -0.0094
   58CHL1  H19C 6741   3.307   6.714   9.681  0.2663  0.7861  0.6721
   58CHL1    C1 6742   3.470   6.494   9.893  0.0057 -0.1958 -0.1305
   58CHL1   H1A 6743   3.391   6.417   9.875 -0.8967  1.0289 -1.6820
   58CHL1   H1B 6744   3.571   6.449   9.880  0.2640  0.8289 -1.9972
   58CHL1    C2 6745   3.471   6.547  10.034 -0.3638 -0.2389  0.1478
   58CHL1   H2A 6746   3.478   6.458  10.101 -5.0373 -1.4579 -0.6231
   58CHL1   H2B 6747   3.369   6.588  10.045 -0.2794  0.4080 -1.2525
   58CHL1   C20 6748   3.432   6.418   9.089 -0.2546 -0.3600 -0.1661
   58CHL1   H20 6749   3.374   6.511   9.071  0.4478  0.2008  0.4091
   58CHL1   C21 6750   3.331   6.306   9.124 -0.0194  0.0682 -0.5147
   58CHL1  H21A 6751   3.273   6.348   9.209  2.7149  2.1641  0.4714
   58CHL1  H21B 6752   3.379   6.216   9.167 -2.2819 -1.3193 -0.7155
   58CHL1  H21C 6753   3.261   6.292   9.039  2.9706  1.0972 -3.3460
   58CHL1   C22 6754   3.515   6.391   8.953 -0.0471  0.4784  0.1720
   58CHL1  H22A 6755   3.574   6.480   8.925  0.5681 -0.8322 -3.0812
   58CHL1  H22B 6756   3.577   6.299   8.964 -0.1477  0.5956  1.9943
   58CHL1   C23 6757   3.419   6.370   8.839  0.0505 -0.2604 -0.9779
   58CHL1  H23A 6758   3.356   6.280   8.853 -3.8118  1.6334 -4.0844
   58CHL1  H23B 6759   3.351   6.456   8.859  1.2920  0.5599 -0.1363
   58CHL1   C24 6760   3.481   6.386   8.700  0.3619 -1.0688  0.2336
   58CHL1  H24A 6761   3.555   6.468   8.685 -0.4000 -0.5667 -0.9277
   58CHL1  H24B 6762   3.529   6.287   8.682 -2.1559 -2.3801  0.3728
   58CHL1   C25 6763   3.375   6.406   8.590 -0.0860  0.1600 -0.0999
   58CHL1   H25 6764   3.287   6.346   8.620  0.3379 -0.7040 -0.5384
   58CHL1   C26 6765   3.328   6.556   8.581 -0.1149 -0.1903  0.2150
   58CHL1  H26A 6766   3.418   6.618   8.566 -0.3803  0.3086  0.6601
   58CHL1  H26B 6767   3.265   6.559   8.489 -1.2702  0.3352  0.9910
   58CHL1  H26C 6768   3.278   6.588   8.675 -2.1593 -4.1888  0.7455
   58CHL1   C27 6769   3.432   6.348   8.455  0.1897  0.9313  0.3535
   58CHL1  H27A 6770   3.439   6.237   8.452 -2.1078  0.7058  0.8967
   58CHL1  H27B 6771   3.365   6.380   8.373  0.0709 -0.8774 -0.3020
   58CHL1  H27C 6772   3.531   6.392   8.431  1.9660 -1.8308  1.9949
   59CHL1    C3 6773   2.894   0.238  10.294 -0.4698  0.2368  0.3522
   59CHL1    H3 6774   2.888   0.343  10.259  1.3457  0.6164  1.0335
   59CHL1    O3 6775   2.870   0.227  10.433 -0.8119  0.2949  0.0789
   59CHL1   H3' 6776   2.944   0.176  10.467  0.0480  1.8132  0.5982
   59CHL1    C4 6777   2.806   0.147  10.211  0.1888  0.4930  0.0934
   59CHL1   H4A 6778   2.831   0.049  10.255 -2.4498 -0.7858 -1.0124
   59CHL1   H4B 6779   2.703   0.171  10.244  0.1084 -0.2371  0.3675
   59CHL1    C5 6780   2.831   0.150  10.061  0.2369 -0.2255 -0.2512
   59CHL1    C6 6781   2.729   0.178   9.981  0.3032  0.0242 -0.4741
   59CHL1    H6 6782   2.630   0.184  10.029  0.4269 -2.4363  0.2271
   59CHL1    C7 6783   2.740   0.185   9.831  0.3971  0.7122  0.4541
   59CHL1   H7A 6784   2.660   0.127   9.781  0.9176 -0.3641  0.8446
   59CHL1   H7B 6785   2.727   0.291   9.799 -0.7464  0.1696 -0.9932
   59CHL1    C8 6786   2.880   0.136   9.780 -0.0036  0.3204  0.5929
   59CHL1    H8 6787   2.893   0.026   9.775  1.5372  0.4844  0.6835
   59CHL1   C14 6788   2.906   0.185   9.632 -0.3483  0.3360 -0.0860
   59CHL1   H14 6789   2.898   0.295   9.646  0.1409  0.6024 -1.6421
   59CHL1   C15 6790   2.795   0.152   9.532  0.6520 -0.0831  1.2335
   59CHL1  H15A 6791   2.775   0.043   9.539 -0.7780  0.1374  0.8477
   59CHL1  H15B 6792   2.699   0.207   9.545 -0.0202 -0.4271 -1.5758
   59CHL1   C16 6793   2.861   0.180   9.397  0.4639  0.3865  0.5986
   59CHL1  H16A 6794   2.849   0.094   9.328  2.5009  0.5138  0.0026
   59CHL1  H16B 6795   2.823   0.276   9.356  1.1537  0.4130 -0.0064
   59CHL1   C17 6796   3.017   0.203   9.433  0.0900 -0.0575  0.1125
   59CHL1   H17 6797   3.021   0.314   9.435 -0.8218  0.0737 -2.4754
   59CHL1   C13 6798   3.044   0.147   9.575 -0.5613 -0.4281 -0.6945
   59CHL1   C18 6799   3.057  -0.007   9.572  0.2032  0.7192 -0.2116
   59CHL1  H18A 6800   3.161  -0.036   9.545  0.3545  0.4296  0.6415
   59CHL1  H18B 6801   3.026  -0.058   9.666 -0.6379 -2.8905 -2.2587
   59CHL1  H18C 6802   2.984  -0.052   9.501  1.2833  0.3809 -1.1353
   59CHL1   C12 6803   3.157   0.203   9.661  0.6394 -0.8297  0.1595
   59CHL1  H12A 6804   3.254   0.168   9.620  0.7910 -0.9119  0.5837
   59CHL1  H12B 6805   3.139   0.312   9.646  0.7708 -0.9478 -0.8692
   59CHL1   C11 6806   3.136   0.173   9.803 -0.2237 -0.0133 -0.9501
   59CHL1  H11A 6807   3.169   0.068   9.818  0.9005  0.4034 -0.3940
   59CHL1  H11B 6808   3.210   0.241   9.849 -1.1867 -0.0612  0.7378
   59CHL1    C9 6809   2.995   0.191   9.865  0.3287 -0.2458  0.6564
   59CHL1    H9 6810   2.989   0.302   9.870 -0.7955 -0.3175  1.1720
   59CHL1   C10 6811   2.976   0.142  10.016 -0.1681 -0.2752 -0.2363
   59CHL1   C19 6812   3.012  -0.011  10.015 -0.7508  0.4359 -0.7462
   59CHL1  H19A 6813   2.996  -0.040  10.121  0.1816 -0.7995 -0.9178
   59CHL1  H19B 6814   2.946  -0.082   9.960 -0.9864 -2.4882  2.8847
   59CHL1  H19C 6815   3.121  -0.028   9.998 -0.8275 -1.2343  0.2290
   59CHL1    C1 6816   3.069   0.218  10.112  0.4480 -0.3274 -0.6348
   59CHL1   H1A 6817   3.173   0.188  10.089  0.4452 -1.0853  0.2509
   59CHL1   H1B 6818   3.057   0.325  10.085  3.1600  0.7506  1.8453
   59CHL1    C2 6819   3.043   0.209  10.264 -0.6053 -0.3924 -0.0312
   59CHL1   H2A 6820   3.112   0.283  10.310 -0.5231  1.2228 -2.5426
   59CHL1   H2B 6821   3.063   0.101  10.285 -0.5469 -0.7856 -1.8636
   59CHL1   C20 6822   3.110   0.154   9.322  0.5126 -0.1287  0.4068
   59CHL1   H20 6823   3.121   0.044   9.331 -0.5885 -0.1099  3.1242
   59CHL1   C21 6824   3.247   0.222   9.344 -0.1921 -0.1850  0.1022
   59CHL1  H21A 6825   3.237   0.332   9.360 -0.5623 -0.4141  1.5613
   59CHL1  H21B 6826   3.314   0.217   9.255  1.1140  0.0607  1.0464
   59CHL1  H21C 6827   3.299   0.177   9.430 -0.6771 -0.2287  0.3739
   59CHL1   C22 6828   3.062   0.167   9.172 -0.0041 -0.0059 -0.2974
   59CHL1  H22A 6829   3.152   0.143   9.111  0.0742 -0.0241 -0.1729
   59CHL1  H22B 6830   2.988   0.086   9.150  1.0466 -0.8081 -0.9905
   59CHL1   C23 6831   3.018   0.307   9.132 -0.0967 -0.1633  0.2486
   59CHL1  H23A 6832   2.945   0.345   9.207 -0.1673  0.0354  0.0812
   59CHL1  H23B 6833   3.111   0.369   9.134 -0.6755  0.8929 -1.8219
   59CHL1   C24 6834   2.954   0.306   8.996  0.3400  0.1984 -0.2525
   59CHL1  H24A 6835   2.868   0.236   8.998 -0.1536  0.7798 -0.9616
   59CHL1  H24B 6836   2.918   0.410   8.981 -0.9968 -0.3819 -1.1905
   59CHL1   C25 6837   3.053   0.276   8.880 -1.3296  0.4084  0.2848
   59CHL1   H25 6838   3.123   0.192   8.898  1.5862  2.4271 -0.8257
   59CHL1   C26 6839   2.973   0.234   8.751  0.1557  0.3355 -0.5825
   59CHL1  H26A 6840   2.918   0.140   8.775  1.7855 -0.3441  0.6574
   59CHL1  H26B 6841   2.894   0.311   8.735  0.6496  1.2219  1.0089
   59CHL1  H26C 6842   3.045   0.226   8.667  1.8100  1.5506  0.6540
   59CHL1   C27 6843   3.136   0.406   8.859 -0.6681 -0.3953  0.5531
   59CHL1  H27A 6844   3.083   0.496   8.822  1.8450  1.3851  1.0138
   59CHL1  H27B 6845   3.181   0.434   8.957 -0.1392  1.8208 -0.2808
   59CHL1  H27C 6846   3.219   0.386   8.787 -0.7811  1.1048 -0.0264
   60CHL1    C3 6847   2.322   0.503  10.356 -0.1299 -0.3515 -0.9037
   60CHL1    H3 6848   2.393   0.587  10.375  0.1078 -1.0085  1.5588
   60CHL1    O3 6849   2.263   0.468  10.474  0.6565  0.0333  0.6436
   60CHL1   H3' 6850   2.230   0.547  10.517  0.9679  1.0596 -0.9040
   60CHL1    C4 6851   2.212   0.565  10.263 -0.0511  1.0604  0.4322
   60CHL1   H4A 6852   2.129   0.492  10.265  1.7324 -1.0526  1.3858
   60CHL1   H4B 6853   2.172   0.649  10.323 -0.6876  0.1883  1.2669
   60CHL1    C5 6854   2.265   0.588  10.121 -0.4297  0.2791  0.3143
   60CHL1    C6 6855   2.255   0.712  10.069  0.2145  0.5465 -0.1442
   60CHL1    H6 6856   2.219   0.792  10.135 -2.1147 -0.4602 -0.0876
   60CHL1    C7 6857   2.272   0.739   9.925 -0.3848  0.2364 -0.3636
   60CHL1   H7A 6858   2.195   0.802   9.876  0.5895  0.4230 -1.7073
   60CHL1   H7B 6859   2.365   0.798   9.914 -0.3782  1.3933  3.9498
   60CHL1    C8 6860   2.275   0.612   9.840  0.2289 -0.5624 -0.1076
   60CHL1    H8 6861   2.170   0.579   9.827 -1.0166  3.2701 -0.8305
   60CHL1   C14 6862   2.339   0.645   9.708  0.3030 -0.0573 -0.3107
   60CHL1   H14 6863   2.444   0.676   9.725  0.6710 -0.3466 -1.9122
   60CHL1   C15 6864   2.283   0.763   9.627 -0.0653 -0.4723 -0.5130
   60CHL1  H15A 6865   2.172   0.761   9.628 -0.0948 -0.3229  1.7505
   60CHL1  H15B 6866   2.316   0.859   9.670 -2.6368  0.2164  0.0987
   60CHL1   C16 6867   2.335   0.734   9.485  0.2107  0.0724 -0.9522
   60CHL1  H16A 6868   2.248   0.732   9.415  0.0411 -1.4516 -0.7290
   60CHL1  H16B 6869   2.390   0.821   9.442  0.9005 -0.4933 -1.2188
   60CHL1   C17 6870   2.411   0.599   9.485 -0.1195 -0.4443  0.5069
   60CHL1   H17 6871   2.516   0.615   9.516  0.4859 -0.0285 -1.6102
   60CHL1   C13 6872   2.353   0.524   9.609 -1.0192 -0.9947 -0.0000
   60CHL1   C18 6873   2.210   0.472   9.583  0.2451  0.2122 -0.0492
   60CHL1  H18A 6874   2.212   0.401   9.497 -1.3968  0.6328 -0.4767
   60CHL1  H18B 6875   2.165   0.416   9.668 -2.2200  1.4962 -0.4084
   60CHL1  H18C 6876   2.147   0.554   9.542 -4.8798 -1.9456  2.6172
   60CHL1   C12 6877   2.434   0.415   9.680 -0.4348 -0.0577 -0.2507
   60CHL1  H12A 6878   2.445   0.329   9.610 -0.8243  0.4238 -0.9160
   60CHL1  H12B 6879   2.539   0.447   9.698  0.1722 -2.0470  0.0286
   60CHL1   C11 6880   2.380   0.374   9.820 -1.1405  0.2109 -0.1375
   60CHL1  H11A 6881   2.283   0.323   9.802 -1.4651  1.4112 -2.0607
   60CHL1  H11B 6882   2.454   0.310   9.871  0.5603  1.2138 -1.2288
   60CHL1    C9 6883   2.358   0.498   9.909  0.6742  0.0263  0.0043
   60CHL1    H9 6884   2.461   0.538   9.921  0.7614 -0.1574 -0.1267
   60CHL1   C10 6885   2.308   0.457  10.054  0.2493  0.4087 -0.0472
   60CHL1   C19 6886   2.191   0.361  10.039 -0.4479 -0.5547 -0.5269
   60CHL1  H19A 6887   2.221   0.266   9.991 -0.2134 -1.4660  1.3335
   60CHL1  H19B 6888   2.153   0.340  10.141 -0.8244 -1.5235 -0.8590
   60CHL1  H19C 6889   2.109   0.403   9.976  1.4940 -0.0625 -2.8656
   60CHL1    C1 6890   2.424   0.395  10.148 -0.7577 -0.0916  0.4455
   60CHL1   H1A 6891   2.464   0.306  10.095  0.6721  1.4372 -1.1775
   60CHL1   H1B 6892   2.514   0.460  10.141 -0.0125 -1.1362 -0.1046
   60CHL1    C2 6893   2.388   0.383  10.291 -0.1432 -0.2041  0.7209
   60CHL1   H2A 6894   2.478   0.353  10.349 -1.7085 -3.1144  1.8678
   60CHL1   H2B 6895   2.313   0.301  10.293 -0.2942 -0.0739  0.3662
   60CHL1   C20 6896   2.421   0.533   9.345 -0.1507  0.3044  0.2520
   60CHL1   H20 6897   2.320   0.503   9.309  0.8167 -1.2606 -1.3025
   60CHL1   C21 6898   2.512   0.413   9.356 -0.4665 -0.3403  0.4386
   60CHL1  H21A 6899   2.445   0.338   9.404  1.6656 -2.2432  0.5753
   60CHL1  H21B 6900   2.603   0.428   9.418  0.9746 -1.1612 -1.3813
   60CHL1  H21C 6901   2.528   0.360   9.260  2.4140  1.6152 -0.2668
   60CHL1   C22 6902   2.477   0.634   9.240 -0.5219  0.4048 -0.1011
   60CHL1  H22A 6903   2.455   0.742   9.239  0.9073  0.7200 -0.7701
   60CHL1  H22B 6904   2.583   0.632   9.275 -0.3462  1.3060 -0.5715
   60CHL1   C23 6905   2.467   0.590   9.094 -0.0223  0.0968 -0.1138
   60CHL1  H23A 6906   2.519   0.494   9.072 -0.7244 -0.5118  0.8310
   60CHL1  H23B 6907   2.363   0.574   9.059  0.1143 -2.7194  0.5486
   60CHL1   C24 6908   2.528   0.698   8.996 -0.2584  0.2089 -0.0354
   60CHL1  H24A 6909   2.505   0.663   8.894 -0.3545  0.2529 -0.0286
   60CHL1  H24B 6910   2.455   0.780   9.015 -0.2097  0.2253  0.0826
   60CHL1   C25 6911   2.668   0.756   9.017 -0.0009 -0.3149 -0.2257
   60CHL1   H25 6912   2.679   0.773   9.126  0.7489 -2.0328 -0.0031
   60CHL1   C26 6913   2.774   0.652   8.976  0.0358  0.3076 -0.5944
   60CHL1  H26A 6914   2.746   0.608   8.878  1.0662 -0.2624 -0.6572
   60CHL1  H26B 6915   2.871   0.702   8.959  0.1716 -0.1568 -1.2254
   60CHL1  H26C 6916   2.778   0.564   9.044  0.5999  1.5064  0.9711
   60CHL1   C27 6917   2.683   0.879   8.925 -0.1604 -0.0764  0.4135
   60CHL1  H27A 6918   2.641   0.867   8.823 -1.2672  1.0381  0.7122
   60CHL1  H27B 6919   2.632   0.962   8.978 -0.3167 -0.8216  1.4668
   60CHL1  H27C 6920   2.789   0.909   8.909 -1.6538  4.6513 -2.7164
   61CHL1    C3 6921   5.971   5.296  10.169 -0.3424 -0.4728  0.2706
   61CHL1    H3 6922   6.030   5.202  10.155 -0.6168 -0.2819 -2.9381
   61CHL1    O3 6923   5.946   5.320  10.312  0.3981  0.3657  0.2054
   61CHL1   H3' 6924   5.859   5.280  10.321 -0.4377  1.8755 -0.6721
   61CHL1    C4 6925   6.046   5.423  10.125 -0.3115  0.6320 -0.2510
   61CHL1   H4A 6926   5.984   5.514  10.140 -0.6706  0.1058  1.9968
   61CHL1   H4B 6927   6.138   5.437  10.186  0.0858 -0.3066 -0.6112
   61CHL1    C5 6928   6.080   5.397   9.983 -0.1364 -0.7887  0.9052
   61CHL1    C6 6929   6.203   5.390   9.941  0.1716 -0.4598 -0.7020
   61CHL1    H6 6930   6.281   5.394  10.018 -1.5241  0.8022  1.0620
   61CHL1    C7 6931   6.258   5.379   9.805 -0.0966 -0.2760  0.7106
   61CHL1   H7A 6932   6.350   5.440   9.791 -1.2153  1.4563  0.6331
   61CHL1   H7B 6933   6.288   5.272   9.800  1.4438 -0.0389  3.2861
   61CHL1    C8 6934   6.150   5.409   9.692  0.5164 -0.3829  0.6955
   61CHL1    H8 6935   6.137   5.518   9.682 -0.1976 -0.4480  0.7954
   61CHL1   C14 6936   6.195   5.347   9.557 -0.1873 -0.1134 -0.2643
   61CHL1   H14 6937   6.197   5.238   9.582 -1.6670 -0.1293 -0.1126
   61CHL1   C15 6938   6.337   5.369   9.502 -0.1480 -0.1202  0.2490
   61CHL1  H15A 6939   6.374   5.474   9.497  0.1299 -0.2633 -2.6593
   61CHL1  H15B 6940   6.408   5.313   9.565  0.4901  0.5171  0.1193
   61CHL1   C16 6941   6.323   5.331   9.359 -0.3931  0.1378  0.3306
   61CHL1  H16A 6942   6.337   5.430   9.310 -0.4285 -1.0875 -2.3290
   61CHL1  H16B 6943   6.391   5.248   9.330 -3.1244 -3.2582  2.7388
   61CHL1   C17 6944   6.176   5.280   9.337 -0.1657  0.3102 -1.0928
   61CHL1   H17 6945   6.174   5.175   9.374  0.9028  0.7909  0.4534
   61CHL1   C13 6946   6.095   5.357   9.448 -0.6482  0.3258  0.2047
   61CHL1   C18 6947   6.062   5.498   9.389  0.9843 -0.3968  0.6722
   61CHL1  H18A 6948   6.020   5.553   9.476 -1.8727 -2.2254  0.5686
   61CHL1  H18B 6949   6.158   5.547   9.360  0.0012  1.3298  0.1897
   61CHL1  H18C 6950   5.980   5.493   9.314  0.8318 -0.4928  0.8458
   61CHL1   C12 6951   5.964   5.296   9.493 -0.2309  1.8639  0.9117
   61CHL1  H12A 6952   5.890   5.304   9.411  0.6368  3.1875  0.2263
   61CHL1  H12B 6953   5.991   5.189   9.507 -1.2814  1.3174 -0.9137
   61CHL1   C11 6954   5.903   5.337   9.626  0.4092  0.7441 -1.0255
   61CHL1  H11A 6955   5.868   5.442   9.617  0.6597  0.8190 -1.1436
   61CHL1  H11B 6956   5.823   5.269   9.662  0.0665  2.2227  1.1912
   61CHL1    C9 6957   6.018   5.340   9.728 -0.7195  0.7809 -0.6700
   61CHL1    H9 6958   6.046   5.234   9.747 -4.2827  0.0545  1.6017
   61CHL1   C10 6959   5.971   5.375   9.878 -0.1496  0.1166 -0.3125
   61CHL1   C19 6960   5.883   5.498   9.873  0.3432 -0.7521  0.1657
   61CHL1  H19A 6961   5.926   5.572   9.802  3.3934 -1.1905  1.3958
   61CHL1  H19B 6962   5.789   5.464   9.826 -0.0221  1.4190 -0.7893
   61CHL1  H19C 6963   5.852   5.552   9.966 -2.1651 -1.0001 -0.4649
   61CHL1    C1 6964   5.885   5.262   9.930  1.2279 -0.5268 -0.9554
   61CHL1   H1A 6965   5.789   5.248   9.876 -0.3639  1.5635  1.1097
   61CHL1   H1B 6966   5.938   5.164   9.932  0.2953 -1.1090  2.3413
   61CHL1    C2 6967   5.845   5.285  10.079  0.3285  0.1368 -0.0960
   61CHL1   H2A 6968   5.772   5.207  10.111 -0.9673  0.9988 -0.8424
   61CHL1   H2B 6969   5.790   5.380  10.094  0.9811  0.1179  2.9674
   61CHL1   C20 6970   6.116   5.266   9.192 -0.1427  0.0651  0.1688
   61CHL1   H20 6971   6.006   5.252   9.194  0.0229 -1.7640 -1.0788
   61CHL1   C21 6972   6.180   5.132   9.138 -0.4111  0.1224  0.1182
   61CHL1  H21A 6973   6.137   5.052   9.202  0.2374  0.5360  1.1054
   61CHL1  H21B 6974   6.291   5.140   9.135 -0.3972  0.5959  1.2839
   61CHL1  H21C 6975   6.135   5.106   9.040 -1.8031  1.1513  0.4523
   61CHL1   C22 6976   6.148   5.386   9.090 -0.6022  0.3247 -0.1424
   61CHL1  H22A 6977   6.123   5.488   9.125 -1.2055 -0.0357  0.4976
   61CHL1  H22B 6978   6.254   5.377   9.058 -0.8153 -3.1544 -0.3336
   61CHL1   C23 6979   6.073   5.367   8.955 -0.5712 -0.6960 -0.4331
   61CHL1  H23A 6980   6.101   5.266   8.920  0.7664 -0.3748 -0.3222
   61CHL1  H23B 6981   5.967   5.365   8.989 -0.5400 -2.4557 -0.3594
   61CHL1   C24 6982   6.103   5.473   8.849  0.3085  0.1953 -0.6389
   61CHL1  H24A 6983   6.096   5.570   8.902  2.7976 -0.2386  0.6358
   61CHL1  H24B 6984   6.206   5.467   8.809  0.8691 -0.1928  0.7937
   61CHL1   C25 6985   5.994   5.477   8.740  0.0017  0.8389 -0.0148
   61CHL1   H25 6986   5.898   5.512   8.784 -0.8002 -1.2333 -0.0002
   61CHL1   C26 6987   6.030   5.583   8.630  0.1310  0.3928  0.4997
   61CHL1  H26A 6988   6.051   5.677   8.685 -0.6732  0.8377  0.0705
   61CHL1  H26B 6989   6.122   5.559   8.573 -2.0683 -0.9506 -2.7726
   61CHL1  H26C 6990   5.937   5.598   8.570  0.8743 -0.0078 -0.7869
   61CHL1   C27 6991   5.974   5.340   8.670 -0.4464 -0.0597  0.0134
   61CHL1  H27A 6992   5.930   5.280   8.752 -0.0585  0.2380  0.4438
   61CHL1  H27B 6993   5.910   5.357   8.581 -1.2694  0.5120  0.6972
   61CHL1  H27C 6994   6.064   5.279   8.646 -0.1033 -0.5341  2.3047
   62CHL1    C3 6995   0.950   1.680   9.895  0.4405 -0.1950  0.7947
   62CHL1    H3 6996   1.035   1.616   9.863 -0.3292 -0.4754 -0.7767
   62CHL1    O3 6997   0.932   1.692  10.040 -0.2148  0.0974 -0.2010
   62CHL1   H3' 6998   0.884   1.612  10.063  0.1598 -0.4879 -1.4154
   62CHL1    C4 6999   0.962   1.819   9.826  0.7018 -0.4603 -0.6705
   62CHL1   H4A 7000   0.882   1.889   9.860  2.6569  0.2450  3.0724
   62CHL1   H4B 7001   1.050   1.861   9.879 -0.3643  1.3293 -0.2307
   62CHL1    C5 7002   0.965   1.821   9.679  0.2825  1.4988  0.2972
   62CHL1    C6 7003   1.066   1.881   9.619 -0.6780 -0.0901  0.6776
   62CHL1    H6 7004   1.147   1.932   9.674 -0.5064 -2.1054  2.4174
   62CHL1    C7 7005   1.072   1.891   9.468  0.0449 -0.6117 -0.6426
   62CHL1   H7A 7006   1.101   1.990   9.427 -0.3857 -0.0354  0.4055
   62CHL1   H7B 7007   1.157   1.826   9.438  1.7824  1.1772  0.2024
   62CHL1    C8 7008   0.938   1.851   9.401 -0.4357 -0.7001  0.2094
   62CHL1    H8 7009   0.858   1.925   9.418  1.3511  1.2853  0.3343
   62CHL1   C14 7010   0.947   1.821   9.252  0.0510 -0.9539 -0.3319
   62CHL1   H14 7011   1.027   1.744   9.252  1.7286  0.7023  0.7034
   62CHL1   C15 7012   1.003   1.934   9.159 -0.3113 -0.0272  0.3146
   62CHL1  H15A 7013   0.950   2.028   9.184 -1.3862 -1.1843  2.7276
   62CHL1  H15B 7014   1.110   1.961   9.168  0.0157 -1.3721  0.7747
   62CHL1   C16 7015   0.957   1.896   9.016 -0.0798  0.0850 -0.4113
   62CHL1  H16A 7016   0.881   1.968   8.981  0.6166  0.5130 -1.0639
   62CHL1  H16B 7017   1.039   1.896   8.941 -0.7895 -1.9171 -1.2433
   62CHL1   C17 7018   0.888   1.756   9.029 -0.4227 -1.2743  0.6735
   62CHL1   H17 7019   0.971   1.684   9.018 -0.3630 -1.0644 -0.3362
   62CHL1   C13 7020   0.832   1.754   9.174 -0.3721  0.6501 -0.4163
   62CHL1   C18 7021   0.707   1.843   9.186  0.2241  0.4254 -0.3054
   62CHL1  H18A 7022   0.622   1.790   9.139  0.2555  1.8295 -2.0732
   62CHL1  H18B 7023   0.677   1.877   9.288  1.2257  1.7777 -0.4366
   62CHL1  H18C 7024   0.724   1.939   9.132 -1.4762  1.6343  1.1991
   62CHL1   C12 7025   0.812   1.614   9.240 -0.4987  0.3215 -0.1003
   62CHL1  H12A 7026   0.730   1.557   9.192 -0.8331  1.8565 -1.4210
   62CHL1  H12B 7027   0.911   1.564   9.240 -0.2875  0.5902 -2.8234
   62CHL1   C11 7028   0.775   1.637   9.383 -0.1867  0.6046 -0.2534
   62CHL1  H11A 7029   0.684   1.698   9.402  0.5174  2.1985 -1.7451
   62CHL1  H11B 7030   0.757   1.539   9.431  2.4081  1.0144  1.7692
   62CHL1    C9 7031   0.889   1.718   9.468 -0.2936 -0.1988  1.0234
   62CHL1    H9 7032   0.975   1.647   9.467  0.3304  0.5571  0.6825
   62CHL1   C10 7033   0.860   1.736   9.617  0.4725 -0.1646 -0.1587
   62CHL1   C19 7034   0.717   1.803   9.643  0.0566  0.1895  0.4820
   62CHL1  H19A 7035   0.697   1.832   9.748 -0.1625  1.1999  0.1688
   62CHL1  H19B 7036   0.698   1.900   9.592 -0.9221  0.0548  0.5718
   62CHL1  H19C 7037   0.638   1.731   9.611  1.1780 -1.4414  1.2143
   62CHL1    C1 7038   0.843   1.597   9.679 -0.2880  0.4547  0.2446
   62CHL1   H1A 7039   0.750   1.547   9.645 -0.9397  0.8057  1.4434
   62CHL1   H1B 7040   0.935   1.541   9.653 -0.8774 -1.1176  1.4102
   62CHL1    C2 7041   0.829   1.602   9.838 -0.0149  0.9343  0.3431
   62CHL1   H2A 7042   0.843   1.500   9.879 -0.5426  1.5202  2.0783
   62CHL1   H2B 7043   0.737   1.645   9.882  0.3159  0.3029  1.6990
   62CHL1   C20 7044   0.794   1.733   8.908 -0.3410  0.0204 -0.2256
   62CHL1   H20 7045   0.726   1.820   8.906  0.1180  0.4159  0.6195
   62CHL1   C21 7046   0.715   1.612   8.933  0.1707 -0.5375  0.5549
   62CHL1  H21A 7047   0.779   1.543   8.992  2.1014  0.5771 -0.1667
   62CHL1  H21B 7048   0.668   1.566   8.844 -2.8295  2.5302  0.3513
   62CHL1  H21C 7049   0.632   1.639   9.003 -0.6755 -1.3114 -0.1283
   62CHL1   C22 7050   0.873   1.738   8.772 -0.0027  0.0855 -0.3131
   62CHL1  H22A 7051   0.796   1.729   8.693 -0.0302  0.3999 -0.3234
   62CHL1  H22B 7052   0.921   1.838   8.760 -1.9667  1.1375  0.1256
   62CHL1   C23 7053   0.963   1.614   8.752  0.7032  0.6787 -0.7967
   62CHL1  H23A 7054   1.025   1.592   8.841  1.1516  0.9048 -1.0473
   62CHL1  H23B 7055   0.910   1.521   8.723 -1.9511  1.8724 -0.1565
   62CHL1   C24 7056   1.063   1.644   8.643 -0.1689 -0.3751 -0.6274
   62CHL1  H24A 7057   1.013   1.717   8.575  0.0935  1.3907  0.9884
   62CHL1  H24B 7058   1.144   1.698   8.697  0.4930  0.8472 -2.7532
   62CHL1   C25 7059   1.094   1.524   8.561 -0.4938  0.1164 -0.0671
   62CHL1   H25 7060   0.996   1.489   8.521 -0.3837  1.6204 -1.7166
   62CHL1   C26 7061   1.170   1.560   8.438  0.2430 -0.4015 -0.0687
   62CHL1  H26A 7062   1.129   1.648   8.384  0.2903 -0.2160  0.1940
   62CHL1  H26B 7063   1.277   1.581   8.459  0.0501  0.5233  0.0485
   62CHL1  H26C 7064   1.170   1.481   8.361  1.7625  0.9950 -1.5940
   62CHL1   C27 7065   1.161   1.409   8.647  0.4401 -0.2593  0.0147
   62CHL1  H27A 7066   1.093   1.375   8.728  1.1863  0.2649  0.8796
   62CHL1  H27B 7067   1.171   1.318   8.584  0.0677 -1.6783  1.9055
   62CHL1  H27C 7068   1.257   1.442   8.691 -0.3409  1.1478  0.7097
   63CHL1    C3 7069   2.695   2.955  10.254 -0.6764  0.2570 -0.0353
   63CHL1    H3 7070   2.627   3.043  10.257 -1.3701 -0.2876  0.8747
   63CHL1    O3 7071   2.756   2.922  10.381  0.2384 -0.2062 -0.1893
   63CHL1   H3' 7072   2.851   2.919  10.377  0.3921  2.3044 -0.0775
   63CHL1    C4 7073   2.610   2.835  10.218 -0.0891  0.7030 -0.1939
   63CHL1   H4A 7074   2.666   2.740  10.222  0.3065  0.9433  0.0782
   63CHL1   H4B 7075   2.537   2.828  10.301  0.4751 -0.9814  0.1969
   63CHL1    C5 7076   2.549   2.857  10.076  0.1619 -0.4419 -0.3880
   63CHL1    C6 7077   2.416   2.863  10.061  0.4313  0.2614 -0.8781
   63CHL1    H6 7078   2.354   2.848  10.151 -0.7171  0.7656 -1.5546
   63CHL1    C7 7079   2.355   2.875   9.925  0.8741  0.3360  0.0940
   63CHL1   H7A 7080   2.268   2.807   9.923  0.9899  0.0672  2.3106
   63CHL1   H7B 7081   2.310   2.976   9.910 -1.9493 -1.0230 -1.2503
   63CHL1    C8 7082   2.448   2.854   9.801 -0.0507  0.6781  0.3807
   63CHL1    H8 7083   2.458   2.744   9.788 -2.7495  0.4779 -0.5222
   63CHL1   C14 7084   2.388   2.905   9.674  0.0290  0.2811 -0.4884
   63CHL1   H14 7085   2.382   3.016   9.675  1.1532  0.3823 -1.8159
   63CHL1   C15 7086   2.248   2.854   9.649  0.3530 -0.6193  0.2810
   63CHL1  H15A 7087   2.233   2.753   9.692 -2.6755  0.3190  1.6465
   63CHL1  H15B 7088   2.172   2.915   9.701 -1.5953 -4.2927  2.0886
   63CHL1   C16 7089   2.224   2.876   9.494 -0.8253  0.0753 -0.3694
   63CHL1  H16A 7090   2.208   2.781   9.440 -0.0644 -0.0351 -0.4095
   63CHL1  H16B 7091   2.145   2.952   9.475  1.4828  2.1252 -2.3781
   63CHL1   C17 7092   2.366   2.928   9.442  0.1800 -0.1461  0.4001
   63CHL1   H17 7093   2.358   3.035   9.469 -0.1121 -0.3178  1.0067
   63CHL1   C13 7094   2.468   2.873   9.548 -0.8677  0.9420 -0.3767
   63CHL1   C18 7095   2.493   2.719   9.526  0.3298 -0.1022  0.7240
   63CHL1  H18A 7096   2.553   2.676   9.609 -0.0908  0.3853  1.2938
   63CHL1  H18B 7097   2.403   2.658   9.502  0.0383  0.1845  1.0674
   63CHL1  H18C 7098   2.564   2.713   9.441  0.6739 -1.0839  1.0606
   63CHL1   C12 7099   2.603   2.947   9.558  0.3740 -0.0304  0.4924
   63CHL1  H12A 7100   2.674   2.935   9.473 -1.0140 -0.4777 -0.6537
   63CHL1  H12B 7101   2.576   3.055   9.560  1.5295  0.2534  1.0875
   63CHL1   C11 7102   2.678   2.922   9.692 -0.4499 -0.1683 -0.3740
   63CHL1  H11A 7103   2.734   2.828   9.676 -2.1595 -0.9955 -1.9069
   63CHL1  H11B 7104   2.761   2.993   9.712 -1.3577  0.0508  3.2897
   63CHL1    C9 7105   2.586   2.927   9.819  0.4618  0.4747 -0.4428
   63CHL1    H9 7106   2.557   3.034   9.830 -0.3333  0.1003  1.4836
   63CHL1   C10 7107   2.648   2.884   9.961 -0.3704 -0.3653 -0.4908
   63CHL1   C19 7108   2.729   2.749   9.937 -0.8630 -0.5297  0.0709
   63CHL1  H19A 7109   2.816   2.766   9.871  2.8707 -3.7994  3.6222
   63CHL1  H19B 7110   2.770   2.701  10.028  0.9652  1.7589  0.5336
   63CHL1  H19C 7111   2.667   2.680   9.874  0.5057 -0.9382 -0.8751
   63CHL1    C1 7112   2.738   3.004  10.009 -0.1684 -0.0375  0.0606
   63CHL1   H1A 7113   2.817   3.011   9.931 -1.4400 -1.1107 -1.3946
   63CHL1   H1B 7114   2.674   3.094  10.014  0.6573  0.5694  0.0211
   63CHL1    C2 7115   2.804   2.989  10.149 -0.7548 -0.0693 -0.0787
   63CHL1   H2A 7116   2.860   3.079  10.181  0.6539 -0.6298 -0.8583
   63CHL1   H2B 7117   2.885   2.913  10.138 -0.5360  0.3322 -1.3321
   63CHL1   C20 7118   2.410   2.907   9.292 -0.2677 -0.1823 -0.1183
   63CHL1   H20 7119   2.471   2.817   9.267  1.1175  0.5905  0.3600
   63CHL1   C21 7120   2.499   3.026   9.259  0.6166 -0.1891  0.6738
   63CHL1  H21A 7121   2.464   3.131   9.258 -1.3710 -0.7566 -2.4228
   63CHL1  H21B 7122   2.545   3.007   9.160 -0.8974  2.1910 -0.5880
   63CHL1  H21C 7123   2.592   3.041   9.319  1.3861  2.0020 -0.9136
   63CHL1   C22 7124   2.291   2.904   9.194 -0.4539  0.1299 -0.2882
   63CHL1  H22A 7125   2.222   2.824   9.228 -0.6738  0.0484 -0.9085
   63CHL1  H22B 7126   2.239   3.002   9.197 -0.7362  0.0937 -2.4633
   63CHL1   C23 7127   2.335   2.856   9.055 -0.2849 -0.2744 -0.0345
   63CHL1  H23A 7128   2.409   2.930   9.015  0.7420 -1.9050 -1.2818
   63CHL1  H23B 7129   2.385   2.757   9.060 -2.6366 -1.4668  2.3814
   63CHL1   C24 7130   2.217   2.837   8.959  0.4793  0.7626  0.9912
   63CHL1  H24A 7131   2.147   2.765   9.006 -0.0163  0.4306 -0.2335
   63CHL1  H24B 7132   2.165   2.934   8.943 -0.1931  0.3201  0.4966
   63CHL1   C25 7133   2.249   2.790   8.823 -0.0022  0.5665 -0.3268
   63CHL1   H25 7134   2.303   2.695   8.842  0.1678  0.9819  1.3521
   63CHL1   C26 7135   2.116   2.760   8.749 -0.2981  0.5176 -0.1212
   63CHL1  H26A 7136   2.135   2.724   8.646  0.9480 -0.5151  0.4443
   63CHL1  H26B 7137   2.050   2.687   8.802 -0.0939 -0.5117 -1.2486
   63CHL1  H26C 7138   2.059   2.853   8.728 -0.1131  1.0784  1.7044
   63CHL1   C27 7139   2.335   2.893   8.746  0.0773  0.2454  0.5393
   63CHL1  H27A 7140   2.307   2.908   8.639 -2.5142  2.6157  1.4335
   63CHL1  H27B 7141   2.323   2.998   8.780 -0.9805  0.5015 -0.5257
   63CHL1  H27C 7142   2.443   2.867   8.746 -0.5392 -2.6997 -0.4859
   64CHL1    C3 7143   1.810   2.731  10.161  0.0668 -0.2634  0.0681
   64CHL1    H3 7144   1.917   2.760  10.151 -0.1121  0.1249 -0.7944
   64CHL1    O3 7145   1.796   2.692  10.296 -0.2997  0.1966  0.1066
   64CHL1   H3' 7146   1.702   2.699  10.317 -0.4463  0.9149 -0.7523
   64CHL1    C4 7147   1.740   2.860  10.118  0.7090  0.4569  0.3547
   64CHL1   H4A 7148   1.633   2.829  10.124  1.0931 -1.6763 -1.9942
   64CHL1   H4B 7149   1.755   2.943  10.191  1.3546  0.1279  0.6032
   64CHL1    C5 7150   1.756   2.904   9.974 -0.3436  1.0231 -0.3564
   64CHL1    C6 7151   1.813   3.020   9.945  0.0898 -0.1272  0.6125
   64CHL1    H6 7152   1.839   3.086  10.029 -0.3386 -0.4374  0.9901
   64CHL1    C7 7153   1.844   3.058   9.804 -0.3271 -0.2019  0.1104
   64CHL1   H7A 7154   1.811   3.163   9.784  0.7539  0.1903  0.3458
   64CHL1   H7B 7155   1.953   3.056   9.782 -0.7728 -0.5457 -2.3603
   64CHL1    C8 7156   1.765   2.974   9.691  0.2932  0.0516  0.8911
   64CHL1    H8 7157   1.660   3.012   9.697  0.6906  1.3827 -0.1182
   64CHL1   C14 7158   1.819   2.997   9.556 -1.1290 -0.6381 -0.1796
   64CHL1   H14 7159   1.926   2.966   9.560 -0.1488  2.2388 -1.3834
   64CHL1   C15 7160   1.827   3.142   9.509 -1.1024  0.0245 -0.1635
   64CHL1  H15A 7161   1.732   3.196   9.531 -0.4776  0.3764  1.9647
   64CHL1  H15B 7162   1.915   3.195   9.553 -0.5222 -0.3984 -0.7994
   64CHL1   C16 7163   1.849   3.137   9.362 -0.3989  0.2144  0.3225
   64CHL1  H16A 7164   1.776   3.192   9.299 -2.5940 -1.6809  1.1099
   64CHL1  H16B 7165   1.947   3.164   9.317 -0.0932 -1.5096 -0.1031
   64CHL1   C17 7166   1.841   2.983   9.323  0.2100  0.0841 -0.0102
   64CHL1   H17 7167   1.943   2.940   9.333  0.1348 -0.0591  0.1424
   64CHL1   C13 7168   1.759   2.921   9.438  0.0371  0.5287 -0.2140
   64CHL1   C18 7169   1.609   2.957   9.425 -0.1093 -0.8151  0.0782
   64CHL1  H18A 7170   1.551   2.924   9.515 -0.3420 -1.5887 -0.3476
   64CHL1  H18B 7171   1.591   3.066   9.411 -1.6436 -1.0604  0.0176
   64CHL1  H18C 7172   1.564   2.903   9.340  0.3890 -1.8580  0.4594
   64CHL1   C12 7173   1.776   2.764   9.468 -0.2363 -0.0668  0.5598
   64CHL1  H12A 7174   1.713   2.696   9.406  1.9220 -1.6223 -0.0786
   64CHL1  H12B 7175   1.882   2.735   9.448 -0.5344 -2.3524  1.9434
   64CHL1   C11 7176   1.736   2.724   9.612  0.6055 -0.7620 -1.0302
   64CHL1  H11A 7177   1.626   2.734   9.602  0.5718 -0.4444 -0.3708
   64CHL1  H11B 7178   1.768   2.620   9.637 -2.3083 -1.3368  0.8749
   64CHL1    C9 7179   1.777   2.823   9.729 -0.7146 -0.0520  0.9344
   64CHL1    H9 7180   1.886   2.808   9.745 -0.3428  1.0039 -0.4486
   64CHL1   C10 7181   1.718   2.791   9.869  0.2617  0.3572 -0.5431
   64CHL1   C19 7182   1.566   2.775   9.853 -0.1410  0.1331  0.4823
   64CHL1  H19A 7183   1.545   2.686   9.790 -1.4423  0.6490  0.1534
   64CHL1  H19B 7184   1.516   2.776   9.952 -2.0603  1.3772 -0.4382
   64CHL1  H19C 7185   1.519   2.857   9.795 -0.5977 -0.1282  0.4746
   64CHL1    C1 7186   1.777   2.656   9.924  0.7055 -0.2989  0.6767
   64CHL1   H1A 7187   1.739   2.572   9.862 -1.6267  0.9298  0.3521
   64CHL1   H1B 7188   1.886   2.653   9.900  0.4674 -1.7207 -0.4040
   64CHL1    C2 7189   1.755   2.617  10.075  0.0326 -0.4363  0.5745
   64CHL1   H2A 7190   1.816   2.526  10.096  1.4234  0.1692 -0.6122
   64CHL1   H2B 7191   1.648   2.601  10.097 -0.3299  1.9485  0.7574
   64CHL1   C20 7192   1.806   2.962   9.177 -0.2193 -0.5543 -0.4068
   64CHL1   H20 7193   1.703   3.000   9.161  0.9051  1.9581 -2.4732
   64CHL1   C21 7194   1.815   2.809   9.137  0.0267  0.5554  0.6528
   64CHL1  H21A 7195   1.762   2.749   9.214  0.6050  1.0178  1.4318
   64CHL1  H21B 7196   1.921   2.776   9.140 -0.2826 -0.5790 -0.3648
   64CHL1  H21C 7197   1.766   2.790   9.039  0.4189  0.0862  0.5476
   64CHL1   C22 7198   1.896   3.054   9.086  1.0296  0.4034  0.2066
   64CHL1  H22A 7199   1.861   3.158   9.104 -0.5227  0.0935 -0.8582
   64CHL1  H22B 7200   2.006   3.050   9.102  1.3649 -0.5358 -2.0315
   64CHL1   C23 7201   1.884   3.036   8.933  0.9561 -0.0695 -0.3570
   64CHL1  H23A 7202   1.966   3.100   8.894  1.8904  1.2872  3.3954
   64CHL1  H23B 7203   1.914   2.933   8.908  0.1463 -0.4659  0.2524
   64CHL1   C24 7204   1.744   3.073   8.883  0.2572  0.1214  0.2331
   64CHL1  H24A 7205   1.681   3.017   8.956 -0.0219 -0.3415 -0.3575
   64CHL1  H24B 7206   1.715   3.181   8.889 -0.1706 -0.0158  0.7937
   64CHL1   C25 7207   1.715   3.026   8.730 -0.4021  0.1246  0.1997
   64CHL1   H25 7208   1.610   3.052   8.706  0.1776  1.1438 -1.3250
   64CHL1   C26 7209   1.797   3.094   8.617 -0.7246 -0.5290  0.2900
   64CHL1  H26A 7210   1.748   3.072   8.520 -1.0815  2.5907 -0.3432
   64CHL1  H26B 7211   1.791   3.205   8.624  1.6193 -0.3265 -0.0498
   64CHL1  H26C 7212   1.906   3.073   8.619 -0.8593 -1.2036  1.3706
   64CHL1   C27 7213   1.719   2.870   8.714 -0.6684  0.2914 -0.6222
   64CHL1  H27A 7214   1.658   2.832   8.630 -0.8640 -1.1734  0.1465
   64CHL1  H27B 7215   1.826   2.838   8.711 -0.5837  0.2701  1.3460
   64CHL1  H27C 7216   1.671   2.812   8.795 -2.0423 -0.5514 -1.9834
   65CHL1    C3 7217   4.160   6.613  10.293  0.7385 -0.0998  0.3676
   65CHL1    H3 7218   4.113   6.711  10.314  0.1995  0.0412 -1.2949
   65CHL1    O3 7219   4.141   6.529  10.401 -0.5519  0.0773  0.0830
   65CHL1   H3' 7220   4.170   6.441  10.375 -1.0757  0.3454 -1.5079
   65CHL1    C4 7221   4.082   6.544  10.178 -0.1129 -0.2747 -0.2600
   65CHL1   H4A 7222   4.106   6.435  10.179 -1.0814 -0.5109  1.2807
   65CHL1   H4B 7223   3.975   6.547  10.209  0.1118 -0.1320  0.5151
   65CHL1    C5 7224   4.105   6.593  10.044  0.0364 -0.0224 -0.1171
   65CHL1    C6 7225   4.005   6.631   9.964 -0.2499  0.3724 -0.3692
   65CHL1    H6 7226   3.901   6.623  10.000 -0.1517  0.5938 -0.0320
   65CHL1    C7 7227   4.025   6.676   9.819  0.2461  0.4008 -0.3066
   65CHL1   H7A 7228   3.953   6.613   9.764  0.2565 -1.4573  1.6820
   65CHL1   H7B 7229   3.993   6.782   9.804  1.5737  0.8663  0.0032
   65CHL1    C8 7230   4.170   6.657   9.769  0.0845  0.4621 -0.1216
   65CHL1    H8 7231   4.176   6.546   9.761 -0.3454  0.3892  0.4505
   65CHL1   C14 7232   4.192   6.714   9.628  0.3997 -0.2744  0.2741
   65CHL1   H14 7233   4.179   6.824   9.635  0.7482 -0.2515  0.5637
   65CHL1   C15 7234   4.094   6.675   9.513 -0.2804 -0.8484  0.2510
   65CHL1  H15A 7235   4.053   6.572   9.520 -1.0956 -0.8121 -2.7533
   65CHL1  H15B 7236   4.003   6.739   9.514  0.6840  0.6013 -0.8952
   65CHL1   C16 7237   4.174   6.701   9.389  0.1832  0.3870  0.5471
   65CHL1  H16A 7238   4.182   6.610   9.327  0.4391  1.1352 -0.5339
   65CHL1  H16B 7239   4.126   6.779   9.326  0.0756  0.0812  0.2509
   65CHL1   C17 7240   4.314   6.746   9.425 -0.1412 -0.7264 -0.2718
   65CHL1   H17 7241   4.310   6.856   9.440 -0.2702 -0.7675 -0.0096
   65CHL1   C13 7242   4.337   6.694   9.575 -0.2816 -0.3074 -0.0242
   65CHL1   C18 7243   4.368   6.542   9.568 -0.7256  0.1848 -0.3792
   65CHL1  H18A 7244   4.297   6.485   9.503  1.2417 -3.0822  0.0944
   65CHL1  H18B 7245   4.462   6.523   9.511 -0.1097 -1.5928  1.1262
   65CHL1  H18C 7246   4.369   6.490   9.666 -1.2936 -0.8040 -0.8833
   65CHL1   C12 7247   4.435   6.768   9.671  0.0042  0.2289  0.3765
   65CHL1  H12A 7248   4.540   6.751   9.638 -0.5789 -1.4550 -0.7329
   65CHL1  H12B 7249   4.422   6.879   9.680  1.5456  0.3075  2.6390
   65CHL1   C11 7250   4.424   6.712   9.819 -0.5367  0.2033 -0.5440
   65CHL1  H11A 7251   4.468   6.610   9.810 -2.6452 -0.7391 -0.8150
   65CHL1  H11B 7252   4.483   6.769   9.894  1.1395 -5.2754  2.8934
   65CHL1    C9 7253   4.272   6.699   9.870 -0.2709 -0.6447 -0.5722
   65CHL1    H9 7254   4.244   6.805   9.886 -2.3022 -1.3861  1.5111
   65CHL1   C10 7255   4.252   6.619  10.001 -0.4350  0.0285 -0.1369
   65CHL1   C19 7256   4.325   6.478   9.984 -0.0141 -0.0949  0.0784
   65CHL1  H19A 7257   4.290   6.408  10.063 -2.8148 -1.2011 -1.9716
   65CHL1  H19B 7258   4.277   6.437   9.893 -0.6763  2.8940 -1.0241
   65CHL1  H19C 7259   4.435   6.476   9.974 -0.1106 -0.7549 -1.0373
   65CHL1    C1 7260   4.317   6.695  10.118  0.3454  0.0347  0.1344
   65CHL1   H1A 7261   4.423   6.712  10.091  0.1160  0.2075 -0.6852
   65CHL1   H1B 7262   4.268   6.793  10.139  1.8263  0.0670  4.2244
   65CHL1    C2 7263   4.316   6.628  10.259  0.5102 -0.3796  0.2313
   65CHL1   H2A 7264   4.373   6.690  10.331  0.4132 -0.4284  0.3495
   65CHL1   H2B 7265   4.365   6.528  10.268 -0.2384 -0.6051  2.3388
   65CHL1   C20 7266   4.424   6.721   9.316  0.6568 -0.7298  0.7134
   65CHL1   H20 7267   4.432   6.611   9.299  2.1272 -0.5172 -0.1541
   65CHL1   C21 7268   4.560   6.765   9.354 -0.7777  0.0348 -0.0373
   65CHL1  H21A 7269   4.563   6.875   9.369 -1.1042 -0.3310  3.6384
   65CHL1  H21B 7270   4.635   6.738   9.277 -0.6787 -1.1317  0.4478
   65CHL1  H21C 7271   4.600   6.713   9.444  0.3707  0.3050 -0.3679
   65CHL1   C22 7272   4.381   6.799   9.184  0.0160 -0.2024 -1.0760
   65CHL1  H22A 7273   4.274   6.783   9.161 -0.8603  0.4816  1.9970
   65CHL1  H22B 7274   4.399   6.907   9.201 -2.5631  0.1095  0.1601
   65CHL1   C23 7275   4.467   6.778   9.061 -0.0376 -1.1650 -0.5182
   65CHL1  H23A 7276   4.430   6.840   8.976 -1.8830 -2.9963 -1.1280
   65CHL1  H23B 7277   4.572   6.812   9.072  0.0088 -1.5488  0.3004
   65CHL1   C24 7278   4.451   6.635   9.007  0.5014 -0.0866 -0.3909
   65CHL1  H24A 7279   4.501   6.556   9.067 -1.5710 -1.5695 -0.5217
   65CHL1  H24B 7280   4.342   6.613   9.016  0.2099  1.6887  1.0006
   65CHL1   C25 7281   4.489   6.613   8.865 -0.4737  1.0444 -0.0650
   65CHL1   H25 7282   4.456   6.700   8.804 -0.7573 -0.0957 -1.5896
   65CHL1   C26 7283   4.637   6.609   8.852  0.0644  0.1235  0.2936
   65CHL1  H26A 7284   4.660   6.621   8.744  0.4688 -0.4778  0.3116
   65CHL1  H26B 7285   4.670   6.690   8.921 -3.0387  0.2628  1.8268
   65CHL1  H26C 7286   4.679   6.515   8.892  1.9064  1.1270  0.8325
   65CHL1   C27 7287   4.425   6.489   8.805 -0.1079  0.4526 -0.5444
   65CHL1  H27A 7288   4.467   6.471   8.704  0.4516 -1.0352 -0.0766
   65CHL1  H27B 7289   4.441   6.402   8.873 -0.9198 -0.3199 -1.3249
   65CHL1  H27C 7290   4.314   6.496   8.798 -0.2158 -1.2724 -0.9960
   66CHL1    C3 7291   3.152   3.380  10.353 -0.3577 -0.0756  0.1838
   66CHL1    H3 7292   3.124   3.487  10.370 -0.6517  0.1730 -1.7136
   66CHL1    O3 7293   3.204   3.322  10.472  0.4299  0.5954  0.2711
   66CHL1   H3' 7294   3.268   3.384  10.507 -0.1616 -0.3125  3.2301
   66CHL1    C4 7295   3.019   3.310  10.311  0.5303  1.0978  0.4896
   66CHL1   H4A 7296   3.031   3.202  10.334 -0.8137  1.1879  1.8294
   66CHL1   H4B 7297   2.937   3.330  10.384  1.2039 -0.6248  1.7911
   66CHL1    C5 7298   2.970   3.338  10.169 -0.5484 -0.9067  0.2086
   66CHL1    C6 7299   2.844   3.377  10.148  0.5049 -0.4251  0.0819
   66CHL1    H6 7300   2.776   3.394  10.233  1.3342 -1.7224  1.0519
   66CHL1    C7 7301   2.787   3.412  10.013 -0.2109 -0.0039  0.6496
   66CHL1   H7A 7302   2.686   3.365  10.006  0.7892 -2.5049  1.9207
   66CHL1   H7B 7303   2.777   3.522  10.005  1.0986  0.0454 -0.7486
   66CHL1    C8 7304   2.873   3.369   9.896 -0.1670 -0.4312 -0.0193
   66CHL1    H8 7305   2.866   3.258   9.895  0.1885 -0.4810  1.4258
   66CHL1   C14 7306   2.821   3.421   9.769  0.2729  0.2344  0.0758
   66CHL1   H14 7307   2.828   3.532   9.765 -2.1186  0.4829  1.1586
   66CHL1   C15 7308   2.672   3.399   9.738 -0.1540  0.4670  0.8672
   66CHL1  H15A 7309   2.644   3.294   9.763  0.7651 -0.1490 -0.6024
   66CHL1  H15B 7310   2.609   3.472   9.794 -0.0003 -0.3390  2.1326
   66CHL1   C16 7311   2.655   3.423   9.588  1.1625 -0.0196 -0.6918
   66CHL1  H16A 7312   2.616   3.332   9.539 -0.3779 -0.4124  1.1261
   66CHL1  H16B 7313   2.587   3.505   9.556  2.2868  1.1729 -0.1588
   66CHL1   C17 7314   2.798   3.460   9.539 -0.2245  0.2052  0.3190
   66CHL1   H17 7315   2.812   3.569   9.553 -0.1000  0.0070  1.8910
   66CHL1   C13 7316   2.898   3.392   9.640 -0.0470 -0.3485 -0.1401
   66CHL1   C18 7317   2.893   3.239   9.614 -1.1843  0.2502  1.2289
   66CHL1  H18A 7318   2.916   3.183   9.708  0.9226 -0.2820  0.4489
   66CHL1  H18B 7319   2.801   3.198   9.568 -0.1296  0.4270 -1.2024
   66CHL1  H18C 7320   2.968   3.216   9.536 -0.2129  2.0359  1.5858
   66CHL1   C12 7321   3.034   3.447   9.653 -0.2810  0.2626  0.0424
   66CHL1  H12A 7322   3.097   3.429   9.563 -2.6449  1.5379 -2.0321
   66CHL1  H12B 7323   3.025   3.557   9.665  0.9134  0.2662  1.0401
   66CHL1   C11 7324   3.102   3.394   9.781 -0.6093 -0.5327 -1.0704
   66CHL1  H11A 7325   3.117   3.284   9.773  0.1284 -1.0966  4.3455
   66CHL1  H11B 7326   3.198   3.449   9.793 -0.8892 -0.0272 -1.1201
   66CHL1    C9 7327   3.023   3.408   9.916 -0.0127  0.1309  0.4692
   66CHL1    H9 7328   3.020   3.519   9.925  1.3545  0.2238  0.0320
   66CHL1   C10 7329   3.076   3.342  10.049  0.2662 -0.0664 -0.0249
   66CHL1   C19 7330   3.125   3.191  10.030  0.0113 -0.3373 -0.4304
   66CHL1  H19A 7331   3.203   3.179   9.953  0.9626  2.0372  0.0772
   66CHL1  H19B 7332   3.177   3.152  10.120 -0.6045 -0.8001 -0.2620
   66CHL1  H19C 7333   3.047   3.112  10.025 -1.6349  0.5448  4.7563
   66CHL1    C1 7334   3.208   3.418  10.102 -0.0623 -0.2713 -0.2135
   66CHL1   H1A 7335   3.294   3.411  10.033 -0.0841 -0.6601 -0.2035
   66CHL1   H1B 7336   3.175   3.524  10.104 -1.1714 -0.6054  0.0111
   66CHL1    C2 7337   3.256   3.381  10.244 -0.1894 -0.2106 -0.4771
   66CHL1   H2A 7338   3.332   3.456  10.278 -0.9631  0.1476  0.5119
   66CHL1   H2B 7339   3.311   3.285  10.238 -0.9366 -0.5838 -1.7336
   66CHL1   C20 7340   2.814   3.427   9.390 -0.1627 -0.5051 -0.8302
   66CHL1   H20 7341   2.778   3.323   9.378 -0.3185 -0.5046 -0.3861
   66CHL1   C21 7342   2.958   3.449   9.352 -0.4838 -0.7939  0.0979
   66CHL1  H21A 7343   3.016   3.362   9.388  1.2574  0.6865  1.0814
   66CHL1  H21B 7344   2.990   3.542   9.405  0.6695 -2.1349  1.8673
   66CHL1  H21C 7345   2.964   3.466   9.243 -1.9416  0.0325  0.1190
   66CHL1   C22 7346   2.721   3.513   9.303 -0.3034  0.1965  0.0150
   66CHL1  H22A 7347   2.642   3.553   9.370  0.7751 -0.5579  1.8017
   66CHL1  H22B 7348   2.770   3.607   9.270 -0.2406 -0.5343 -2.1806
   66CHL1   C23 7349   2.656   3.443   9.180  0.6637 -0.0182  0.6607
   66CHL1  H23A 7350   2.601   3.351   9.210  0.0206 -0.6159 -2.0638
   66CHL1  H23B 7351   2.588   3.519   9.136 -0.4017 -1.0911  0.4094
   66CHL1   C24 7352   2.759   3.421   9.067 -0.5658 -0.2862 -0.0713
   66CHL1  H24A 7353   2.820   3.507   9.032 -0.0790 -1.2308 -1.6252
   66CHL1  H24B 7354   2.834   3.352   9.113  1.4766  1.0207 -1.2954
   66CHL1   C25 7355   2.715   3.353   8.931  0.6906  0.1397 -0.3233
   66CHL1   H25 7356   2.642   3.429   8.894  2.3172  2.6748  1.3616
   66CHL1   C26 7357   2.837   3.354   8.827 -0.0484 -0.3215  0.1465
   66CHL1  H26A 7358   2.806   3.336   8.722 -1.7633  1.3016  0.3096
   66CHL1  H26B 7359   2.887   3.454   8.823 -2.7019  1.0862 -0.2014
   66CHL1  H26C 7360   2.896   3.272   8.873 -1.3107 -0.3489  1.8283
   66CHL1   C27 7361   2.654   3.212   8.953 -0.9483 -0.0935  0.0578
   66CHL1  H27A 7362   2.738   3.149   8.988 -0.1757  0.4811 -0.7218
   66CHL1  H27B 7363   2.577   3.214   9.034 -0.9092 -1.4727  0.1500
   66CHL1  H27C 7364   2.620   3.166   8.858 -0.3878 -0.9036  0.2427
   67CHL1    C3 7365   5.182   4.554  10.174 -0.8202 -0.5828  0.3273
   67CHL1    H3 7366   5.101   4.630  10.174  0.2632  0.6176  1.8736
   67CHL1    O3 7367   5.212   4.513  10.308 -0.3970 -0.6532  0.2719
   67CHL1   H3' 7368   5.130   4.483  10.348  0.8229 -1.5257  2.2956
   67CHL1    C4 7369   5.137   4.430  10.091  0.3305  0.9632  0.4222
   67CHL1   H4A 7370   5.218   4.358  10.114  0.4733  1.2344  0.7789
   67CHL1   H4B 7371   5.039   4.393  10.126  0.2704 -1.2469 -1.7863
   67CHL1    C5 7372   5.119   4.469   9.947 -0.4031  0.8058 -0.3892
   67CHL1    C6 7373   4.996   4.450   9.892 -0.7497 -0.2642 -0.1329
   67CHL1    H6 7374   4.915   4.403   9.949 -1.5337  0.7586 -0.3603
   67CHL1    C7 7375   4.963   4.489   9.747  0.6120  0.6003  0.8522
   67CHL1   H7A 7376   4.900   4.409   9.702 -0.1191  1.0608  1.0319
   67CHL1   H7B 7377   4.900   4.580   9.747 -0.2498  0.0227  1.4350
   67CHL1    C8 7378   5.087   4.507   9.654  0.0781  0.4868 -0.5098
   67CHL1    H8 7379   5.131   4.408   9.627  4.3779  2.0656 -0.1080
   67CHL1   C14 7380   5.043   4.583   9.526  0.3716  0.0296  0.4843
   67CHL1   H14 7381   5.006   4.680   9.565  0.5122 -0.8443  2.9439
   67CHL1   C15 7382   4.932   4.510   9.449 -0.1517 -0.0349  0.4993
   67CHL1  H15A 7383   4.953   4.401   9.454 -0.3900 -0.1910 -1.1701
   67CHL1  H15B 7384   4.832   4.535   9.490  0.4055  1.4647  1.0227
   67CHL1   C16 7385   4.952   4.575   9.304 -0.0418  0.6105  0.0134
   67CHL1  H16A 7386   4.969   4.480   9.249 -2.1378  0.4530 -0.4238
   67CHL1  H16B 7387   4.863   4.621   9.256  0.1600 -0.0600 -1.0300
   67CHL1   C17 7388   5.073   4.669   9.309 -0.6945 -0.0903  0.4194
   67CHL1   H17 7389   5.027   4.766   9.337 -0.5533 -0.3411  1.5646
   67CHL1   C13 7390   5.156   4.621   9.426 -0.2368  0.0441 -0.1167
   67CHL1   C18 7391   5.232   4.500   9.372  0.3725  0.4210 -0.0144
   67CHL1  H18A 7392   5.272   4.429   9.447  0.5041 -1.8165 -2.0707
   67CHL1  H18B 7393   5.166   4.439   9.306  2.2706 -2.8571  0.9224
   67CHL1  H18C 7394   5.320   4.536   9.315  0.2770  1.5971  0.5377
   67CHL1   C12 7395   5.254   4.709   9.508  0.0148  0.5798  0.6842
   67CHL1  H12A 7396   5.340   4.733   9.442 -0.1262 -1.5700 -0.3473
   67CHL1  H12B 7397   5.218   4.810   9.539  0.3621  0.6709  0.8001
   67CHL1   C11 7398   5.304   4.635   9.635  0.1133 -0.7028 -1.2762
   67CHL1  H11A 7399   5.367   4.545   9.614  1.6742 -0.8514  3.0465
   67CHL1  H11B 7400   5.372   4.700   9.694 -2.3037 -1.0690  2.2017
   67CHL1    C9 7401   5.188   4.594   9.729  0.0460 -0.0960  0.6114
   67CHL1    H9 7402   5.145   4.694   9.750 -0.9523 -0.6053  1.1073
   67CHL1   C10 7403   5.225   4.545   9.871 -0.0552 -0.1991  0.1093
   67CHL1   C19 7404   5.343   4.444   9.858  0.5892  0.1048  0.0663
   67CHL1  H19A 7405   5.366   4.397   9.956 -0.0401 -0.4686 -0.0520
   67CHL1  H19B 7406   5.325   4.363   9.785  1.3069 -0.5294  0.5744
   67CHL1  H19C 7407   5.435   4.500   9.831  0.6682 -0.0345  0.0470
   67CHL1    C1 7408   5.273   4.661   9.968 -0.6324  0.5982 -0.5442
   67CHL1   H1A 7409   5.369   4.691   9.920  0.1697 -0.4456  0.3647
   67CHL1   H1B 7410   5.200   4.744   9.960  0.0152  1.6916  3.0980
   67CHL1    C2 7411   5.306   4.621  10.116  0.8842  0.0982 -0.2212
   67CHL1   H2A 7412   5.347   4.702  10.179  1.5584  0.6376 -1.3281
   67CHL1   H2B 7413   5.383   4.541  10.122  0.3063 -0.4253  0.3899
   67CHL1   C20 7414   5.144   4.696   9.170  0.8107 -0.5798  0.0437
   67CHL1   H20 7415   5.199   4.608   9.131  0.2084  0.0439 -2.3560
   67CHL1   C21 7416   5.242   4.816   9.193  0.1828  1.1488 -0.5435
   67CHL1  H21A 7417   5.332   4.781   9.248 -1.0398 -0.4232  0.5486
   67CHL1  H21B 7418   5.188   4.890   9.255  2.1720  0.7180  1.8725
   67CHL1  H21C 7419   5.279   4.873   9.105  0.5411  0.7779 -0.6358
   67CHL1   C22 7420   5.041   4.728   9.059  0.6315 -0.1611 -0.1744
   67CHL1  H22A 7421   4.952   4.663   9.050 -0.1577  0.7689  0.5813
   67CHL1  H22B 7422   5.015   4.836   9.072  2.8008  0.3850  0.0032
   67CHL1   C23 7423   5.114   4.718   8.921  0.3844  0.5306 -0.8553
   67CHL1  H23A 7424   5.042   4.744   8.840  0.7748  2.3131 -0.6799
   67CHL1  H23B 7425   5.198   4.790   8.925 -0.7439  1.8607 -0.3047
   67CHL1   C24 7426   5.171   4.575   8.876  1.1925 -0.3159 -0.3166
   67CHL1  H24A 7427   5.268   4.562   8.927  1.0082 -0.3036  0.0448
   67CHL1  H24B 7428   5.105   4.490   8.906  1.7636 -0.9908 -0.9571
   67CHL1   C25 7429   5.211   4.567   8.724 -0.8316 -0.3537 -0.1480
   67CHL1   H25 7430   5.273   4.475   8.717  0.4224  0.5287 -0.9569
   67CHL1   C26 7431   5.094   4.554   8.619  0.2976 -1.1505 -0.3101
   67CHL1  H26A 7432   5.023   4.477   8.657 -0.7630  0.0368  0.1546
   67CHL1  H26B 7433   5.038   4.649   8.608 -0.4075 -1.6875 -1.6356
   67CHL1  H26C 7434   5.139   4.525   8.521 -0.6754  1.5511 -1.6505
   67CHL1   C27 7435   5.296   4.687   8.690 -1.1707  0.0091  0.8721
   67CHL1  H27A 7436   5.232   4.778   8.702 -1.5827 -0.0698 -0.6012
   67CHL1  H27B 7437   5.381   4.690   8.762  0.1140 -0.6050 -0.5703
   67CHL1  H27C 7438   5.338   4.676   8.588 -0.9250  1.0249  0.8587
   68CHL1    C3 7439   3.617   5.523  10.290 -0.6322  0.3189 -0.3601
   68CHL1    H3 7440   3.717   5.491  10.325 -1.1023 -1.0856 -0.2640
   68CHL1    O3 7441   3.537   5.528  10.405 -0.5873  0.1611  0.4084
   68CHL1   H3' 7442   3.492   5.443  10.400 -1.1168  0.4612 -0.0615
   68CHL1    C4 7443   3.625   5.667  10.232 -0.0085  0.0079 -0.3254
   68CHL1   H4A 7444   3.520   5.703  10.222 -0.5306 -1.5841 -0.9305
   68CHL1   H4B 7445   3.681   5.731  10.304  0.1794  3.2924 -3.1355
   68CHL1    C5 7446   3.695   5.665  10.102 -0.3881 -0.0717  0.7458
   68CHL1    C6 7447   3.782   5.763  10.073  0.4088  0.1055  0.2803
   68CHL1    H6 7448   3.789   5.851  10.139 -2.2836  0.7774 -0.1905
   68CHL1    C7 7449   3.840   5.785   9.933  0.7045 -0.0548  0.1372
   68CHL1   H7A 7450   3.815   5.886   9.892  0.9001 -0.3802 -0.8141
   68CHL1   H7B 7451   3.951   5.778   9.933  0.7347  0.1463 -1.2259
   68CHL1    C8 7452   3.793   5.693   9.818 -0.6928 -0.2033 -0.6576
   68CHL1    H8 7453   3.700   5.739   9.777 -1.5778 -2.4248 -1.2906
   68CHL1   C14 7454   3.900   5.683   9.708 -0.0107 -0.1846  0.8306
   68CHL1   H14 7455   3.972   5.610   9.750 -0.6606 -0.0498  2.2546
   68CHL1   C15 7456   3.959   5.813   9.657  0.1971 -0.1764  0.4248
   68CHL1  H15A 7457   3.890   5.899   9.664 -1.7493 -1.7856  2.8578
   68CHL1  H15B 7458   4.045   5.841   9.720  0.1276  0.3787  0.2758
   68CHL1   C16 7459   3.994   5.774   9.512  0.4548 -0.4979  0.1973
   68CHL1  H16A 7460   3.924   5.829   9.445  0.2773  0.8447  1.4373
   68CHL1  H16B 7461   4.101   5.786   9.485  0.5464  0.9137  1.0900
   68CHL1   C17 7462   3.959   5.621   9.497 -0.1190 -0.2623  0.7290
   68CHL1   H17 7463   4.046   5.570   9.545  0.2825 -0.3018 -0.0163
   68CHL1   C13 7464   3.843   5.609   9.588  0.0524  0.1380  0.1875
   68CHL1   C18 7465   3.713   5.676   9.523 -0.0788  0.7126 -0.2685
   68CHL1  H18A 7466   3.732   5.765   9.460 -0.2628  0.6455 -0.4207
   68CHL1  H18B 7467   3.672   5.595   9.460  0.5482 -0.3673  0.6847
   68CHL1  H18C 7468   3.636   5.715   9.593  1.4397  1.9930  0.7609
   68CHL1   C12 7469   3.792   5.471   9.632 -0.5402  0.2160 -0.0274
   68CHL1  H12A 7470   3.747   5.420   9.544 -0.4691  1.6894 -0.9627
   68CHL1  H12B 7471   3.878   5.412   9.670 -0.6181  0.6576  0.8486
   68CHL1   C11 7472   3.695   5.475   9.749  0.5040  0.2370 -0.0359
   68CHL1  H11A 7473   3.610   5.529   9.701  0.3640  0.2891  0.2661
   68CHL1  H11B 7474   3.660   5.376   9.784  0.0126  0.8456  1.2854
   68CHL1    C9 7475   3.752   5.557   9.873  0.4767  0.2183  0.4692
   68CHL1    H9 7476   3.842   5.500   9.904  0.6579 -0.0678 -0.5360
   68CHL1   C10 7477   3.657   5.558   9.997  0.1835 -0.7225  0.4560
   68CHL1   C19 7478   3.513   5.593   9.951  0.6034 -0.3252 -0.0065
   68CHL1  H19A 7479   3.510   5.670   9.872  3.0619  0.1836  0.3449
   68CHL1  H19B 7480   3.471   5.496   9.917  1.5762 -1.6163  2.2371
   68CHL1  H19C 7481   3.439   5.627  10.028 -0.4570 -3.9544  0.7896
   68CHL1    C1 7482   3.653   5.424  10.069 -0.3129  0.1523 -0.3579
   68CHL1   H1A 7483   3.626   5.342   9.999  4.0085 -1.0132 -0.9305
   68CHL1   H1B 7484   3.757   5.403  10.103  0.9896  3.5956 -1.7343
   68CHL1    C2 7485   3.561   5.422  10.191  0.8909 -0.2036  0.2153
   68CHL1   H2A 7486   3.561   5.322  10.239 -0.3193 -1.3783 -2.0681
   68CHL1   H2B 7487   3.457   5.450  10.164  1.7044  2.5486 -0.3629
   68CHL1   C20 7488   3.951   5.560   9.355 -0.0306 -0.0162 -0.5882
   68CHL1   H20 7489   3.848   5.575   9.316  0.4189  1.4494 -1.2730
   68CHL1   C21 7490   3.992   5.411   9.368  0.0953  0.1279  0.0507
   68CHL1  H21A 7491   3.988   5.359   9.269 -0.0593  1.0273 -0.4289
   68CHL1  H21B 7492   3.916   5.367   9.435 -1.9467  2.7674 -0.3737
   68CHL1  H21C 7493   4.092   5.392   9.413 -0.0717  0.1997  0.4554
   68CHL1   C22 7494   4.049   5.626   9.257 -0.3065 -0.1388 -0.1043
   68CHL1  H22A 7495   4.027   5.735   9.252 -1.8594 -0.4573 -0.9640
   68CHL1  H22B 7496   4.154   5.606   9.288 -0.5464 -1.3280 -0.0410
   68CHL1   C23 7497   4.029   5.578   9.110 -0.3628  0.1289 -0.3064
   68CHL1  H23A 7498   4.110   5.624   9.050  1.3814 -1.3068  0.8165
   68CHL1  H23B 7499   4.038   5.468   9.100  1.3946  0.0138  1.6967
   68CHL1   C24 7500   3.897   5.624   9.054  0.7465 -0.0539 -0.5327
   68CHL1  H24A 7501   3.809   5.605   9.119  1.0105  2.2359  0.5894
   68CHL1  H24B 7502   3.903   5.734   9.051  2.8066 -0.0877  0.6170
   68CHL1   C25 7503   3.856   5.587   8.909  0.8667 -0.1520  0.7918
   68CHL1   H25 7504   3.757   5.633   8.886  1.1119 -0.1395 -0.2809
   68CHL1   C26 7505   3.963   5.651   8.815 -0.0285  0.1334 -0.3253
   68CHL1  H26A 7506   3.989   5.756   8.837  0.7389 -0.5460  2.4133
   68CHL1  H26B 7507   4.058   5.594   8.829 -0.9869 -1.4081  0.1172
   68CHL1  H26C 7508   3.932   5.641   8.709 -1.6748  0.6416  0.0902
   68CHL1   C27 7509   3.854   5.441   8.872 -0.2646 -0.7929 -0.3124
   68CHL1  H27A 7510   3.948   5.386   8.891 -2.0986 -3.8437  0.7067
   68CHL1  H27B 7511   3.778   5.396   8.939  0.9967 -0.5876  1.2937
   68CHL1  H27C 7512   3.827   5.415   8.767  2.6253  0.2852 -1.4165
   69CHL1    C3 7513   3.478   4.184   6.662  0.1253 -0.9456 -0.3703
   69CHL1    H3 7514   3.538   4.091   6.667 -1.0286 -1.7360 -0.8021
   69CHL1    O3 7515   3.473   4.229   6.526  0.1425 -0.6084 -0.2036
   69CHL1   H3' 7516   3.401   4.293   6.525 -0.2370 -0.9766  1.2073
   69CHL1    C4 7517   3.338   4.159   6.703 -0.3177  0.0176 -0.5886
   69CHL1   H4A 7518   3.271   4.246   6.687  0.2016  0.3930 -0.7354
   69CHL1   H4B 7519   3.311   4.074   6.637  2.4330 -0.2827 -1.4449
   69CHL1    C5 7520   3.339   4.116   6.852  0.0010  0.9832  0.0397
   69CHL1    C6 7521   3.300   3.990   6.878 -0.1289  0.6919  0.0789
   69CHL1    H6 7522   3.256   3.932   6.795 -0.6231  1.1586  0.0100
   69CHL1    C7 7523   3.286   3.932   7.015 -0.5331 -0.0600 -0.3066
   69CHL1   H7A 7524   3.189   3.879   7.026  0.4166 -2.0677 -1.0416
   69CHL1   H7B 7525   3.369   3.859   7.031 -0.3308 -0.0543 -1.2341
   69CHL1    C8 7526   3.313   4.037   7.124 -0.0535  0.3197  0.4601
   69CHL1    H8 7527   3.230   4.109   7.142  0.8007  1.9507 -1.6774
   69CHL1   C14 7528   3.341   3.970   7.260 -0.4967 -0.5771  0.0362
   69CHL1   H14 7529   3.419   3.893   7.243 -2.8951 -2.8967 -1.2235
   69CHL1   C15 7530   3.231   3.895   7.313  0.3098  0.5556 -0.5038
   69CHL1  H15A 7531   3.134   3.949   7.325  0.3081  0.7438 -1.3282
   69CHL1  H15B 7532   3.232   3.799   7.257  0.3443 -0.1927  0.7447
   69CHL1   C16 7533   3.282   3.864   7.458  0.3380 -0.2622 -0.2712
   69CHL1  H16A 7534   3.195   3.872   7.528  0.9437 -0.0398  0.4649
   69CHL1  H16B 7535   3.312   3.757   7.465 -1.7792 -0.8945 -0.0750
   69CHL1   C17 7536   3.396   3.961   7.485 -0.4973  0.3542 -0.2502
   69CHL1   H17 7537   3.492   3.910   7.464 -0.1633  1.2251 -0.8831
   69CHL1   C13 7538   3.396   4.065   7.374  0.4393  0.4906 -0.4183
   69CHL1   C18 7539   3.300   4.175   7.412 -0.4275 -0.1947 -0.7654
   69CHL1  H18A 7540   3.362   4.255   7.457 -2.5450  0.0753  1.9389
   69CHL1  H18B 7541   3.247   4.226   7.328 -0.0188  0.5075 -0.6016
   69CHL1  H18C 7542   3.223   4.137   7.482  0.2653 -0.7610 -0.2998
   69CHL1   C12 7543   3.533   4.116   7.337  0.0750 -0.5970 -0.1063
   69CHL1  H12A 7544   3.583   4.188   7.406 -1.4138  0.9401 -0.5685
   69CHL1  H12B 7545   3.602   4.032   7.315  1.6954  0.4500  0.8010
   69CHL1   C11 7546   3.513   4.202   7.201 -0.1863 -0.5403  0.2302
   69CHL1  H11A 7547   3.448   4.284   7.240  1.1301  0.8787 -0.4344
   69CHL1  H11B 7548   3.606   4.245   7.158  0.1018 -1.6980 -0.3435
   69CHL1    C9 7549   3.439   4.121   7.082  0.0087  0.3547 -0.2617
   69CHL1    H9 7550   3.512   4.042   7.054 -0.0046  1.2657 -3.2393
   69CHL1   C10 7551   3.409   4.204   6.959  0.8821  1.0961  1.0571
   69CHL1   C19 7552   3.315   4.316   6.986  0.5115 -0.0939 -0.4623
   69CHL1  H19A 7553   3.280   4.370   6.896  0.9256  1.4338  0.2523
   69CHL1  H19B 7554   3.224   4.277   7.036  3.2585 -2.2831  3.4467
   69CHL1  H19C 7555   3.377   4.380   7.053  2.5424 -1.6724 -0.7148
   69CHL1    C1 7556   3.547   4.250   6.905 -0.2101 -0.3568  0.2201
   69CHL1   H1A 7557   3.567   4.350   6.951  0.1118  0.2406 -1.1795
   69CHL1   H1B 7558   3.623   4.174   6.930 -2.7307 -2.7855  0.9534
   69CHL1    C2 7559   3.546   4.289   6.753 -0.4267  0.4503 -0.1883
   69CHL1   H2A 7560   3.647   4.313   6.713 -0.6704  2.1053  0.1025
   69CHL1   H2B 7561   3.478   4.377   6.745  0.1435  0.9826  0.6097
   69CHL1   C20 7562   3.408   3.998   7.634  0.1539 -0.0030 -0.5892
   69CHL1   H20 7563   3.318   4.056   7.662 -0.4504 -0.5366 -1.3809
   69CHL1   C21 7564   3.524   4.093   7.677  0.2750 -0.1692  0.5353
   69CHL1  H21A 7565   3.522   4.100   7.788 -0.4293 -3.8313  0.9056
   69CHL1  H21B 7566   3.516   4.185   7.616 -0.1875 -0.4910  0.1041
   69CHL1  H21C 7567   3.626   4.051   7.665  0.8036  0.2681  2.8612
   69CHL1   C22 7568   3.394   3.878   7.722  0.2517 -0.3073  0.2217
   69CHL1  H22A 7569   3.309   3.817   7.685 -0.8697  1.5695 -0.4489
   69CHL1  H22B 7570   3.484   3.813   7.712 -0.6123 -1.9736  2.5289
   69CHL1   C23 7571   3.346   3.921   7.868  0.3470 -0.2486  0.1801
   69CHL1  H23A 7572   3.429   3.958   7.933 -1.4088 -0.4020  2.6345
   69CHL1  H23B 7573   3.269   4.001   7.860  1.6904  1.4383  2.6627
   69CHL1   C24 7574   3.283   3.804   7.941  0.4186  0.0991 -0.3551
   69CHL1  H24A 7575   3.185   3.783   7.892  0.9568 -2.3122 -0.5217
   69CHL1  H24B 7576   3.344   3.712   7.931  1.3517  0.5512  0.8922
   69CHL1   C25 7577   3.243   3.845   8.084 -0.1173 -0.4311 -0.9130
   69CHL1   H25 7578   3.200   3.948   8.079 -1.7281 -0.9442  1.1878
   69CHL1   C26 7579   3.124   3.761   8.128  0.1243  0.0190 -0.3672
   69CHL1  H26A 7580   3.155   3.662   8.170  0.4327 -0.0951 -0.8579
   69CHL1  H26B 7581   3.061   3.820   8.197  1.2327  2.9897 -1.7589
   69CHL1  H26C 7582   3.052   3.749   8.044 -1.5275  0.2137  0.9646
   69CHL1   C27 7583   3.355   3.843   8.188 -0.1077 -0.2513  0.2961
   69CHL1  H27A 7584   3.315   3.858   8.291  2.2134 -0.2281  1.2560
   69CHL1  H27B 7585   3.414   3.750   8.199 -0.8408 -0.5904  1.6044
   69CHL1  H27C 7586   3.435   3.919   8.175 -1.1900  0.7860 -0.5602
   70CHL1    C3 7587   2.227   0.353   7.059  0.4410  0.1882 -0.1097
   70CHL1    H3 7588   2.175   0.258   7.085 -0.1085  0.5802  0.2380
   70CHL1    O3 7589   2.242   0.369   6.921  0.4528 -0.0648  0.1403
   70CHL1   H3' 7590   2.278   0.458   6.910 -1.6468  0.9009  0.4721
   70CHL1    C4 7591   2.133   0.462   7.121 -0.1752 -0.4632 -0.6129
   70CHL1   H4A 7592   2.167   0.558   7.078 -0.8595  0.2111  0.3109
   70CHL1   H4B 7593   2.030   0.460   7.080 -1.3498  1.5055  1.9147
   70CHL1    C5 7594   2.137   0.453   7.273  0.6830  0.9491  0.0165
   70CHL1    C6 7595   2.027   0.434   7.340  0.0077  0.0059 -0.9278
   70CHL1    H6 7596   1.928   0.440   7.294 -0.9338 -0.5879  0.9081
   70CHL1    C7 7597   2.022   0.413   7.488  0.0704 -0.1865 -0.0304
   70CHL1   H7A 7598   1.933   0.463   7.532  0.8459  0.1990  1.1443
   70CHL1   H7B 7599   2.012   0.304   7.508 -1.5219 -0.1294 -0.4152
   70CHL1    C8 7600   2.143   0.470   7.563  0.5863 -0.6299  0.3966
   70CHL1    H8 7601   2.145   0.581   7.554 -1.2834 -0.7474 -3.2100
   70CHL1   C14 7602   2.156   0.428   7.710  0.3849 -0.0810 -0.5707
   70CHL1   H14 7603   2.165   0.318   7.705 -0.6918 -0.2675  0.8929
   70CHL1   C15 7604   2.033   0.447   7.809 -0.9036 -0.6835  0.9964
   70CHL1  H15A 7605   2.011   0.556   7.800  0.6325 -0.4177  0.0755
   70CHL1  H15B 7606   1.938   0.392   7.792 -1.5093  0.6396 -0.0886
   70CHL1   C16 7607   2.102   0.434   7.942 -0.1283 -0.2296  0.1609
   70CHL1  H16A 7608   2.087   0.531   7.995  1.3497  0.8133 -1.2426
   70CHL1  H16B 7609   2.051   0.342   7.978 -2.0777 -0.7571 -3.4369
   70CHL1   C17 7610   2.256   0.408   7.923  0.6797 -0.4056 -1.1472
   70CHL1   H17 7611   2.266   0.299   7.903  1.3381 -1.0177  1.9834
   70CHL1   C13 7612   2.284   0.470   7.783  0.5326 -0.4687 -0.9194
   70CHL1   C18 7613   2.298   0.624   7.782  0.4880 -0.2941  0.2298
   70CHL1  H18A 7614   2.229   0.675   7.852  1.1279 -0.6664  1.1519
   70CHL1  H18B 7615   2.401   0.650   7.814  0.3575 -0.3642  0.7102
   70CHL1  H18C 7616   2.288   0.676   7.685  1.2069 -1.1798 -0.3305
   70CHL1   C12 7617   2.406   0.409   7.711 -0.0372 -0.1253  0.4031
   70CHL1  H12A 7618   2.498   0.444   7.763  0.3852 -0.3277 -0.1999
   70CHL1  H12B 7619   2.402   0.298   7.713  3.4768 -0.3426  1.3212
   70CHL1   C11 7620   2.402   0.454   7.568 -0.0132  0.3580  0.3140
   70CHL1  H11A 7621   2.428   0.562   7.565 -1.5715  0.7619  0.0446
   70CHL1  H11B 7622   2.496   0.412   7.528  0.4954  1.8600 -0.1567
   70CHL1    C9 7623   2.272   0.420   7.490 -0.4670  0.6067 -0.7426
   70CHL1    H9 7624   2.274   0.310   7.502  2.3967  0.8227  2.2298
   70CHL1   C10 7625   2.278   0.451   7.340  0.2512  0.7982 -0.2002
   70CHL1   C19 7626   2.330   0.592   7.322 -0.4745 -0.6550 -0.0649
   70CHL1  H19A 7627   2.338   0.620   7.214  1.3246 -0.2139  0.1525
   70CHL1  H19B 7628   2.272   0.672   7.372  0.7704  0.0114  0.3546
   70CHL1  H19C 7629   2.430   0.610   7.368 -1.0190  0.1928  0.8263
   70CHL1    C1 7630   2.380   0.358   7.270 -0.6188  0.8189  0.7387
   70CHL1   H1A 7631   2.481   0.375   7.313  0.3213  1.1945 -1.4996
   70CHL1   H1B 7632   2.355   0.256   7.306  0.1553  0.2258 -0.3477
   70CHL1    C2 7633   2.371   0.363   7.117 -0.3759  0.3151 -0.0786
   70CHL1   H2A 7634   2.434   0.281   7.075 -3.3191 -1.8086 -0.6608
   70CHL1   H2B 7635   2.407   0.465   7.090 -0.7094  0.3191 -0.5212
   70CHL1   C20 7636   2.348   0.438   8.039  0.0665 -0.4409 -0.9561
   70CHL1   H20 7637   2.451   0.439   7.996  0.0205 -0.0725 -1.0585
   70CHL1   C21 7638   2.347   0.319   8.143  0.7663 -0.4011  1.1779
   70CHL1  H21A 7639   2.378   0.226   8.091 -1.8177  0.2009 -1.6835
   70CHL1  H21B 7640   2.248   0.289   8.183  0.5849 -0.2624  0.8337
   70CHL1  H21C 7641   2.408   0.336   8.235 -0.4209 -2.8506  2.5344
   70CHL1   C22 7642   2.333   0.569   8.116 -0.8661  0.0864  0.6060
   70CHL1  H22A 7643   2.291   0.649   8.052  0.1085 -0.3076 -0.5704
   70CHL1  H22B 7644   2.269   0.550   8.205  0.0606  3.9015  2.3162
   70CHL1   C23 7645   2.468   0.625   8.170  0.4440  0.3301  0.4426
   70CHL1  H23A 7646   2.448   0.688   8.259 -1.6412 -2.4610  2.1439
   70CHL1  H23B 7647   2.532   0.540   8.202  0.1674  0.4797  1.4361
   70CHL1   C24 7648   2.547   0.705   8.063 -0.5307  0.5341  0.2520
   70CHL1  H24A 7649   2.565   0.641   7.974  1.3397  0.8283  0.3629
   70CHL1  H24B 7650   2.495   0.798   8.033 -2.4279 -0.2670  0.9407
   70CHL1   C25 7651   2.691   0.754   8.109 -0.3528  0.2996 -0.1005
   70CHL1   H25 7652   2.740   0.672   8.165 -0.8969 -1.5198 -2.1382
   70CHL1   C26 7653   2.776   0.801   7.994 -0.1960  0.2430  0.4880
   70CHL1  H26A 7654   2.798   0.715   7.927 -1.4928  0.5495 -0.3775
   70CHL1  H26B 7655   2.733   0.876   7.924  0.5606 -0.9051 -1.2922
   70CHL1  H26C 7656   2.868   0.849   8.035  1.6914 -0.6369 -2.3887
   70CHL1   C27 7657   2.678   0.872   8.206  0.0842 -0.3384 -0.6158
   70CHL1  H27A 7658   2.621   0.960   8.170  2.2547  1.8573  0.9788
   70CHL1  H27B 7659   2.619   0.824   8.286 -0.3083 -1.3787 -1.5014
   70CHL1  H27C 7660   2.772   0.915   8.248  0.3207  1.6994 -2.9787
   71CHL1    C3 7661   3.045   2.347   6.848 -0.3427 -0.4735  0.0714
   71CHL1    H3 7662   2.937   2.362   6.872 -0.4428 -1.7364  0.5030
   71CHL1    O3 7663   3.038   2.291   6.712  0.2466  0.2598 -0.2376
   71CHL1   H3' 7664   3.127   2.277   6.679  1.0949  2.8275  0.7400
   71CHL1    C4 7665   3.115   2.479   6.851  0.0148  0.0637 -0.3995
   71CHL1   H4A 7666   3.216   2.475   6.804 -0.1877 -1.8953 -0.7231
   71CHL1   H4B 7667   3.059   2.547   6.784 -2.6655 -1.4630  0.1416
   71CHL1    C5 7668   3.117   2.542   6.996  0.6927 -0.3216  0.8948
   71CHL1    C6 7669   3.071   2.666   7.020  0.3176  0.3732 -0.2306
   71CHL1    H6 7670   3.031   2.723   6.934 -0.2673 -2.3791 -1.8980
   71CHL1    C7 7671   3.083   2.728   7.161 -0.2478 -0.1817  0.7128
   71CHL1   H7A 7672   3.128   2.828   7.144 -1.8159  0.3452 -0.6730
   71CHL1   H7B 7673   2.989   2.752   7.215 -0.2330  0.7269  0.3397
   71CHL1    C8 7674   3.163   2.635   7.265  0.3720  0.4573  0.2960
   71CHL1    H8 7675   3.273   2.642   7.249  0.6539 -3.2007 -0.1938
   71CHL1   C14 7676   3.131   2.681   7.402 -0.1958 -0.1988  0.4544
   71CHL1   H14 7677   3.024   2.656   7.413 -0.4274 -0.3914 -1.9090
   71CHL1   C15 7678   3.147   2.833   7.426 -0.5915  0.0085 -0.4210
   71CHL1  H15A 7679   3.237   2.864   7.369  0.1881 -1.2621  0.0810
   71CHL1  H15B 7680   3.061   2.896   7.397 -1.1596 -0.5702 -0.0193
   71CHL1   C16 7681   3.167   2.843   7.581 -0.2742  0.7802  0.8198
   71CHL1  H16A 7682   3.269   2.887   7.585 -0.7742  1.9254  1.0667
   71CHL1  H16B 7683   3.090   2.914   7.615 -1.0530  0.5221 -0.3342
   71CHL1   C17 7684   3.162   2.703   7.631 -0.4844 -0.3823  0.4263
   71CHL1   H17 7685   3.053   2.686   7.645 -1.2938  2.9892 -0.8687
   71CHL1   C13 7686   3.216   2.612   7.508  0.2013  0.1943 -0.0539
   71CHL1   C18 7687   3.367   2.633   7.501 -0.2148  0.5598 -0.3885
   71CHL1  H18A 7688   3.418   2.586   7.415  1.3211  2.2189 -0.4322
   71CHL1  H18B 7689   3.394   2.741   7.501  3.2700 -0.1693  1.4965
   71CHL1  H18C 7690   3.409   2.595   7.596  1.4459 -0.4775 -1.4944
   71CHL1   C12 7691   3.183   2.455   7.499 -0.5253 -0.0111 -0.9525
   71CHL1  H12A 7692   3.239   2.388   7.568 -2.8327 -1.3059 -0.2339
   71CHL1  H12B 7693   3.076   2.447   7.527 -0.1894 -0.5762  0.2643
   71CHL1   C11 7694   3.197   2.399   7.355 -0.4459 -1.4636  0.1762
   71CHL1  H11A 7695   3.306   2.406   7.336 -0.4166  0.7281  0.8626
   71CHL1  H11B 7696   3.167   2.292   7.353 -0.9636 -1.3356 -2.3960
   71CHL1    C9 7697   3.123   2.486   7.246 -0.0524  0.0005 -0.6245
   71CHL1    H9 7698   3.015   2.465   7.261  0.1893 -0.7390  0.2120
   71CHL1   C10 7699   3.164   2.440   7.105 -0.1281  0.4088 -0.3004
   71CHL1   C19 7700   3.318   2.428   7.082  0.0706  0.0604  0.3624
   71CHL1  H19A 7701   3.374   2.508   7.136 -0.4179 -1.1666  2.8252
   71CHL1  H19B 7702   3.368   2.335   7.117  1.7563  1.4009  1.7266
   71CHL1  H19C 7703   3.348   2.428   6.975  1.9689 -0.3197  0.8546
   71CHL1    C1 7704   3.104   2.298   7.082  0.2248  0.2026 -0.2874
   71CHL1   H1A 7705   3.159   2.224   7.143 -1.9130 -0.7056  0.6036
   71CHL1   H1B 7706   2.998   2.307   7.113 -0.2503  0.5666 -1.8895
   71CHL1    C2 7707   3.106   2.244   6.939 -0.4754 -0.3241 -0.6058
   71CHL1   H2A 7708   3.069   2.140   6.934 -0.4586 -0.4528  1.2968
   71CHL1   H2B 7709   3.214   2.231   6.916 -0.0662  2.6647 -0.7837
   71CHL1   C20 7710   3.212   2.687   7.778 -0.6054  0.2404  0.2569
   71CHL1   H20 7711   3.318   2.652   7.776 -0.9077 -0.6973 -2.3382
   71CHL1   C21 7712   3.124   2.572   7.850 -0.5022  0.0808 -1.0307
   71CHL1  H21A 7713   3.163   2.552   7.953  0.3932  0.5136 -1.2750
   71CHL1  H21B 7714   3.143   2.481   7.789  2.1665  0.0761 -0.3427
   71CHL1  H21C 7715   3.022   2.610   7.867 -0.1193  1.4615 -1.7247
   71CHL1   C22 7716   3.221   2.818   7.863 -0.3633  0.8184 -0.3844
   71CHL1  H22A 7717   3.267   2.904   7.810  0.3464  1.0558  0.5937
   71CHL1  H22B 7718   3.119   2.845   7.899 -0.6430 -0.3106 -0.2682
   71CHL1   C23 7719   3.292   2.787   7.997  0.2612  0.5506  0.3476
   71CHL1  H23A 7720   3.218   2.739   8.065 -0.0882  1.4630  0.6388
   71CHL1  H23B 7721   3.379   2.723   7.975 -0.1444  0.4606 -1.0450
   71CHL1   C24 7722   3.329   2.917   8.073 -0.3220  0.6118  0.2362
   71CHL1  H24A 7723   3.409   2.975   8.021 -1.1899  2.2192  0.6249
   71CHL1  H24B 7724   3.238   2.979   8.061 -1.2872 -1.0790 -1.8074
   71CHL1   C25 7725   3.354   2.885   8.222 -0.0745 -0.3495 -0.0299
   71CHL1   H25 7726   3.270   2.821   8.258  0.2276 -0.5555  0.3233
   71CHL1   C26 7727   3.479   2.803   8.253  0.0321 -0.3428 -0.0538
   71CHL1  H26A 7728   3.559   2.852   8.313  0.0519  0.2303 -0.5397
   71CHL1  H26B 7729   3.449   2.723   8.324  1.7935 -0.5105  0.5515
   71CHL1  H26C 7730   3.531   2.757   8.166  2.2830  1.7604  0.0518
   71CHL1   C27 7731   3.340   3.019   8.300  0.0428  0.0101  0.1463
   71CHL1  H27A 7732   3.425   3.086   8.272  0.1076 -0.4403 -0.7907
   71CHL1  H27B 7733   3.244   3.074   8.289  0.3882  0.8191  1.1005
   71CHL1  H27C 7734   3.350   2.996   8.408 -0.6927 -0.9370  0.0260
   72CHL1    C3 7735   3.338   1.383   7.079  0.7457 -0.2642 -0.0144
   72CHL1    H3 7736   3.255   1.455   7.094  0.8283  0.0625 -1.0046
   72CHL1    O3 7737   3.351   1.351   6.940  0.1801 -0.4793 -0.0658
   72CHL1   H3' 7738   3.401   1.269   6.941  2.7100  0.9412 -1.1692
   72CHL1    C4 7739   3.464   1.453   7.129 -0.2941  0.4689  0.5397
   72CHL1   H4A 7740   3.556   1.404   7.091  0.5587  2.3588  0.0648
   72CHL1   H4B 7741   3.460   1.552   7.078 -0.2556 -0.6540 -1.7737
   72CHL1    C5 7742   3.481   1.467   7.277  0.4418  0.4941 -0.0342
   72CHL1    C6 7743   3.505   1.580   7.339 -0.0301 -0.6826 -0.0383
   72CHL1    H6 7744   3.515   1.663   7.268  0.3677  0.3666  1.1988
   72CHL1    C7 7745   3.532   1.600   7.489 -0.0590  0.4661 -0.6403
   72CHL1   H7A 7746   3.632   1.647   7.499  0.3384  0.2523 -3.0423
   72CHL1   H7B 7747   3.461   1.673   7.533  0.7024  1.2826 -0.7281
   72CHL1    C8 7748   3.545   1.465   7.561  0.1595  0.1775 -0.0788
   72CHL1    H8 7749   3.647   1.425   7.541  0.3739  0.4963  0.3380
   72CHL1   C14 7750   3.531   1.495   7.707  0.0237 -0.5634  0.1631
   72CHL1   H14 7751   3.426   1.529   7.714 -0.0612 -0.6222 -0.6732
   72CHL1   C15 7752   3.607   1.613   7.773  0.4230 -0.2830  0.5774
   72CHL1  H15A 7753   3.714   1.598   7.748  0.4518 -2.0778  1.6030
   72CHL1  H15B 7754   3.569   1.713   7.741  1.5365 -0.3282 -1.0100
   72CHL1   C16 7755   3.581   1.584   7.926 -0.2550 -0.0345 -0.6057
   72CHL1  H16A 7756   3.679   1.574   7.978  1.5626 -0.8317 -3.8689
   72CHL1  H16B 7757   3.511   1.661   7.964  1.0710  0.3674  1.1323
   72CHL1   C17 7758   3.517   1.443   7.939 -0.0777 -0.0013  0.6037
   72CHL1   H17 7759   3.407   1.457   7.945  0.1203  2.2597 -0.1197
   72CHL1   C13 7760   3.541   1.376   7.797  0.1402 -0.3278  0.2795
   72CHL1   C18 7761   3.686   1.317   7.797 -0.6574 -0.3989  0.0333
   72CHL1  H18A 7762   3.694   1.218   7.847  0.8687  0.3165  1.2838
   72CHL1  H18B 7763   3.714   1.301   7.691 -0.5804  0.0229 -0.0127
   72CHL1  H18C 7764   3.757   1.386   7.847  0.3035 -1.5264  0.2813
   72CHL1   C12 7765   3.449   1.265   7.755  0.9678  0.1448 -0.6182
   72CHL1  H12A 7766   3.460   1.165   7.801 -3.1282 -0.2115 -0.0739
   72CHL1  H12B 7767   3.351   1.301   7.793  0.3335 -0.8480 -1.2605
   72CHL1   C11 7768   3.445   1.236   7.601  0.0801 -0.4052  0.2408
   72CHL1  H11A 7769   3.539   1.178   7.585 -0.3280 -1.1484  0.4579
   72CHL1  H11B 7770   3.365   1.160   7.586  0.2711 -0.3595 -1.1068
   72CHL1    C9 7771   3.442   1.362   7.512  0.0205 -0.5728  0.2716
   72CHL1    H9 7772   3.340   1.406   7.519  0.3114  0.9750 -3.0564
   72CHL1   C10 7773   3.465   1.339   7.352 -0.7155 -0.6190 -1.3113
   72CHL1   C19 7774   3.589   1.245   7.326 -0.1577  0.3849  0.0324
   72CHL1  H19A 7775   3.574   1.148   7.377  0.3446  0.4953  0.4050
   72CHL1  H19B 7776   3.601   1.222   7.218  1.0350  1.0054  0.0155
   72CHL1  H19C 7777   3.683   1.283   7.371 -0.2555  0.2641  0.3422
   72CHL1    C1 7778   3.336   1.264   7.304 -0.4097 -0.3132  0.1775
   72CHL1   H1A 7779   3.338   1.167   7.357  0.4288  0.3172  1.3446
   72CHL1   H1B 7780   3.243   1.321   7.325  0.0597  0.3595  0.4649
   72CHL1    C2 7781   3.327   1.251   7.151 -0.2172 -0.0999 -0.5339
   72CHL1   H2A 7782   3.229   1.202   7.130 -1.0534  0.7039  1.1895
   72CHL1   H2B 7783   3.406   1.181   7.118  0.1088 -0.5420  1.1026
   72CHL1   C20 7784   3.551   1.368   8.066 -0.3249 -0.5116  0.1526
   72CHL1   H20 7785   3.658   1.340   8.066  0.7801  3.2611 -0.2209
   72CHL1   C21 7786   3.471   1.235   8.080 -0.3712  0.6170  0.4196
   72CHL1  H21A 7787   3.361   1.234   8.068 -0.3856 -0.9094  0.5304
   72CHL1  H21B 7788   3.495   1.182   8.175 -1.6884 -0.2690  0.2830
   72CHL1  H21C 7789   3.506   1.164   8.002 -0.2109  0.2145  0.8499
   72CHL1   C22 7790   3.536   1.448   8.193 -0.4371 -0.4089 -0.3326
   72CHL1  H22A 7791   3.559   1.376   8.274  0.1598  1.2616  1.0528
   72CHL1  H22B 7792   3.608   1.533   8.197 -1.7400  0.6841  0.6048
   72CHL1   C23 7793   3.403   1.515   8.234 -0.4922  0.1898 -0.0072
   72CHL1  H23A 7794   3.398   1.606   8.171 -2.6510 -0.7596 -1.2919
   72CHL1  H23B 7795   3.316   1.448   8.216  0.9593 -1.9104  0.4134
   72CHL1   C24 7796   3.411   1.556   8.382  0.4535  0.4950  1.0514
   72CHL1  H24A 7797   3.440   1.467   8.443 -1.3338  1.1427  2.9626
   72CHL1  H24B 7798   3.486   1.638   8.384 -0.4687  1.3543  1.2048
   72CHL1   C25 7799   3.281   1.607   8.453  0.0305 -0.3210 -0.3506
   72CHL1   H25 7800   3.246   1.692   8.390 -1.1723 -0.3146  0.2857
   72CHL1   C26 7801   3.172   1.520   8.487  0.1098 -0.3577  0.7233
   72CHL1  H26A 7802   3.088   1.566   8.544 -0.7330 -1.2422  0.2207
   72CHL1  H26B 7803   3.131   1.467   8.399  1.8384 -0.0366 -0.3130
   72CHL1  H26C 7804   3.215   1.432   8.538 -0.7389 -2.1497 -1.4979
   72CHL1   C27 7805   3.329   1.686   8.585  0.3800  0.3397  0.3163
   72CHL1  H27A 7806   3.240   1.714   8.646 -1.9024 -4.2985 -0.4331
   72CHL1  H27B 7807   3.387   1.621   8.654 -2.8798 -2.2088  0.9385
   72CHL1  H27C 7808   3.386   1.779   8.563  0.2552  0.5212  0.7482
   73CHL1    C3 7809   2.488   3.900   6.949 -0.6880 -0.7813 -0.2011
   73CHL1    H3 7810   2.579   3.840   6.973 -0.6416 -0.3274  0.8130
   73CHL1    O3 7811   2.480   3.902   6.805 -0.1870  0.2893 -0.1936
   73CHL1   H3' 7812   2.491   3.811   6.776 -1.2426  0.8572 -2.6274
   73CHL1    C4 7813   2.363   3.837   6.999  0.4395 -0.1620 -0.5134
   73CHL1   H4A 7814   2.277   3.899   6.965  1.3400  1.3347 -0.1333
   73CHL1   H4B 7815   2.348   3.743   6.942  1.8804  0.6313 -2.2983
   73CHL1    C5 7816   2.347   3.831   7.150  0.9808  0.3456  0.8506
   73CHL1    C6 7817   2.313   3.723   7.222 -0.1426 -0.1058  0.2908
   73CHL1    H6 7818   2.293   3.627   7.171  0.3330 -1.0428  1.7743
   73CHL1    C7 7819   2.297   3.714   7.375  0.4392  0.1900 -0.4974
   73CHL1   H7A 7820   2.198   3.672   7.403  1.6649 -2.4192  0.1992
   73CHL1   H7B 7821   2.362   3.642   7.430 -1.2299 -1.2410 -0.3065
   73CHL1    C8 7822   2.303   3.851   7.440  0.2304 -0.0717 -0.6081
   73CHL1    H8 7823   2.201   3.892   7.432  0.3515  0.3365 -0.1038
   73CHL1   C14 7824   2.344   3.842   7.583  0.1840 -0.2269 -0.4927
   73CHL1   H14 7825   2.445   3.797   7.587  0.1937 -0.1167  1.9736
   73CHL1   C15 7826   2.262   3.745   7.675  0.1265  0.1670 -1.0998
   73CHL1  H15A 7827   2.153   3.763   7.669  0.5227  2.6862 -1.7738
   73CHL1  H15B 7828   2.278   3.635   7.665 -0.9772 -0.0392 -0.7841
   73CHL1   C16 7829   2.300   3.801   7.819  0.3738 -0.1141 -0.2304
   73CHL1  H16A 7830   2.202   3.798   7.872  0.1717 -1.2643 -0.6232
   73CHL1  H16B 7831   2.363   3.723   7.866  0.5875  1.0944  1.5824
   73CHL1   C17 7832   2.378   3.928   7.803 -0.3350  0.3191 -0.2203
   73CHL1   H17 7833   2.488   3.908   7.804 -0.6077 -1.4195  0.8093
   73CHL1   C13 7834   2.352   3.973   7.654  0.4594 -0.3894 -0.0067
   73CHL1   C18 7835   2.208   4.037   7.652  0.4749 -0.4514 -0.1754
   73CHL1  H18A 7836   2.142   3.977   7.718  2.2726  0.7104  2.8563
   73CHL1  H18B 7837   2.218   4.145   7.677  0.1705 -0.2546 -0.8837
   73CHL1  H18C 7838   2.164   4.051   7.551 -0.4088  4.0454  0.6437
   73CHL1   C12 7839   2.454   4.061   7.585 -0.1365  0.2468  0.2422
   73CHL1  H12A 7840   2.468   4.159   7.636 -0.7236  0.5980 -0.2661
   73CHL1  H12B 7841   2.555   4.013   7.586 -0.2106  0.0868  0.0637
   73CHL1   C11 7842   2.435   4.081   7.442  0.1318 -0.3831 -0.0791
   73CHL1  H11A 7843   2.354   4.155   7.422  1.2542  1.1745  0.9210
   73CHL1  H11B 7844   2.526   4.125   7.395 -0.8402  1.8151 -0.0432
   73CHL1    C9 7845   2.406   3.943   7.365  0.6180  0.4209  0.2209
   73CHL1    H9 7846   2.505   3.895   7.377  0.0566 -0.4733  1.7309
   73CHL1   C10 7847   2.379   3.968   7.216 -0.7468  0.6680 -0.5575
   73CHL1   C19 7848   2.249   4.046   7.206  0.3695 -0.2164  0.4434
   73CHL1  H19A 7849   2.209   4.057   7.103  1.2019  3.1383  0.3681
   73CHL1  H19B 7850   2.163   4.003   7.261 -0.7254 -0.4351 -1.3500
   73CHL1  H19C 7851   2.261   4.151   7.241  2.0733  0.3408 -1.5668
   73CHL1    C1 7852   2.495   4.053   7.148  0.0217 -0.2572  0.0003
   73CHL1   H1A 7853   2.503   4.159   7.181  1.5945 -0.2804 -0.2089
   73CHL1   H1B 7854   2.587   4.004   7.188 -0.9488 -0.0364  2.6858
   73CHL1    C2 7855   2.496   4.040   6.995 -0.2127 -0.1993  0.4660
   73CHL1   H2A 7856   2.590   4.081   6.951 -0.7811 -0.3400 -0.9286
   73CHL1   H2B 7857   2.416   4.104   6.954 -0.3512 -0.5593  0.1711
   73CHL1   C20 7858   2.338   4.018   7.928 -0.6810  0.0598  0.8030
   73CHL1   H20 7859   2.227   4.024   7.929 -0.6381  1.1967  1.7130
   73CHL1   C21 7860   2.398   4.151   7.893 -0.0708 -0.3755 -0.3979
   73CHL1  H21A 7861   2.389   4.219   7.981 -0.9498  1.7932 -2.0751
   73CHL1  H21B 7862   2.343   4.203   7.811  0.4197  0.3816 -0.2571
   73CHL1  H21C 7863   2.507   4.137   7.876  0.3672  3.0516 -1.2143
   73CHL1   C22 7864   2.380   3.970   8.069 -0.2199 -0.0065  0.8983
   73CHL1  H22A 7865   2.363   3.861   8.086  0.0303  0.0298  1.3838
   73CHL1  H22B 7866   2.486   3.996   8.090  0.4896 -3.1683  1.8516
   73CHL1   C23 7867   2.304   4.038   8.178  0.4054 -0.0740 -0.1241
   73CHL1  H23A 7868   2.331   4.146   8.168  0.5626 -0.0146  0.8738
   73CHL1  H23B 7869   2.195   4.024   8.161  0.6626 -2.1708 -0.3209
   73CHL1   C24 7870   2.346   3.980   8.316 -0.4146  0.1669  0.0779
   73CHL1  H24A 7871   2.353   3.870   8.303 -0.3108  0.0913  0.7620
   73CHL1  H24B 7872   2.441   4.035   8.330  1.4134 -2.7042 -0.2314
   73CHL1   C25 7873   2.260   4.011   8.435  0.6942  0.1795  0.0263
   73CHL1   H25 7874   2.237   4.120   8.434  1.1998  0.2863 -0.2360
   73CHL1   C26 7875   2.122   3.947   8.429  0.0055 -0.1212 -0.1138
   73CHL1  H26A 7876   2.063   3.970   8.521 -1.5976 -0.6940 -0.9592
   73CHL1  H26B 7877   2.050   3.969   8.348 -2.3324  0.3274  1.9719
   73CHL1  H26C 7878   2.146   3.839   8.433  0.7136 -0.0749 -2.0292
   73CHL1   C27 7879   2.341   3.969   8.562  0.3452 -0.4069 -0.0713
   73CHL1  H27A 7880   2.289   4.021   8.646 -0.4934 -1.1852 -0.0924
   73CHL1  H27B 7881   2.337   3.859   8.578 -0.1446 -0.4775 -0.6521
   73CHL1  H27C 7882   2.446   4.006   8.558  0.8374 -1.6232  1.0191
   74CHL1    C3 7883   2.503   2.288   6.731  0.9114  0.2943 -0.6851
   74CHL1    H3 7884   2.420   2.358   6.751 -0.2872 -1.4163  0.6402
   74CHL1    O3 7885   2.524   2.268   6.594 -0.0770  0.2561  0.0044
   74CHL1   H3' 7886   2.613   2.232   6.606 -0.1032  0.5772  1.3588
   74CHL1    C4 7887   2.631   2.356   6.781 -0.4465 -0.5939  0.2084
   74CHL1   H4A 7888   2.723   2.312   6.738 -0.3044 -1.5649  1.4435
   74CHL1   H4B 7889   2.622   2.461   6.745  0.8746 -0.3186  0.6285
   74CHL1    C5 7890   2.636   2.349   6.934 -0.1865 -0.9298  0.9416
   74CHL1    C6 7891   2.660   2.462   7.005  0.2534 -0.1182  0.1874
   74CHL1    H6 7892   2.662   2.559   6.954  0.6273  1.6308  3.2564
   74CHL1    C7 7893   2.665   2.460   7.154  0.2559 -0.0101  0.0962
   74CHL1   H7A 7894   2.736   2.532   7.200  0.4867 -0.0131 -0.2505
   74CHL1   H7B 7895   2.564   2.478   7.196  0.3801 -1.4298  1.0565
   74CHL1    C8 7896   2.702   2.325   7.210 -0.2100  0.1155 -0.6680
   74CHL1    H8 7897   2.809   2.306   7.186 -0.3332 -0.6492 -0.6373
   74CHL1   C14 7898   2.686   2.318   7.358  0.0426 -1.0159 -0.6106
   74CHL1   H14 7899   2.578   2.324   7.381  0.4568 -0.8877  1.5044
   74CHL1   C15 7900   2.742   2.438   7.444 -0.1173 -0.0326 -0.6403
   74CHL1  H15A 7901   2.834   2.482   7.398 -0.8018  3.4689  1.0099
   74CHL1  H15B 7902   2.666   2.519   7.442  0.1505  0.2173 -1.8297
   74CHL1   C16 7903   2.765   2.379   7.580  0.1215 -0.5052 -0.5216
   74CHL1  H16A 7904   2.872   2.391   7.604 -0.3330  1.7359  0.6163
   74CHL1  H16B 7905   2.714   2.437   7.660  0.4319  0.5883 -1.0962
   74CHL1   C17 7906   2.723   2.229   7.577 -0.0595 -0.1401  0.1232
   74CHL1   H17 7907   2.617   2.218   7.610 -0.1172 -0.7979 -0.2495
   74CHL1   C13 7908   2.730   2.188   7.426 -0.7092  0.0093 -0.4377
   74CHL1   C18 7909   2.873   2.156   7.401 -0.1874  0.0309  0.0795
   74CHL1  H18A 7910   2.951   2.225   7.440 -1.5460  1.5107  0.2892
   74CHL1  H18B 7911   2.890   2.054   7.444 -1.3224 -0.4326 -0.5244
   74CHL1  H18C 7912   2.890   2.155   7.291 -0.0281 -0.0817  0.1050
   74CHL1   C12 7913   2.637   2.067   7.373 -0.3953 -0.6435 -0.0514
   74CHL1  H12A 7914   2.674   1.970   7.413  1.7316  0.8236  1.8461
   74CHL1  H12B 7915   2.531   2.080   7.403  0.2968  0.5852  2.1078
   74CHL1   C11 7916   2.643   2.074   7.213 -0.6339 -0.5414  0.4359
   74CHL1  H11A 7917   2.737   2.024   7.183 -0.4491 -0.3726  0.7248
   74CHL1  H11B 7918   2.566   1.999   7.184 -1.2071 -0.3557  1.4281
   74CHL1    C9 7919   2.610   2.207   7.143 -0.5003 -0.3762  0.8721
   74CHL1    H9 7920   2.510   2.238   7.179  0.0375 -1.3917  3.4343
   74CHL1   C10 7921   2.616   2.213   6.992 -0.4523 -0.4859 -0.3712
   74CHL1   C19 7922   2.740   2.131   6.939  0.7159  0.3221 -0.0210
   74CHL1  H19A 7923   2.751   2.151   6.831  0.7684  0.1744 -0.0430
   74CHL1  H19B 7924   2.828   2.169   6.995  0.5369  1.7694 -0.6653
   74CHL1  H19C 7925   2.736   2.023   6.965  3.0554  0.1214 -0.2464
   74CHL1    C1 7926   2.487   2.147   6.940 -0.1755  0.0737  0.2951
   74CHL1   H1A 7927   2.488   2.045   6.983  1.9629 -1.1088 -2.2493
   74CHL1   H1B 7928   2.399   2.193   6.988 -1.4909 -1.9279 -0.0960
   74CHL1    C2 7929   2.473   2.142   6.790  0.7414 -0.3181  0.1390
   74CHL1   H2A 7930   2.374   2.123   6.743  1.6247  0.1657 -2.0215
   74CHL1   H2B 7931   2.554   2.078   6.748 -0.1621 -0.8196 -0.9060
   74CHL1   C20 7932   2.780   2.146   7.694 -0.2930  0.1655 -0.5577
   74CHL1   H20 7933   2.891   2.143   7.688 -0.2144  1.2549  0.0972
   74CHL1   C21 7934   2.728   2.008   7.691  0.1078  0.4588 -0.0440
   74CHL1  H21A 7935   2.785   1.950   7.614  3.5987 -0.6766  3.0802
   74CHL1  H21B 7936   2.619   1.998   7.675  0.6076 -2.6714 -2.9332
   74CHL1  H21C 7937   2.761   1.956   7.783  2.0218 -0.0358 -0.9456
   74CHL1   C22 7938   2.754   2.221   7.834  0.5550 -0.2000 -0.1827
   74CHL1  H22A 7939   2.807   2.319   7.823 -0.0252  0.1786  0.3290
   74CHL1  H22B 7940   2.644   2.237   7.831  0.4129 -0.9335  0.8794
   74CHL1   C23 7941   2.805   2.142   7.957 -0.4376 -0.4960 -0.6295
   74CHL1  H23A 7942   2.755   2.043   7.968 -2.4867  0.5648  0.0854
   74CHL1  H23B 7943   2.915   2.123   7.959 -0.7048 -2.4315 -1.7168
   74CHL1   C24 7944   2.776   2.225   8.086  0.9671 -0.0014  0.4314
   74CHL1  H24A 7945   2.788   2.148   8.166 -0.6534 -1.7238 -0.8721
   74CHL1  H24B 7946   2.851   2.305   8.102 -0.0590  1.0592  0.0679
   74CHL1   C25 7947   2.635   2.292   8.099 -0.2686 -0.4904 -0.5478
   74CHL1   H25 7948   2.613   2.367   8.020 -0.7221 -0.3313 -0.2783
   74CHL1   C26 7949   2.518   2.188   8.088  0.1584  0.3509  0.2430
   74CHL1  H26A 7950   2.422   2.243   8.103 -0.9886 -1.2534 -0.8350
   74CHL1  H26B 7951   2.520   2.145   7.986 -0.1707  0.4460  0.1957
   74CHL1  H26C 7952   2.532   2.109   8.164  0.9983 -0.6694 -0.9354
   74CHL1   C27 7953   2.628   2.363   8.237 -0.2872 -0.6287  0.1813
   74CHL1  H27A 7954   2.609   2.294   8.323 -1.5717 -0.5268 -0.0102
   74CHL1  H27B 7955   2.721   2.421   8.255 -0.1418 -0.7572 -0.1644
   74CHL1  H27C 7956   2.537   2.426   8.241 -0.8547 -1.3025 -1.4421
   75CHL1    C3 7957   4.668   4.425   6.644  0.3785  0.1237  0.0828
   75CHL1    H3 7958   4.675   4.520   6.701  0.5553  0.1931 -0.0559
   75CHL1    O3 7959   4.701   4.453   6.507  0.3896 -0.1502  0.3426
   75CHL1   H3' 7960   4.715   4.366   6.470  1.3335 -0.3180  1.0503
   75CHL1    C4 7961   4.773   4.327   6.693 -0.0551  0.2898 -0.7988
   75CHL1   H4A 7962   4.786   4.237   6.629  0.8548 -2.3433  2.7815
   75CHL1   H4B 7963   4.870   4.375   6.669  0.1727  0.3980  0.3076
   75CHL1    C5 7964   4.759   4.299   6.843 -0.0974 -0.3478 -0.6959
   75CHL1    C6 7965   4.852   4.322   6.929 -0.7429  0.6442  0.2963
   75CHL1    H6 7966   4.949   4.371   6.909 -1.0325  2.4740  2.9349
   75CHL1    C7 7967   4.839   4.289   7.071  0.2247 -0.5467 -0.8061
   75CHL1   H7A 7968   4.930   4.247   7.118 -1.4826 -2.6728  0.7763
   75CHL1   H7B 7969   4.824   4.383   7.128  1.3228 -0.5480 -0.4808
   75CHL1    C8 7970   4.716   4.204   7.107  0.0977  0.2113  0.7498
   75CHL1    H8 7971   4.747   4.100   7.083  1.0968  0.2112  1.8974
   75CHL1   C14 7972   4.682   4.227   7.258 -0.4922 -0.4519 -0.3980
   75CHL1   H14 7973   4.661   4.334   7.279 -1.2106 -0.9435  1.7376
   75CHL1   C15 7974   4.798   4.211   7.361  0.0401  0.2407  0.4602
   75CHL1  H15A 7975   4.852   4.129   7.309 -3.0527  0.8288 -4.2807
   75CHL1  H15B 7976   4.860   4.303   7.369  0.2882  0.1302 -0.2080
   75CHL1   C16 7977   4.728   4.180   7.498 -0.3634 -0.0272  0.2711
   75CHL1  H16A 7978   4.760   4.083   7.541 -0.2400  1.1235  2.9891
   75CHL1  H16B 7979   4.742   4.259   7.575  0.0506  0.1828 -0.0143
   75CHL1   C17 7980   4.575   4.185   7.467  0.0246  0.2465  0.0911
   75CHL1   H17 7981   4.549   4.293   7.474  1.4555  0.5344  1.5236
   75CHL1   C13 7982   4.566   4.144   7.313  0.8822  0.3392 -0.2205
   75CHL1   C18 7983   4.601   3.995   7.290  0.0344 -0.2510 -0.6054
   75CHL1  H18A 7984   4.629   3.969   7.186  2.0135 -0.0549 -0.1499
   75CHL1  H18B 7985   4.677   3.958   7.362  1.7474  3.0075 -0.5917
   75CHL1  H18C 7986   4.511   3.933   7.311 -0.2588 -0.2556 -1.7901
   75CHL1   C12 7987   4.445   4.193   7.234  0.0250 -0.0676 -0.8182
   75CHL1  H12A 7988   4.353   4.140   7.265  1.3643 -2.1132 -0.0832
   75CHL1  H12B 7989   4.442   4.304   7.241  0.4383 -0.0993  0.0846
   75CHL1   C11 7990   4.461   4.183   7.078  0.0328  0.5582 -0.3465
   75CHL1  H11A 7991   4.460   4.076   7.048 -0.4386  0.2591  0.7072
   75CHL1  H11B 7992   4.376   4.230   7.023  1.7235  2.2245 -1.6698
   75CHL1    C9 7993   4.589   4.254   7.030 -0.4052  0.3947 -0.6096
   75CHL1    H9 7994   4.588   4.358   7.067 -0.7126  0.2789 -0.2933
   75CHL1   C10 7995   4.619   4.255   6.878  0.3513  0.7801  0.0967
   75CHL1   C19 7996   4.600   4.110   6.822  0.4473  0.5107  1.0925
   75CHL1  H19A 7997   4.498   4.070   6.838  0.3734  0.0473 -0.4119
   75CHL1  H19B 7998   4.624   4.092   6.715 -2.3113 -2.6982  0.8489
   75CHL1  H19C 7999   4.676   4.048   6.875  0.6750 -0.1025  0.0696
   75CHL1    C1 8000   4.510   4.353   6.816  0.6403  0.8098  0.4736
   75CHL1   H1A 8001   4.410   4.314   6.842  0.1704  1.5983 -0.0849
   75CHL1   H1B 8002   4.503   4.454   6.862  0.3806  0.9945  0.0356
   75CHL1    C2 8003   4.524   4.372   6.663 -0.3538  0.0791 -0.3032
   75CHL1   H2A 8004   4.458   4.452   6.624  0.9517  1.9102  1.0532
   75CHL1   H2B 8005   4.515   4.276   6.608 -0.0722  0.6324 -1.3479
   75CHL1   C20 8006   4.483   4.119   7.567 -0.2284 -0.4697 -0.2215
   75CHL1   H20 8007   4.466   4.012   7.539 -0.9147  0.0030 -1.7102
   75CHL1   C21 8008   4.347   4.189   7.570  0.1244 -0.1046 -0.2296
   75CHL1  H21A 8009   4.300   4.197   7.470 -4.2900  1.1675  1.6840
   75CHL1  H21B 8010   4.362   4.288   7.620  1.5191 -1.1809  1.6232
   75CHL1  H21C 8011   4.277   4.142   7.642  0.4755 -1.8957 -1.0241
   75CHL1   C22 8012   4.541   4.123   7.710 -0.0558 -0.0852 -0.0189
   75CHL1  H22A 8013   4.636   4.065   7.715  1.7362  2.6597  4.1993
   75CHL1  H22B 8014   4.554   4.228   7.744 -1.0780  0.9636 -2.6571
   75CHL1   C23 8015   4.447   4.052   7.819  0.6290  0.1317  0.1763
   75CHL1  H23A 8016   4.350   4.102   7.840  0.7141 -0.8437  3.3371
   75CHL1  H23B 8017   4.413   3.962   7.764 -0.5703 -0.0509  1.1637
   75CHL1   C24 8018   4.508   4.018   7.955 -0.3757 -0.2471 -1.1369
   75CHL1  H24A 8019   4.426   3.978   8.019  1.1190  0.8299  1.6621
   75CHL1  H24B 8020   4.571   3.928   7.937 -0.9187 -0.7104 -0.7805
   75CHL1   C25 8021   4.558   4.143   8.039  0.6828 -0.6154 -0.4519
   75CHL1   H25 8022   4.481   4.222   8.023  1.9172  0.6026 -0.5497
   75CHL1   C26 8023   4.555   4.115   8.186  0.2487 -0.3055  0.2339
   75CHL1  H26A 8024   4.449   4.094   8.215 -0.3891  2.2102 -0.0496
   75CHL1  H26B 8025   4.605   4.018   8.208 -1.6800 -1.5513 -0.5648
   75CHL1  H26C 8026   4.588   4.203   8.244 -0.2476 -0.0854  0.1872
   75CHL1   C27 8027   4.700   4.193   8.001  0.2774 -0.3904 -0.7044
   75CHL1  H27A 8028   4.746   4.275   8.061  1.3216  0.1085 -2.1261
   75CHL1  H27B 8029   4.772   4.109   8.012  0.7435  0.2820  2.4480
   75CHL1  H27C 8030   4.704   4.228   7.896  2.9385 -1.1133 -0.9107
   76CHL1    C3 8031   1.779   5.471   7.375 -0.3928  0.2948 -0.0902
   76CHL1    H3 8032   1.809   5.577   7.387  1.5517 -0.2358  0.1297
   76CHL1    O3 8033   1.765   5.454   7.229 -0.1445 -0.2611 -0.4811
   76CHL1   H3' 8034   1.741   5.362   7.218 -1.6330 -0.4578  3.0396
   76CHL1    C4 8035   1.911   5.404   7.410 -0.7231  1.2437 -0.0624
   76CHL1   H4A 8036   1.911   5.297   7.380  2.4810  1.8099 -2.6367
   76CHL1   H4B 8037   1.992   5.435   7.342 -1.0408 -2.5168 -2.4551
   76CHL1    C5 8038   1.938   5.407   7.557 -0.3301 -0.3131  0.4180
   76CHL1    C6 8039   2.057   5.444   7.608  0.2637 -0.7701  0.4472
   76CHL1    H6 8040   2.137   5.476   7.539 -0.0845 -2.6510 -0.8991
   76CHL1    C7 8041   2.086   5.439   7.755 -0.1339 -0.2068  0.0786
   76CHL1   H7A 8042   2.185   5.392   7.773 -1.1572 -2.1606  0.8975
   76CHL1   H7B 8043   2.068   5.541   7.794  0.1722  0.4948 -1.5590
   76CHL1    C8 8044   1.983   5.360   7.844 -0.4430  0.8037  0.3942
   76CHL1    H8 8045   2.005   5.251   7.840 -0.7283  0.7196  1.0196
   76CHL1   C14 8046   1.995   5.410   7.988  0.4230 -0.3228  0.4714
   76CHL1   H14 8047   1.955   5.514   7.991 -0.9728 -0.8502  0.9394
   76CHL1   C15 8048   2.135   5.424   8.048 -0.4513 -0.0632 -0.5844
   76CHL1  H15A 8049   2.183   5.324   8.043 -0.1028 -0.2879  3.6478
   76CHL1  H15B 8050   2.208   5.499   8.012 -0.7112  0.8705  0.7562
   76CHL1   C16 8051   2.099   5.435   8.199  0.6329 -0.3865 -0.3035
   76CHL1  H16A 8052   2.162   5.367   8.259 -0.2844 -1.6437 -0.7188
   76CHL1  H16B 8053   2.109   5.541   8.232  0.6257  0.2405 -2.1792
   76CHL1   C17 8054   1.947   5.401   8.213 -0.2016  0.1611  0.1906
   76CHL1   H17 8055   1.889   5.495   8.214 -0.6262 -0.0998  0.5106
   76CHL1   C13 8056   1.900   5.333   8.078  0.3488 -0.6747  0.4590
   76CHL1   C18 8057   1.935   5.181   8.090  0.2624 -0.0331  0.5436
   76CHL1  H18A 8058   1.872   5.123   8.160 -1.2103 -1.7418 -2.0141
   76CHL1  H18B 8059   1.913   5.143   7.988 -0.9538  1.9062  0.0281
   76CHL1  H18C 8060   2.046   5.174   8.100  0.4419  0.8162 -0.5831
   76CHL1   C12 8061   1.753   5.361   8.035 -0.2090 -0.3605  0.5737
   76CHL1  H12A 8062   1.678   5.303   8.092 -2.6905  0.8180 -1.2729
   76CHL1  H12B 8063   1.735   5.471   8.038 -1.3991 -0.4275 -1.7287
   76CHL1   C11 8064   1.733   5.319   7.886  0.2611 -0.1145  0.1547
   76CHL1  H11A 8065   1.753   5.210   7.894  0.5652 -0.0313  0.6122
   76CHL1  H11B 8066   1.629   5.348   7.862  0.3302 -0.6249 -0.7815
   76CHL1    C9 8067   1.841   5.386   7.792  0.1686  0.4776 -0.4309
   76CHL1    H9 8068   1.833   5.497   7.797  1.6038  0.6150 -0.6659
   76CHL1   C10 8069   1.818   5.357   7.643  0.2315  0.8941 -0.2943
   76CHL1   C19 8070   1.804   5.201   7.624 -0.3262  0.0177 -0.7531
   76CHL1  H19A 8071   1.798   5.168   7.518 -0.9559  0.8765 -0.9950
   76CHL1  H19B 8072   1.891   5.155   7.676 -1.2810  2.0791  3.0670
   76CHL1  H19C 8073   1.717   5.157   7.679  0.4921 -1.7102 -0.7532
   76CHL1    C1 8074   1.682   5.422   7.595 -0.0265  0.0043  0.5268
   76CHL1   H1A 8075   1.596   5.361   7.630 -1.9611  1.7982 -0.8581
   76CHL1   H1B 8076   1.663   5.524   7.634 -0.1654  1.1286 -2.2655
   76CHL1    C2 8077   1.660   5.422   7.442 -0.0266 -0.2689 -0.0790
   76CHL1   H2A 8078   1.575   5.487   7.409  0.9037  0.7159 -0.5957
   76CHL1   H2B 8079   1.642   5.319   7.404 -0.5967 -0.1121 -0.2354
   76CHL1   C20 8080   1.916   5.332   8.342 -0.1225 -0.6379  0.1419
   76CHL1   H20 8081   1.957   5.228   8.343 -1.5172 -1.2050 -0.1186
   76CHL1   C21 8082   1.766   5.312   8.353 -0.2273  0.4151  0.3566
   76CHL1  H21A 8083   1.736   5.241   8.273 -2.3753  1.5618  0.0715
   76CHL1  H21B 8084   1.724   5.410   8.321  0.1694 -0.3665 -2.8491
   76CHL1  H21C 8085   1.731   5.276   8.452 -0.0581 -0.3449  0.1491
   76CHL1   C22 8086   1.959   5.406   8.479  0.7823 -0.6939  0.0379
   76CHL1  H22A 8087   2.053   5.464   8.466  0.3932  0.5092  2.1603
   76CHL1  H22B 8088   1.875   5.475   8.503  0.2148 -1.3948  0.0965
   76CHL1   C23 8089   1.981   5.309   8.590  0.1459 -0.4815 -0.4965
   76CHL1  H23A 8090   1.888   5.250   8.607 -0.3176  0.9084  2.4408
   76CHL1  H23B 8091   2.075   5.251   8.575  1.5267  1.2608  0.9053
   76CHL1   C24 8092   2.013   5.371   8.732  0.2486  0.7107 -0.1206
   76CHL1  H24A 8093   2.102   5.436   8.725  0.5271  0.5392  1.4706
   76CHL1  H24B 8094   1.930   5.441   8.754  0.3542  0.9111 -0.3554
   76CHL1   C25 8095   2.036   5.261   8.843  0.1050 -0.0805  0.6635
   76CHL1   H25 8096   2.082   5.166   8.809  0.2543 -0.1289  0.9963
   76CHL1   C26 8097   2.131   5.328   8.948 -0.2596  0.9277 -0.0180
   76CHL1  H26A 8098   2.074   5.405   9.003 -0.3777  2.2803 -1.9432
   76CHL1  H26B 8099   2.159   5.253   9.025  0.8273  1.2851 -0.0471
   76CHL1  H26C 8100   2.229   5.360   8.905 -0.0608 -2.1714 -2.2246
   76CHL1   C27 8101   1.905   5.218   8.917  0.3748 -1.0557 -0.7767
   76CHL1  H27A 8102   1.922   5.132   8.985  0.0098 -0.4320  0.1111
   76CHL1  H27B 8103   1.881   5.302   8.985  0.5751  0.4266 -2.4470
   76CHL1  H27C 8104   1.820   5.211   8.845 -0.8369  1.1308  0.3352
   77CHL1    C3 8105   1.536   4.137   6.984  0.4431  0.0535 -0.5727
   77CHL1    H3 8106   1.545   4.026   6.992  0.7050 -0.0610 -2.1292
   77CHL1    O3 8107   1.546   4.168   6.848  0.3355  0.2425  0.4131
   77CHL1   H3' 8108   1.501   4.251   6.830  0.3774 -0.1848 -2.0763
   77CHL1    C4 8109   1.395   4.179   7.034  0.5628 -0.7744  0.2082
   77CHL1   H4A 8110   1.385   4.289   7.021  0.8354 -0.3798  2.8416
   77CHL1   H4B 8111   1.324   4.127   6.966 -0.9187 -2.2616  2.7304
   77CHL1    C5 8112   1.383   4.134   7.175  0.1175  0.0593  0.3709
   77CHL1    C6 8113   1.291   4.044   7.215 -0.9737  0.5634  0.6836
   77CHL1    H6 8114   1.226   3.994   7.141  1.5349  0.1248 -1.3849
   77CHL1    C7 8115   1.264   4.015   7.360 -0.2875  0.5967  0.0778
   77CHL1   H7A 8116   1.153   4.011   7.364 -0.8170  3.7330 -3.8743
   77CHL1   H7B 8117   1.300   3.912   7.377  0.5785  0.9740  0.5978
   77CHL1    C8 8118   1.327   4.124   7.449 -0.1664 -0.0789  0.4703
   77CHL1    H8 8119   1.262   4.213   7.434 -0.5207 -0.3844  0.1609
   77CHL1   C14 8120   1.330   4.077   7.591 -0.6528 -0.3509 -0.2265
   77CHL1   H14 8121   1.391   3.985   7.594 -0.8810 -0.4920  0.2182
   77CHL1   C15 8122   1.195   4.025   7.651  0.1663  0.3945  0.8768
   77CHL1  H15A 8123   1.108   4.090   7.628  0.3193  1.0242  1.9894
   77CHL1  H15B 8124   1.172   3.921   7.622 -3.0969  0.8978  1.3572
   77CHL1   C16 8125   1.220   4.023   7.803 -0.1956  0.5331 -0.0728
   77CHL1  H16A 8126   1.140   4.079   7.855  2.4621  2.1349  2.6470
   77CHL1  H16B 8127   1.215   3.922   7.848 -0.3078  0.9378  0.8314
   77CHL1   C17 8128   1.352   4.107   7.829  0.2284  0.1540 -0.9319
   77CHL1   H17 8129   1.435   4.035   7.847  0.0186 -0.0137 -0.6340
   77CHL1   C13 8130   1.383   4.176   7.695 -0.3107  0.0058 -0.0660
   77CHL1   C18 8131   1.320   4.310   7.693 -0.2439 -0.5030  0.2426
   77CHL1  H18A 8132   1.209   4.300   7.691 -0.0494 -3.7334 -0.3546
   77CHL1  H18B 8133   1.358   4.379   7.771 -1.9571 -0.1926  0.8336
   77CHL1  H18C 8134   1.343   4.364   7.598 -2.4198 -0.7353 -0.4700
   77CHL1   C12 8135   1.538   4.197   7.659 -0.4301 -0.3492 -1.0204
   77CHL1  H12A 8136   1.601   4.260   7.726  0.1372 -0.3487 -1.5478
   77CHL1  H12B 8137   1.575   4.093   7.662  1.0257  0.1671  0.9394
   77CHL1   C11 8138   1.556   4.240   7.515  0.4931  0.5311  0.0296
   77CHL1  H11A 8139   1.529   4.347   7.515  1.7950  0.8784  0.1986
   77CHL1  H11B 8140   1.664   4.242   7.486  0.5619  1.1113  0.3280
   77CHL1    C9 8141   1.473   4.156   7.410 -0.8237 -0.0953  0.0957
   77CHL1    H9 8142   1.533   4.062   7.413 -1.1576 -0.3129  0.1092
   77CHL1   C10 8143   1.476   4.208   7.263 -0.8639  0.2977 -0.8296
   77CHL1   C19 8144   1.453   4.368   7.272 -0.5514  0.7398  0.4248
   77CHL1  H19A 8145   1.354   4.406   7.307 -0.3549  0.8733  0.8538
   77CHL1  H19B 8146   1.529   4.417   7.337  2.4868 -2.2914 -0.5341
   77CHL1  H19C 8147   1.468   4.408   7.170 -0.9768 -1.0467 -0.3668
   77CHL1    C1 8148   1.620   4.178   7.211 -0.0374 -0.2939 -0.7841
   77CHL1   H1A 8149   1.699   4.236   7.263 -1.1274  0.3840  0.1471
   77CHL1   H1B 8150   1.633   4.070   7.235 -1.7760 -0.2243  0.6474
   77CHL1    C2 8151   1.648   4.206   7.062  0.1535 -0.5945  0.1729
   77CHL1   H2A 8152   1.748   4.169   7.033 -0.3055 -0.1811 -2.0972
   77CHL1   H2B 8153   1.657   4.315   7.040  1.2318 -0.8652 -0.8054
   77CHL1   C20 8154   1.338   4.200   7.955  0.2122  0.2188  0.3297
   77CHL1   H20 8155   1.263   4.280   7.937 -0.7723 -0.8150 -0.3283
   77CHL1   C21 8156   1.470   4.273   7.983 -0.1783 -1.1794  0.4004
   77CHL1  H21A 8157   1.552   4.199   7.990  1.2108  0.0279 -2.0375
   77CHL1  H21B 8158   1.458   4.321   8.083 -0.1417 -4.4864  2.1357
   77CHL1  H21C 8159   1.496   4.347   7.904  1.1779 -0.9877  0.9984
   77CHL1   C22 8160   1.306   4.105   8.077  0.0005 -0.2766 -0.5768
   77CHL1  H22A 8161   1.222   4.039   8.045  0.0519 -1.3454  1.3578
   77CHL1  H22B 8162   1.401   4.046   8.079  0.5188  0.3554 -2.8455
   77CHL1   C23 8163   1.280   4.181   8.208 -0.4232 -0.2834 -0.0095
   77CHL1  H23A 8164   1.376   4.224   8.242  0.8264 -2.0443 -1.1010
   77CHL1  H23B 8165   1.211   4.266   8.192  2.2343  2.2910  1.3795
   77CHL1   C24 8166   1.231   4.088   8.329 -0.0775  0.2698  0.4014
   77CHL1  H24A 8167   1.139   4.040   8.289 -0.8106  2.1098 -0.2214
   77CHL1  H24B 8168   1.307   4.007   8.338 -0.0007 -0.0159 -2.0562
   77CHL1   C25 8169   1.206   4.168   8.453 -1.0387 -0.3841 -0.2171
   77CHL1   H25 8170   1.163   4.265   8.421 -1.4803 -0.4754  0.0901
   77CHL1   C26 8171   1.098   4.099   8.538 -0.6938  0.3023 -0.5833
   77CHL1  H26A 8172   1.141   3.999   8.559 -0.3067 -0.4727 -4.3895
   77CHL1  H26B 8173   1.070   4.163   8.624 -0.5125 -0.1464 -0.1871
   77CHL1  H26C 8174   1.009   4.083   8.474 -0.8748 -0.1537 -0.2259
   77CHL1   C27 8175   1.340   4.184   8.531  0.2698 -0.2942  0.1712
   77CHL1  H27A 8176   1.409   4.242   8.466  0.8261  0.0480  1.0556
   77CHL1  H27B 8177   1.319   4.249   8.618 -2.5010 -0.8498  0.0112
   77CHL1  H27C 8178   1.368   4.086   8.575 -2.2670 -0.9478  0.4598
   78CHL1    C3 8179   4.166   6.506   6.733 -0.2384  0.4858 -0.5976
   78CHL1    H3 8180   4.056   6.515   6.747 -0.1214  0.1853  0.5680
   78CHL1    O3 8181   4.185   6.536   6.595 -0.4130  0.1020  0.0869
   78CHL1   H3' 8182   4.281   6.537   6.587 -0.4546 -1.9389 -1.4497
   78CHL1    C4 8183   4.253   6.606   6.822  0.0543 -0.3344  0.1871
   78CHL1   H4A 8184   4.356   6.574   6.797  0.2859  0.1501  0.4925
   78CHL1   H4B 8185   4.246   6.715   6.799  0.8935 -0.2764  0.1646
   78CHL1    C5 8186   4.234   6.576   6.969 -0.2801  0.8069 -0.0797
   78CHL1    C6 8187   4.184   6.668   7.056  0.1251  0.2756 -0.1665
   78CHL1    H6 8188   4.159   6.771   7.025 -2.0514  0.4253  1.7556
   78CHL1    C7 8189   4.176   6.655   7.207 -0.1372 -1.0079  0.2878
   78CHL1   H7A 8190   4.212   6.745   7.261  3.2148 -0.3308 -2.6688
   78CHL1   H7B 8191   4.067   6.654   7.227 -0.2045  2.1963  0.5053
   78CHL1    C8 8192   4.238   6.526   7.261 -0.6171  0.0139 -0.1323
   78CHL1    H8 8193   4.347   6.542   7.269 -0.2163 -0.8089 -2.8414
   78CHL1   C14 8194   4.174   6.487   7.396  0.5346 -0.4058  0.2943
   78CHL1   H14 8195   4.065   6.480   7.375  0.6219  1.5758 -1.1091
   78CHL1   C15 8196   4.185   6.591   7.513  0.0620  0.5702  0.0342
   78CHL1  H15A 8197   4.286   6.638   7.513  0.0322  0.7470  2.0931
   78CHL1  H15B 8198   4.124   6.683   7.511 -1.1114 -0.1726  0.4216
   78CHL1   C16 8199   4.152   6.510   7.637 -0.1520 -0.3086 -0.5049
   78CHL1  H16A 8200   4.240   6.523   7.705 -0.6726  0.0482  0.1075
   78CHL1  H16B 8201   4.060   6.533   7.694  0.8180  0.1784  0.9560
   78CHL1   C17 8202   4.157   6.355   7.590 -0.1215 -0.2511  0.8604
   78CHL1   H17 8203   4.053   6.319   7.578 -0.1980 -0.1387  1.1814
   78CHL1   C13 8204   4.220   6.358   7.453 -0.3130 -0.9911  0.7757
   78CHL1   C18 8205   4.382   6.358   7.473  0.5182  0.0941 -0.3673
   78CHL1  H18A 8206   4.408   6.433   7.551  2.5787  0.7996 -1.6594
   78CHL1  H18B 8207   4.406   6.261   7.521 -1.0440  0.3352  1.0189
   78CHL1  H18C 8208   4.429   6.350   7.373 -0.9552  0.8100 -1.1527
   78CHL1   C12 8209   4.176   6.243   7.357 -0.0728  0.0561 -0.0164
   78CHL1  H12A 8210   4.199   6.144   7.400 -0.7208  0.9088  2.4956
   78CHL1  H12B 8211   4.067   6.264   7.348 -0.4949 -1.5664  1.0488
   78CHL1   C11 8212   4.233   6.267   7.219  0.1227  0.9583  0.0096
   78CHL1  H11A 8213   4.341   6.242   7.214  0.1043  0.7330  0.6764
   78CHL1  H11B 8214   4.194   6.199   7.141  1.2303  0.6633 -0.3017
   78CHL1    C9 8215   4.207   6.410   7.162 -0.5786  0.0321  0.4114
   78CHL1    H9 8216   4.097   6.419   7.146 -0.6613  0.5933  1.2586
   78CHL1   C10 8217   4.267   6.433   7.022  0.2469 -0.0994  0.4616
   78CHL1   C19 8218   4.420   6.415   7.036 -0.7609  1.1969 -0.2498
   78CHL1  H19A 8219   4.443   6.307   7.044  2.6841  1.8715  1.0534
   78CHL1  H19B 8220   4.480   6.444   6.947  0.0125 -2.1723 -0.9457
   78CHL1  H19C 8221   4.465   6.474   7.119 -0.4409  0.1474  0.3338
   78CHL1    C1 8222   4.206   6.334   6.919 -0.1718 -0.3638 -0.3495
   78CHL1   H1A 8223   4.245   6.231   6.931  1.2992  0.0096 -1.6485
   78CHL1   H1B 8224   4.097   6.324   6.939 -0.1202  1.0182  0.8395
   78CHL1    C2 8225   4.218   6.368   6.764  0.1573 -0.3902 -0.3844
   78CHL1   H2A 8226   4.172   6.291   6.700 -0.3990 -0.6134  0.2646
   78CHL1   H2B 8227   4.329   6.365   6.765  0.2092  0.8246  0.6222
   78CHL1   C20 8228   4.209   6.261   7.698 -0.0057  0.8423 -0.9400
   78CHL1   H20 8229   4.317   6.287   7.700  0.1518  0.5789 -3.2347
   78CHL1   C21 8230   4.191   6.116   7.659 -0.2620 -0.3844  0.2415
   78CHL1  H21A 8231   4.275   6.090   7.591  0.5712  0.6045  0.8740
   78CHL1  H21B 8232   4.095   6.096   7.606 -0.8853 -0.6137  1.4266
   78CHL1  H21C 8233   4.196   6.043   7.743  0.1003 -0.0722  0.4930
   78CHL1   C22 8234   4.138   6.286   7.836  0.1507 -0.4152 -1.3784
   78CHL1  H22A 8235   4.180   6.213   7.908  1.0593  1.6590  0.3019
   78CHL1  H22B 8236   4.157   6.382   7.889 -0.5990 -0.9603 -0.0896
   78CHL1   C23 8237   3.983   6.277   7.844  0.4592  0.2229 -0.3176
   78CHL1  H23A 8238   3.939   6.374   7.815  0.0642  0.3709  0.7536
   78CHL1  H23B 8239   3.954   6.199   7.770  0.8095  0.6456 -0.9154
   78CHL1   C24 8240   3.929   6.242   7.981 -0.2194  0.3421  0.1317
   78CHL1  H24A 8241   3.996   6.164   8.022 -1.3137 -0.9397 -0.4259
   78CHL1  H24B 8242   3.937   6.337   8.038 -0.4774  1.2066 -1.2090
   78CHL1   C25 8243   3.781   6.192   7.983 -0.1036  0.8364  0.7345
   78CHL1   H25 8244   3.713   6.263   7.932 -2.0919  0.5302  2.7976
   78CHL1   C26 8245   3.757   6.065   7.894  0.6622  0.5607 -0.4428
   78CHL1  H26A 8246   3.648   6.047   7.905  0.9067  0.0721  1.4816
   78CHL1  H26B 8247   3.782   6.085   7.788  0.7788  0.8859 -0.3555
   78CHL1  H26C 8248   3.816   5.975   7.921 -1.0637 -0.7789 -0.9645
   78CHL1   C27 8249   3.730   6.163   8.122 -0.2325 -0.8564  0.0346
   78CHL1  H27A 8250   3.749   6.241   8.198  0.5336 -0.8371 -0.1692
   78CHL1  H27B 8251   3.622   6.139   8.126 -0.5243 -0.2685 -2.4273
   78CHL1  H27C 8252   3.792   6.078   8.154  2.8147  1.3237  0.3772
   79CHL1    C3 8253   2.067   5.058   7.199 -0.2530 -0.7525  0.0264
   79CHL1    H3 8254   2.065   5.164   7.231 -2.0389  0.5662 -3.8809
   79CHL1    O3 8255   2.034   5.055   7.062  0.4191 -0.2702 -0.1973
   79CHL1   H3' 8256   2.080   4.979   7.026  1.3710 -0.6276  1.6576
   79CHL1    C4 8257   2.201   4.985   7.219 -0.6137 -0.1064 -0.2594
   79CHL1   H4A 8258   2.200   4.886   7.169  3.4800 -0.0998 -0.7542
   79CHL1   H4B 8259   2.275   5.048   7.166 -2.2546  1.6935 -0.5043
   79CHL1    C5 8260   2.239   4.988   7.360 -1.6617  0.3868  0.3673
   79CHL1    C6 8261   2.351   5.046   7.406 -0.0264  0.4045 -0.6041
   79CHL1    H6 8262   2.418   5.096   7.334 -0.1511  2.1116  0.4275
   79CHL1    C7 8263   2.398   5.048   7.549 -0.4346 -0.2925  0.4862
   79CHL1   H7A 8264   2.507   5.028   7.559 -0.5768  0.1897  3.8036
   79CHL1   H7B 8265   2.375   5.149   7.588 -0.3705  0.3868 -1.1380
   79CHL1    C8 8266   2.329   4.941   7.635  0.8044 -0.5953  0.3981
   79CHL1    H8 8267   2.359   4.835   7.617  2.4464  0.1229 -1.4604
   79CHL1   C14 8268   2.347   4.973   7.786  0.2871 -0.1346 -0.5470
   79CHL1   H14 8269   2.293   5.069   7.796  0.8214  0.2872 -1.6033
   79CHL1   C15 8270   2.488   4.982   7.849  0.0355  0.4934  0.1844
   79CHL1  H15A 8271   2.551   4.895   7.819  1.8190  1.8491 -0.1528
   79CHL1  H15B 8272   2.543   5.076   7.828 -1.3344  1.3938  0.4904
   79CHL1   C16 8273   2.466   4.987   8.000 -0.3492 -0.0126 -0.3344
   79CHL1  H16A 8274   2.535   4.925   8.062  0.0582  0.8424  0.0860
   79CHL1  H16B 8275   2.475   5.091   8.037  0.0938 -0.6053  1.3552
   79CHL1   C17 8276   2.320   4.935   8.028 -0.7916  0.1864  0.9955
   79CHL1   H17 8277   2.260   5.027   8.044 -0.7755 -0.0197  2.3173
   79CHL1   C13 8278   2.272   4.881   7.888  0.2085 -0.2764  0.7968
   79CHL1   C18 8279   2.314   4.730   7.886  0.1132  1.4343 -0.3268
   79CHL1  H18A 8280   2.418   4.707   7.919  0.1083  2.2044  0.2348
   79CHL1  H18B 8281   2.245   4.672   7.951 -0.8957  1.1920 -1.5774
   79CHL1  H18C 8282   2.293   4.693   7.783 -1.0857  0.8108  0.1163
   79CHL1   C12 8283   2.118   4.895   7.857  0.2883 -0.8291  0.4414
   79CHL1  H12A 8284   2.061   4.823   7.920  2.2762 -0.4331  2.8653
   79CHL1  H12B 8285   2.075   4.996   7.875 -1.5244 -1.4465 -0.2367
   79CHL1   C11 8286   2.086   4.868   7.708 -0.7929 -0.2276 -0.3257
   79CHL1  H11A 8287   2.096   4.760   7.685 -0.8658 -0.7226  1.7663
   79CHL1  H11B 8288   1.980   4.894   7.691 -0.7450  2.7920  2.9162
   79CHL1    C9 8289   2.172   4.946   7.609 -0.1685  0.2514 -0.0013
   79CHL1    H9 8290   2.141   5.051   7.629 -0.5413 -0.0889  1.2889
   79CHL1   C10 8291   2.145   4.914   7.459 -0.0581  0.1028  0.3760
   79CHL1   C19 8292   2.133   4.762   7.430  0.1387  0.7369 -0.6792
   79CHL1  H19A 8293   2.116   4.736   7.323 -0.7591 -0.2491 -0.3267
   79CHL1  H19B 8294   2.224   4.706   7.459 -0.9047  0.1482  1.6962
   79CHL1  H19C 8295   2.051   4.719   7.492  0.7165  0.0257 -0.3921
   79CHL1    C1 8296   2.007   4.978   7.428  0.4681 -0.3343 -0.3674
   79CHL1   H1A 8297   1.933   4.921   7.488  1.3323 -2.0662 -0.8937
   79CHL1   H1B 8298   1.998   5.087   7.448  0.9523 -0.5303  1.0588
   79CHL1    C2 8299   1.965   4.979   7.282  0.3252 -0.9436  0.5768
   79CHL1   H2A 8300   1.865   5.027   7.281  0.1695 -1.2310  1.5660
   79CHL1   H2B 8301   1.967   4.877   7.237 -0.0815 -0.9538  0.5840
   79CHL1   C20 8302   2.309   4.856   8.160  0.4598  1.0681  1.0172
   79CHL1   H20 8303   2.373   4.766   8.146  0.1870  1.2417 -2.1426
   79CHL1   C21 8304   2.161   4.819   8.186 -0.5735  0.2089  0.0114
   79CHL1  H21A 8305   2.159   4.769   8.285  0.3965 -0.9661 -0.5264
   79CHL1  H21B 8306   2.117   4.767   8.098  0.6570  2.1844 -1.8844
   79CHL1  H21C 8307   2.104   4.914   8.185  0.3423  0.7751 -0.4140
   79CHL1   C22 8308   2.368   4.922   8.279  0.0640 -0.3265  0.1940
   79CHL1  H22A 8309   2.376   4.853   8.366 -0.0428 -0.6579 -0.0590
   79CHL1  H22B 8310   2.463   4.977   8.262  0.4306 -0.8947  0.3702
   79CHL1   C23 8311   2.272   5.035   8.341 -0.5074 -0.3205  0.3650
   79CHL1  H23A 8312   2.226   5.088   8.255 -1.3991  0.7093  1.4271
   79CHL1  H23B 8313   2.180   4.994   8.389 -0.0241 -0.3133  1.3146
   79CHL1   C24 8314   2.339   5.133   8.444 -0.2535  0.8647 -0.3059
   79CHL1  H24A 8315   2.412   5.190   8.383  1.6768  2.2398  3.0591
   79CHL1  H24B 8316   2.259   5.207   8.469 -1.3397 -0.6021  0.7725
   79CHL1   C25 8317   2.408   5.061   8.558  0.1022 -0.2491 -0.2846
   79CHL1   H25 8318   2.488   4.994   8.520 -0.3179 -0.8731 -0.0809
   79CHL1   C26 8319   2.485   5.151   8.653  0.9041  0.8178  0.1613
   79CHL1  H26A 8320   2.411   5.190   8.726  0.4177 -0.1101  0.1759
   79CHL1  H26B 8321   2.561   5.107   8.721  1.4528  1.2422 -0.1635
   79CHL1  H26C 8322   2.520   5.242   8.600  0.4318  0.5346 -0.6603
   79CHL1   C27 8323   2.318   4.959   8.628  0.6902  0.4731  0.5060
   79CHL1  H27A 8324   2.277   4.881   8.561 -0.8634 -0.4550  2.4191
   79CHL1  H27B 8325   2.379   4.911   8.707 -0.6535  0.5416  1.6102
   79CHL1  H27C 8326   2.226   4.999   8.676 -1.1325 -1.0914 -1.4525
   80CHL1    C3 8327   1.489   1.328   7.063  0.1452  0.3077  0.3402
   80CHL1    H3 8328   1.392   1.274   7.059  0.0892  0.3894  0.5626
   80CHL1    O3 8329   1.527   1.364   6.932 -0.8340 -0.2298  0.3182
   80CHL1   H3' 8330   1.451   1.409   6.895  0.2595  0.3228 -1.3711
   80CHL1    C4 8331   1.485   1.445   7.160 -0.5169 -0.6325 -0.1849
   80CHL1   H4A 8332   1.580   1.503   7.152 -0.6587 -0.3007  0.4723
   80CHL1   H4B 8333   1.406   1.512   7.119 -1.1103 -1.8882 -1.1701
   80CHL1    C5 8334   1.465   1.401   7.304  0.0716  0.0105 -0.6810
   80CHL1    C6 8335   1.359   1.455   7.373  0.7005  0.0259 -0.0340
   80CHL1    H6 8336   1.295   1.522   7.313  2.5401 -0.2039 -2.4257
   80CHL1    C7 8337   1.327   1.434   7.517 -0.2765  0.5649  0.6056
   80CHL1   H7A 8338   1.297   1.526   7.572 -0.5066  0.9745 -0.1989
   80CHL1   H7B 8339   1.250   1.354   7.520 -0.1022  0.3969  0.6083
   80CHL1    C8 8340   1.455   1.377   7.583  0.3975 -0.3248  1.2167
   80CHL1    H8 8341   1.525   1.464   7.587 -1.1838  0.9855  1.4901
   80CHL1   C14 8342   1.426   1.337   7.725 -0.0518 -0.4096  0.5411
   80CHL1   H14 8343   1.359   1.248   7.720 -1.6585  0.8082 -1.3774
   80CHL1   C15 8344   1.347   1.433   7.825 -0.4395 -0.1601 -0.2396
   80CHL1  H15A 8345   1.383   1.538   7.824  1.3619 -0.7461 -0.6987
   80CHL1  H15B 8346   1.237   1.435   7.805 -0.9045 -2.7946  1.5499
   80CHL1   C16 8347   1.370   1.372   7.966 -0.3972 -0.1654  1.0258
   80CHL1  H16A 8348   1.409   1.452   8.032 -0.5757 -1.0221  2.1999
   80CHL1  H16B 8349   1.275   1.340   8.013 -1.2759  1.9330  0.7685
   80CHL1   C17 8350   1.471   1.254   7.944 -0.3938 -0.1696  0.0946
   80CHL1   H17 8351   1.404   1.167   7.928 -1.6891  0.1505  3.1268
   80CHL1   C13 8352   1.543   1.290   7.814  0.0405  0.1886  1.0335
   80CHL1   C18 8353   1.649   1.400   7.842 -0.2429 -0.1148  0.8360
   80CHL1  H18A 8354   1.703   1.446   7.756 -1.3781 -2.6501 -1.3979
   80CHL1  H18B 8355   1.604   1.484   7.899  0.6800  1.9115 -1.2678
   80CHL1  H18C 8356   1.719   1.346   7.910  0.3997  2.4111  2.3206
   80CHL1   C12 8357   1.601   1.169   7.740  0.4794 -0.3256 -0.1197
   80CHL1  H12A 8358   1.690   1.133   7.797 -0.1316  0.7601  1.5900
   80CHL1  H12B 8359   1.517   1.098   7.732  1.4308 -2.1309  3.6832
   80CHL1   C11 8360   1.643   1.205   7.595 -0.0457  0.0104  0.2038
   80CHL1  H11A 8361   1.724   1.280   7.608 -1.5470  1.4598  1.5898
   80CHL1  H11B 8362   1.686   1.116   7.544  0.7366  0.1759  0.5555
   80CHL1    C9 8363   1.525   1.262   7.503  0.0023  0.2105  0.0323
   80CHL1    H9 8364   1.451   1.180   7.485 -0.6294  1.3402 -3.2339
   80CHL1   C10 8365   1.566   1.305   7.360 -1.0248 -0.1075 -0.4533
   80CHL1   C19 8366   1.702   1.375   7.363  0.0714 -0.2452 -0.5402
   80CHL1  H19A 8367   1.708   1.435   7.456 -2.2066 -0.1408 -0.3971
   80CHL1  H19B 8368   1.783   1.300   7.375  0.2752  0.1737  0.8688
   80CHL1  H19C 8369   1.731   1.438   7.276 -1.9957  3.1903  1.0812
   80CHL1    C1 8370   1.565   1.188   7.260  0.4668 -0.2268 -0.0438
   80CHL1   H1A 8371   1.636   1.106   7.286  0.7621  0.0508  0.0344
   80CHL1   H1B 8372   1.467   1.136   7.267  0.9239 -0.9298  3.0628
   80CHL1    C2 8373   1.599   1.234   7.108 -0.2007 -0.2182 -0.4993
   80CHL1   H2A 8374   1.605   1.148   7.038 -0.4525  0.1404 -0.9579
   80CHL1   H2B 8375   1.699   1.281   7.094  1.4614 -3.2503  0.1891
   80CHL1   C20 8376   1.547   1.198   8.062  0.3327  0.2267  0.3486
   80CHL1   H20 8377   1.653   1.221   8.038 -0.2331  1.0547 -1.5274
   80CHL1   C21 8378   1.539   1.046   8.070  0.0457 -0.3971 -0.5985
   80CHL1  H21A 8379   1.602   1.008   8.154 -1.1467  1.6965  1.3697
   80CHL1  H21B 8380   1.558   0.998   7.972 -1.2409 -0.6423 -0.7451
   80CHL1  H21C 8381   1.436   1.017   8.103 -0.7365  2.1920 -0.5447
   80CHL1   C22 8382   1.519   1.262   8.207 -0.4593 -0.3658  0.2171
   80CHL1  H22A 8383   1.579   1.354   8.190 -0.8111 -0.1501  0.1335
   80CHL1  H22B 8384   1.409   1.272   8.215 -0.3993  3.8037 -1.7814
   80CHL1   C23 8385   1.573   1.181   8.320  0.5766  0.1159  0.3259
   80CHL1  H23A 8386   1.536   1.077   8.328  1.2910 -0.2435 -0.8548
   80CHL1  H23B 8387   1.683   1.170   8.317  0.3844 -2.5339  0.3832
   80CHL1   C24 8388   1.539   1.257   8.451 -0.0265  0.0306 -0.2738
   80CHL1  H24A 8389   1.593   1.353   8.462 -0.5637  0.4053 -0.8418
   80CHL1  H24B 8390   1.433   1.291   8.444  0.4668  1.4669 -1.2383
   80CHL1   C25 8391   1.571   1.182   8.579 -0.2821  0.7173 -0.3202
   80CHL1   H25 8392   1.526   1.080   8.577  0.1820  0.3439  2.9423
   80CHL1   C26 8393   1.719   1.169   8.604  0.7942  0.2033 -0.1116
   80CHL1  H26A 8394   1.771   1.137   8.512  1.7515 -0.2572  0.5796
   80CHL1  H26B 8395   1.757   1.267   8.641 -0.6475  1.1091 -0.9214
   80CHL1  H26C 8396   1.745   1.100   8.687 -0.2463 -0.5023 -0.3541
   80CHL1   C27 8397   1.505   1.245   8.698 -0.2691  0.0278  0.8968
   80CHL1  H27A 8398   1.534   1.350   8.723 -1.8010  1.0835 -1.3869
   80CHL1  H27B 8399   1.396   1.257   8.680 -0.3580  0.7249  1.7592
   80CHL1  H27C 8400   1.518   1.181   8.788  3.9924 -4.7263 -2.5995
   81CHL1    C3 8401   4.450   0.672   6.859 -0.4465  0.4053 -0.4957
   81CHL1    H3 8402   4.553   0.711   6.873  0.3778 -1.8058  0.0105
   81CHL1    O3 8403   4.439   0.660   6.720  0.2233  0.2764  0.3446
   81CHL1   H3' 8404   4.348   0.638   6.698  0.5529 -3.9681  2.1445
   81CHL1    C4 8405   4.427   0.541   6.931 -0.2835  0.6920  0.0333
   81CHL1   H4A 8406   4.325   0.506   6.903  0.6580 -2.9101  0.5476
   81CHL1   H4B 8407   4.487   0.461   6.882 -0.6752 -0.2793  1.1122
   81CHL1    C5 8408   4.435   0.546   7.080 -0.6832 -0.3288 -0.0890
   81CHL1    C6 8409   4.516   0.462   7.144 -0.5845  0.6068 -0.2395
   81CHL1    H6 8410   4.551   0.376   7.087 -1.2515  0.4167 -0.3759
   81CHL1    C7 8411   4.541   0.461   7.291  0.9453  0.3873 -0.1109
   81CHL1   H7A 8412   4.522   0.358   7.328  0.2479 -0.1688 -1.9113
   81CHL1   H7B 8413   4.648   0.482   7.311  0.7958  0.8552  0.2212
   81CHL1    C8 8414   4.444   0.557   7.371 -0.1979  0.0035  1.3676
   81CHL1    H8 8415   4.345   0.508   7.382 -0.4472  0.6502  2.0429
   81CHL1   C14 8416   4.501   0.600   7.504  0.1583 -0.6848  0.7445
   81CHL1   H14 8417   4.592   0.662   7.490  0.0221 -0.7527 -0.5415
   81CHL1   C15 8418   4.541   0.486   7.596  0.4170 -0.0127  0.3382
   81CHL1  H15A 8419   4.475   0.399   7.574  0.7076  0.0343 -0.8380
   81CHL1  H15B 8420   4.645   0.455   7.569  0.1360 -0.8150  0.1216
   81CHL1   C16 8421   4.538   0.541   7.737 -0.6316  0.0543 -0.3570
   81CHL1  H16A 8422   4.464   0.486   7.798 -0.6145  0.4877  0.0676
   81CHL1  H16B 8423   4.638   0.544   7.785 -0.0585 -0.0673 -1.5013
   81CHL1   C17 8424   4.492   0.693   7.719  0.1687  0.0289 -0.1343
   81CHL1   H17 8425   4.588   0.745   7.698 -0.3620  1.7663  1.5105
   81CHL1   C13 8426   4.409   0.687   7.583 -1.1421  0.3397 -0.4693
   81CHL1   C18 8427   4.282   0.607   7.608  0.3902 -0.5182  0.1296
   81CHL1  H18A 8428   4.224   0.671   7.678 -2.8088 -1.3145 -1.5822
   81CHL1  H18B 8429   4.217   0.604   7.517 -0.3082  0.4661  0.5774
   81CHL1  H18C 8430   4.300   0.508   7.655  3.3314 -0.8231 -1.4018
   81CHL1   C12 8431   4.392   0.824   7.506  0.7080 -0.5230  0.2630
   81CHL1  H12A 8432   4.311   0.884   7.553  1.2912  0.4387  0.0625
   81CHL1  H12B 8433   4.493   0.872   7.507  1.3923 -1.9190  0.0882
   81CHL1   C11 8434   4.340   0.807   7.360 -0.5946  0.0276  0.5297
   81CHL1  H11A 8435   4.230   0.795   7.364 -0.6609 -0.1898 -1.1840
   81CHL1  H11B 8436   4.363   0.900   7.302 -0.3983 -1.8208 -2.6136
   81CHL1    C9 8437   4.421   0.693   7.288  0.3496  0.6441  0.7154
   81CHL1    H9 8438   4.522   0.737   7.272  0.8626 -0.4507  0.8903
   81CHL1   C10 8439   4.361   0.666   7.150  0.1649  0.0355 -0.5098
   81CHL1   C19 8440   4.210   0.624   7.151  0.1358  0.1347  0.1475
   81CHL1  H19A 8441   4.191   0.519   7.183  2.3996 -1.2953 -2.6492
   81CHL1  H19B 8442   4.148   0.688   7.217 -0.3096 -0.0968 -0.0441
   81CHL1  H19C 8443   4.170   0.631   7.048 -2.4970 -2.7453  0.8486
   81CHL1    C1 8444   4.359   0.804   7.061  0.0694  0.4949  0.4277
   81CHL1   H1A 8445   4.257   0.838   7.087 -0.4513  0.5564 -1.5345
   81CHL1   H1B 8446   4.444   0.872   7.085  0.7810 -0.5449  0.9198
   81CHL1    C2 8447   4.360   0.782   6.910  0.1360  0.7104  0.3828
   81CHL1   H2A 8448   4.372   0.877   6.854 -0.0957 -0.5510 -1.9221
   81CHL1   H2B 8449   4.266   0.727   6.892  2.3945 -3.6542  0.5008
   81CHL1   C20 8450   4.450   0.746   7.861  0.3700  0.0402 -0.1709
   81CHL1   H20 8451   4.346   0.713   7.879  0.6082 -0.6059  0.0637
   81CHL1   C21 8452   4.439   0.900   7.851 -0.0698  0.1086  0.1967
   81CHL1  H21A 8453   4.535   0.953   7.870  1.7933 -2.7276 -0.5263
   81CHL1  H21B 8454   4.371   0.944   7.927 -1.4634 -0.0274 -0.9478
   81CHL1  H21C 8455   4.405   0.923   7.748 -1.6134 -0.5441  0.5383
   81CHL1   C22 8456   4.541   0.709   7.986 -0.2832  0.0776  0.7404
   81CHL1  H22A 8457   4.535   0.598   7.995  0.0473 -0.3473 -2.7623
   81CHL1  H22B 8458   4.645   0.734   7.955 -0.4475 -0.5016 -0.3496
   81CHL1   C23 8459   4.511   0.776   8.128  0.2284 -0.6641 -0.4008
   81CHL1  H23A 8460   4.546   0.880   8.110 -2.9313  0.4498 -0.6439
   81CHL1  H23B 8461   4.403   0.770   8.155 -0.0069  1.1250 -0.8634
   81CHL1   C24 8462   4.599   0.720   8.236  0.4108 -0.3065 -0.4087
   81CHL1  H24A 8463   4.584   0.612   8.252  0.5243 -0.1203  1.1662
   81CHL1  H24B 8464   4.702   0.715   8.196 -0.0037 -2.5478 -1.3449
   81CHL1   C25 8465   4.574   0.800   8.368  0.2489  0.0324  0.0566
   81CHL1   H25 8466   4.523   0.895   8.339  0.9369 -0.0485 -1.4713
   81CHL1   C26 8467   4.476   0.731   8.465  0.1320 -0.2831  0.9631
   81CHL1  H26A 8468   4.388   0.688   8.412 -0.4909  1.9488  0.0316
   81CHL1  H26B 8469   4.530   0.662   8.533 -0.0266  0.6960  2.1139
   81CHL1  H26C 8470   4.442   0.813   8.533 -2.9277  0.6667 -1.4411
   81CHL1   C27 8471   4.703   0.833   8.441  0.3905  0.4044  0.2078
   81CHL1  H27A 8472   4.768   0.745   8.463  0.1812  0.1318 -0.2525
   81CHL1  H27B 8473   4.763   0.895   8.370  0.8239 -1.0439 -0.7558
   81CHL1  H27C 8474   4.690   0.890   8.535 -2.3546 -0.8974  0.7249
   82CHL1    C3 8475   0.775   2.844   7.039  0.1879  0.2980  0.4523
   82CHL1    H3 8476   0.799   2.941   7.088  2.0913 -0.6049  1.4290
   82CHL1    O3 8477   0.791   2.859   6.900  0.0565 -0.0140 -0.0466
   82CHL1   H3' 8478   0.782   2.769   6.867 -0.6378 -0.2524  0.7665
   82CHL1    C4 8479   0.853   2.727   7.101 -0.4090 -0.2787  0.0522
   82CHL1   H4A 8480   0.820   2.632   7.054 -1.7065  1.5502 -3.0920
   82CHL1   H4B 8481   0.960   2.734   7.071 -0.6633  2.4567 -0.5535
   82CHL1    C5 8482   0.832   2.709   7.247 -0.6384 -0.1063  0.1785
   82CHL1    C6 8483   0.936   2.707   7.333  0.2582  0.4101 -0.2459
   82CHL1    H6 8484   1.038   2.737   7.304  0.1493  1.1139  0.0694
   82CHL1    C7 8485   0.917   2.670   7.473  0.6632 -0.0060 -0.5569
   82CHL1   H7A 8486   0.988   2.587   7.494 -0.7830 -1.6310 -1.8412
   82CHL1   H7B 8487   0.938   2.763   7.532  0.6958  0.1470 -0.8087
   82CHL1    C8 8488   0.773   2.615   7.515 -1.1696  0.5456  0.0002
   82CHL1    H8 8489   0.780   2.506   7.492  0.6597  0.2787  1.5252
   82CHL1   C14 8490   0.756   2.633   7.665 -0.1179  0.1182 -0.1182
   82CHL1   H14 8491   0.749   2.743   7.674  0.9479  0.2270 -0.4893
   82CHL1   C15 8492   0.880   2.585   7.755 -0.5312 -0.4034 -0.2812
   82CHL1  H15A 8493   0.929   2.489   7.732  1.3570  0.0717  1.4181
   82CHL1  H15B 8494   0.965   2.656   7.743 -2.8957  2.2952 -2.5343
   82CHL1   C16 8495   0.819   2.585   7.893  0.7017 -0.1956 -0.3506
   82CHL1  H16A 8496   0.832   2.479   7.926 -0.2022 -0.8242 -1.8875
   82CHL1  H16B 8497   0.878   2.659   7.951  1.5489 -0.2020 -1.1692
   82CHL1   C17 8498   0.663   2.605   7.871  0.2816 -0.7138 -0.2484
   82CHL1   H17 8499   0.638   2.713   7.880  0.0449 -0.6389 -1.5942
   82CHL1   C13 8500   0.630   2.574   7.714  0.1632 -0.1504 -0.8776
   82CHL1   C18 8501   0.618   2.424   7.699 -0.5598 -0.0417  0.0958
   82CHL1  H18A 8502   0.600   2.392   7.594  0.7875 -1.4960  0.2892
   82CHL1  H18B 8503   0.710   2.379   7.741  0.9824  1.9987 -0.8873
   82CHL1  H18C 8504   0.526   2.399   7.756  0.2353  1.8621  2.3742
   82CHL1   C12 8505   0.519   2.657   7.647 -0.1317  0.1787  0.3801
   82CHL1  H12A 8506   0.412   2.630   7.663 -0.1983  1.1959  1.8283
   82CHL1  H12B 8507   0.523   2.764   7.674 -0.5659  0.9376 -2.2482
   82CHL1   C11 8508   0.533   2.653   7.489 -0.5888  0.1492 -0.6931
   82CHL1  H11A 8509   0.521   2.549   7.452  2.6213 -0.1855 -1.0861
   82CHL1  H11B 8510   0.446   2.713   7.453  1.0123  0.8347 -3.7781
   82CHL1    C9 8511   0.664   2.698   7.446  0.0020  0.0136  0.4813
   82CHL1    H9 8512   0.672   2.805   7.475  2.8337 -0.1546  0.6385
   82CHL1   C10 8513   0.685   2.696   7.286 -0.3328  0.0877 -0.0237
   82CHL1   C19 8514   0.649   2.549   7.241  0.6605 -0.5667 -0.3597
   82CHL1  H19A 8515   0.703   2.476   7.306 -0.9006 -0.4285  1.1451
   82CHL1  H19B 8516   0.539   2.534   7.249  0.6311  0.5492  2.1722
   82CHL1  H19C 8517   0.677   2.532   7.134  0.4559  3.2052 -1.1404
   82CHL1    C1 8518   0.600   2.810   7.223  0.0336 -0.0406  0.0723
   82CHL1   H1A 8519   0.494   2.798   7.255 -0.9220  1.5705 -2.1879
   82CHL1   H1B 8520   0.637   2.905   7.267  1.0577 -0.0960 -0.6272
   82CHL1    C2 8521   0.624   2.814   7.070 -0.1144 -0.8606  0.8675
   82CHL1   H2A 8522   0.554   2.886   7.023 -2.3382 -1.8719  2.4134
   82CHL1   H2B 8523   0.589   2.719   7.023  0.0904 -1.1262  1.2433
   82CHL1   C20 8524   0.581   2.537   7.978 -0.0130 -0.2650 -0.3899
   82CHL1   H20 8525   0.586   2.427   7.971 -0.2008 -0.2875 -0.1819
   82CHL1   C21 8526   0.427   2.573   7.955 -0.5879  0.5957  0.1243
   82CHL1  H21A 8527   0.417   2.683   7.968  1.2679  0.5741  2.1942
   82CHL1  H21B 8528   0.371   2.521   8.035 -0.3709  0.2529  0.0537
   82CHL1  H21C 8529   0.392   2.542   7.854  2.6735 -2.2686 -0.2690
   82CHL1   C22 8530   0.630   2.573   8.121  0.8252  0.1690 -0.0103
   82CHL1  H22A 8531   0.562   2.513   8.185 -3.8617 -0.3842 -4.8305
   82CHL1  H22B 8532   0.735   2.537   8.132  1.0019 -0.0349 -2.0741
   82CHL1   C23 8533   0.631   2.728   8.157  0.1610 -0.3431 -0.4885
   82CHL1  H23A 8534   0.720   2.787   8.128  0.9174 -1.9739 -1.6308
   82CHL1  H23B 8535   0.537   2.763   8.109  0.0355 -1.3984 -1.0557
   82CHL1   C24 8536   0.627   2.755   8.309 -0.5450 -0.2053  0.6727
   82CHL1  H24A 8537   0.606   2.863   8.323 -0.2639 -0.2461  1.4658
   82CHL1  H24B 8538   0.547   2.694   8.355 -0.7538 -1.6890 -1.4924
   82CHL1   C25 8539   0.761   2.720   8.376  0.1699  0.4446  0.0585
   82CHL1   H25 8540   0.840   2.719   8.298  1.8471  0.6301  1.6724
   82CHL1   C26 8541   0.811   2.837   8.468  0.2161  0.8970  0.2972
   82CHL1  H26A 8542   0.886   2.805   8.544  2.8576  1.4533 -1.9239
   82CHL1  H26B 8543   0.861   2.908   8.399  0.6407 -1.4566 -1.9539
   82CHL1  H26C 8544   0.721   2.879   8.519  0.2014  2.2314 -0.7871
   82CHL1   C27 8545   0.749   2.582   8.452  0.6300 -0.2181  0.2121
   82CHL1  H27A 8546   0.739   2.506   8.372 -0.1757  0.9106 -0.7990
   82CHL1  H27B 8547   0.835   2.576   8.521  0.1184 -3.9130  0.7365
   82CHL1  H27C 8548   0.662   2.592   8.521  0.4039  1.5702 -0.2720
   83CHL1    C3 8549   3.097   4.825   7.039 -0.4479 -0.2838  0.3409
   83CHL1    H3 8550   3.025   4.904   7.068 -1.4920 -1.3333  0.7222
   83CHL1    O3 8551   3.130   4.848   6.903  0.3258 -0.3962  0.2603
   83CHL1   H3' 8552   3.062   4.819   6.843 -0.3985  4.2535 -1.6520
   83CHL1    C4 8553   3.218   4.844   7.119  0.2889  0.0372 -0.1500
   83CHL1   H4A 8554   3.293   4.767   7.089 -2.4295 -3.3124  1.0436
   83CHL1   H4B 8555   3.265   4.942   7.098  0.6420  0.3775  1.9246
   83CHL1    C5 8556   3.212   4.813   7.273 -0.0061  0.3518  0.0925
   83CHL1    C6 8557   3.251   4.902   7.361  0.8574 -0.3266 -0.5458
   83CHL1    H6 8558   3.292   4.998   7.326  0.9880 -0.8876 -2.0034
   83CHL1    C7 8559   3.245   4.876   7.509 -0.4295  0.0372 -0.1206
   83CHL1   H7A 8560   3.339   4.920   7.550 -1.5786  1.6821  0.8399
   83CHL1   H7B 8561   3.163   4.927   7.562  0.1099 -0.0319  0.7992
   83CHL1    C8 8562   3.245   4.730   7.532  0.1042  0.2926  0.0346
   83CHL1    H8 8563   3.343   4.688   7.501  0.6183  0.2320  1.6557
   83CHL1   C14 8564   3.231   4.702   7.690 -0.3008 -0.4495  0.0634
   83CHL1   H14 8565   3.138   4.759   7.711 -1.2872 -0.2294 -4.0328
   83CHL1   C15 8566   3.334   4.769   7.770 -0.1556  0.3643 -0.3838
   83CHL1  H15A 8567   3.431   4.728   7.735 -0.4546  0.4581 -1.3535
   83CHL1  H15B 8568   3.331   4.880   7.768 -1.1500  0.3473 -0.8280
   83CHL1   C16 8569   3.305   4.717   7.910  0.6525  0.2795 -0.0430
   83CHL1  H16A 8570   3.396   4.673   7.958 -0.3843 -1.2669  0.5833
   83CHL1  H16B 8571   3.253   4.791   7.973  1.1766 -2.1711  3.5732
   83CHL1   C17 8572   3.209   4.589   7.885 -0.2688  0.2677  0.6976
   83CHL1   H17 8573   3.106   4.627   7.898 -0.8345 -1.2233  0.7779
   83CHL1   C13 8574   3.214   4.556   7.733 -0.3834 -0.6896 -0.3307
   83CHL1   C18 8575   3.346   4.478   7.684  0.3527 -0.2485  0.0314
   83CHL1  H18A 8576   3.432   4.510   7.747  1.0245 -1.2830 -0.3392
   83CHL1  H18B 8577   3.333   4.368   7.694  0.2328 -0.5511 -2.7096
   83CHL1  H18C 8578   3.365   4.499   7.577 -0.7516  0.5368 -0.0247
   83CHL1   C12 8579   3.089   4.495   7.659  0.0370 -0.7475  0.5436
   83CHL1  H12A 8580   3.079   4.386   7.676 -1.3440 -0.4059  2.0841
   83CHL1  H12B 8581   2.991   4.539   7.686  0.4562 -0.8567  2.3397
   83CHL1   C11 8582   3.107   4.522   7.503  0.4954 -0.5088  0.0591
   83CHL1  H11A 8583   3.192   4.460   7.468  0.0546  0.4223 -2.9277
   83CHL1  H11B 8584   3.012   4.491   7.454  0.0261  1.2223 -0.2037
   83CHL1    C9 8585   3.125   4.670   7.454 -0.3211  0.4044 -0.0647
   83CHL1    H9 8586   3.036   4.729   7.484  0.1004  0.8761  0.2708
   83CHL1   C10 8587   3.146   4.685   7.302 -0.4423  0.1294  0.3121
   83CHL1   C19 8588   3.244   4.569   7.252 -0.7005  0.0718 -0.1638
   83CHL1  H19A 8589   3.201   4.467   7.254  0.4701 -0.5005 -1.6754
   83CHL1  H19B 8590   3.266   4.570   7.143  0.7827 -1.2543  0.0898
   83CHL1  H19C 8591   3.339   4.571   7.309  0.2045  0.3032 -1.6076
   83CHL1    C1 8592   3.014   4.671   7.220 -0.5963  0.5402 -0.1699
   83CHL1   H1A 8593   2.982   4.567   7.240  0.4726  0.1826 -0.2485
   83CHL1   H1B 8594   2.945   4.746   7.264 -0.6965  1.3295 -1.6153
   83CHL1    C2 8595   3.034   4.686   7.061  0.1600  0.1315 -0.8952
   83CHL1   H2A 8596   2.936   4.687   7.009 -0.3157  1.8510 -0.0452
   83CHL1   H2B 8597   3.099   4.604   7.026 -1.7097 -1.1661 -1.4598
   83CHL1   C20 8598   3.231   4.476   7.987  0.3704 -0.7939 -1.0378
   83CHL1   H20 8599   3.340   4.463   8.004  0.1174 -1.1767  0.4102
   83CHL1   C21 8600   3.170   4.340   7.948  0.5160 -0.5307  0.1965
   83CHL1  H21A 8601   3.211   4.302   7.852 -2.4887 -0.3013 -1.3098
   83CHL1  H21B 8602   3.063   4.345   7.917  0.4694  2.5393  0.6102
   83CHL1  H21C 8603   3.163   4.264   8.029 -0.6399 -1.9647 -1.1724
   83CHL1   C22 8604   3.154   4.501   8.123 -0.6527 -0.1378  0.8955
   83CHL1  H22A 8605   3.142   4.609   8.144 -0.3653  0.3541 -1.2470
   83CHL1  H22B 8606   3.051   4.460   8.116  0.5654 -3.7279  1.9860
   83CHL1   C23 8607   3.224   4.432   8.242  0.2323 -0.2359  0.4356
   83CHL1  H23A 8608   3.288   4.347   8.210  0.8285  1.4770 -3.4103
   83CHL1  H23B 8609   3.279   4.513   8.295 -0.7897 -0.3711  1.7615
   83CHL1   C24 8610   3.123   4.370   8.338 -0.8679 -0.0003 -0.9117
   83CHL1  H24A 8611   3.032   4.434   8.337 -0.4898  0.8799  2.8426
   83CHL1  H24B 8612   3.109   4.263   8.311  2.7564 -0.5551 -0.9964
   83CHL1   C25 8613   3.182   4.343   8.479 -0.2634 -0.4981  0.2445
   83CHL1   H25 8614   3.105   4.281   8.531 -1.6126  0.6520 -0.2911
   83CHL1   C26 8615   3.315   4.266   8.479  0.1995 -0.6746 -0.3019
   83CHL1  H26A 8616   3.290   4.162   8.448 -2.3062  0.2261 -1.6052
   83CHL1  H26B 8617   3.384   4.301   8.399  0.3422  0.0055  0.1105
   83CHL1  H26C 8618   3.362   4.270   8.579 -0.5539  0.1111  0.0349
   83CHL1   C27 8619   3.206   4.483   8.548 -0.2188  0.1790  0.0082
   83CHL1  H27A 8620   3.115   4.547   8.540  0.6208  1.2208 -1.9191
   83CHL1  H27B 8621   3.235   4.469   8.654  1.2514 -1.6731 -0.5813
   83CHL1  H27C 8622   3.288   4.539   8.498  1.1584  0.0657  2.0314
   84CHL1    C3 8623   4.923   0.516   6.982  0.0679  0.5665  0.3010
   84CHL1    H3 8624   4.815   0.502   7.007 -0.4834  0.1142 -2.1203
   84CHL1    O3 8625   4.947   0.546   6.848 -0.1136  0.0978  0.0616
   84CHL1   H3' 8626   4.885   0.498   6.793  1.4616 -1.2545 -0.5886
   84CHL1    C4 8627   4.984   0.625   7.057  0.1218  0.3367 -0.4475
   84CHL1   H4A 8628   5.088   0.643   7.023 -0.2738 -1.3638 -2.8507
   84CHL1   H4B 8629   4.932   0.719   7.027  1.6536  1.7860  1.2220
   84CHL1    C5 8630   4.978   0.599   7.203 -0.3870 -0.0581 -0.2862
   84CHL1    C6 8631   4.911   0.684   7.279  0.6403  0.2373  0.2080
   84CHL1    H6 8632   4.853   0.772   7.244 -0.4085 -0.4296  0.2164
   84CHL1    C7 8633   4.907   0.670   7.427 -0.1654  0.1861 -0.1117
   84CHL1   H7A 8634   4.937   0.764   7.477  2.5363 -0.9971  0.6607
   84CHL1   H7B 8635   4.812   0.628   7.467  0.5807 -0.4466  1.0491
   84CHL1    C8 8636   5.014   0.575   7.483  0.5398 -0.0149  0.6898
   84CHL1    H8 8637   5.111   0.630   7.482 -0.6943  2.2191 -0.1965
   84CHL1   C14 8638   4.981   0.535   7.626  1.0201 -0.4386  0.3531
   84CHL1   H14 8639   4.894   0.466   7.621  1.3277 -0.8059 -0.0414
   84CHL1   C15 8640   4.952   0.660   7.712 -0.0264  0.1150 -0.0261
   84CHL1  H15A 8641   5.027   0.742   7.707 -2.1972  2.1217 -1.3100
   84CHL1  H15B 8642   4.848   0.694   7.697 -0.4235 -1.0296  0.0090
   84CHL1   C16 8643   4.955   0.605   7.856 -0.1983  0.0425 -0.3795
   84CHL1  H16A 8644   5.017   0.666   7.925 -2.0280  1.0430  0.4762
   84CHL1  H16B 8645   4.853   0.603   7.902 -0.7427 -0.9167 -1.5727
   84CHL1   C17 8646   5.008   0.463   7.846  0.3393  0.3041  0.2345
   84CHL1   H17 8647   4.922   0.392   7.840  0.4317  0.1099  1.1087
   84CHL1   C13 8648   5.081   0.455   7.705 -0.8633 -0.0723  0.5990
   84CHL1   C18 8649   5.214   0.525   7.720  1.0136 -1.0375  0.0202
   84CHL1  H18A 8650   5.200   0.615   7.783  0.3040 -1.2803  0.2191
   84CHL1  H18B 8651   5.289   0.468   7.779  1.5832 -0.7371 -0.4053
   84CHL1  H18C 8652   5.260   0.556   7.624  2.0900  1.0910  1.1619
   84CHL1   C12 8653   5.097   0.325   7.628  0.0997  0.3785 -0.2228
   84CHL1  H12A 8654   5.175   0.260   7.673 -1.0658 -1.3249 -0.5518
   84CHL1  H12B 8655   5.006   0.262   7.638  0.5889 -0.0959  1.4349
   84CHL1   C11 8656   5.116   0.351   7.474  0.0283 -0.1202  0.2421
   84CHL1  H11A 8657   5.222   0.380   7.456 -0.5625  1.9731 -0.0356
   84CHL1  H11B 8658   5.102   0.251   7.426 -2.4785  0.8141 -1.1538
   84CHL1    C9 8659   5.021   0.448   7.404 -0.1795  0.7013  1.1157
   84CHL1    H9 8660   4.921   0.399   7.407 -0.2842  0.7449 -0.8494
   84CHL1   C10 8661   5.050   0.476   7.252  0.4267  0.4988 -0.3030
   84CHL1   C19 8662   5.206   0.498   7.236 -0.4791  0.0206 -0.1085
   84CHL1  H19A 8663   5.221   0.535   7.133 -0.1803  0.6506  0.1596
   84CHL1  H19B 8664   5.241   0.564   7.318 -3.1648  1.5838 -0.0895
   84CHL1  H19C 8665   5.253   0.398   7.246 -1.0008 -0.1624  0.6041
   84CHL1    C1 8666   4.996   0.355   7.174 -0.1699 -0.3114  0.1700
   84CHL1   H1A 8667   5.065   0.269   7.188 -0.1021 -0.2913 -0.0255
   84CHL1   H1B 8668   4.893   0.329   7.206 -0.3022 -0.3100 -0.2452
   84CHL1    C2 8669   4.992   0.378   7.017 -0.7750  0.7143 -0.5761
   84CHL1   H2A 8670   4.954   0.289   6.962  1.7701 -0.5430 -0.4161
   84CHL1   H2B 8671   5.097   0.395   6.987 -0.1417 -2.0641 -0.1341
   84CHL1   C20 8672   5.089   0.412   7.968  0.4415 -0.1578  1.0075
   84CHL1   H20 8673   5.184   0.470   7.975  1.0209 -0.8975 -0.4345
   84CHL1   C21 8674   5.127   0.261   7.946 -0.9195 -0.3717 -0.0445
   84CHL1  H21A 8675   5.176   0.211   8.032  0.4843  0.8010 -0.1092
   84CHL1  H21B 8676   5.206   0.259   7.868 -1.2377 -0.1240 -0.3713
   84CHL1  H21C 8677   5.044   0.200   7.907 -0.5304 -1.4696  0.7954
   84CHL1   C22 8678   5.015   0.432   8.106 -0.3091 -0.0150 -0.3842
   84CHL1  H22A 8679   5.081   0.394   8.186  0.2708 -0.5674 -1.1154
   84CHL1  H22B 8680   5.014   0.540   8.133 -0.6375 -0.7694  3.0356
   84CHL1   C23 8681   4.874   0.366   8.133  0.1970  0.4587 -0.4551
   84CHL1  H23A 8682   4.791   0.422   8.084  0.5034 -0.0959 -1.6630
   84CHL1  H23B 8683   4.863   0.267   8.083  2.2546  0.9141 -1.9262
   84CHL1   C24 8684   4.829   0.353   8.282  0.4409 -0.8628  0.5310
   84CHL1  H24A 8685   4.894   0.280   8.336  0.2474 -0.6467  1.0691
   84CHL1  H24B 8686   4.850   0.446   8.339 -0.2752 -0.3291 -0.0568
   84CHL1   C25 8687   4.682   0.319   8.303  0.3044  0.0025 -0.4154
   84CHL1   H25 8688   4.611   0.376   8.240  0.7832 -0.5294 -1.4773
   84CHL1   C26 8689   4.662   0.170   8.282  0.0392  0.6293 -0.8047
   84CHL1  H26A 8690   4.715   0.142   8.188 -1.2987 -1.4578 -1.0049
   84CHL1  H26B 8691   4.707   0.110   8.364 -1.9856  1.9414  1.4045
   84CHL1  H26C 8692   4.560   0.127   8.269  0.5943 -1.2466  0.6503
   84CHL1   C27 8693   4.647   0.359   8.450 -0.1186  0.1689 -0.3491
   84CHL1  H27A 8694   4.711   0.310   8.526  1.0269  4.0439  1.3890
   84CHL1  H27B 8695   4.664   0.467   8.468  0.6503 -0.1400  0.8777
   84CHL1  H27C 8696   4.539   0.345   8.475  0.2148 -0.8138  0.6588
   85CHL1    C3 8697   2.856   5.781   6.655 -0.0753  0.0722 -0.4797
   85CHL1    H3 8698   2.831   5.889   6.650  4.4699  1.3838  0.6048
   85CHL1    O3 8699   2.857   5.730   6.518  0.3499  0.3250 -0.4661
   85CHL1   H3' 8700   2.844   5.636   6.531  0.6054  0.5841  2.6072
   85CHL1    C4 8701   3.000   5.771   6.704  0.0685 -0.6275  0.3663
   85CHL1   H4A 8702   3.037   5.667   6.692 -1.7100 -1.0650 -1.8518
   85CHL1   H4B 8703   3.065   5.834   6.641 -2.6574  0.9386 -1.0504
   85CHL1    C5 8704   3.002   5.816   6.848 -0.6874  0.1479 -0.1996
   85CHL1    C6 8705   3.089   5.919   6.897 -0.5322  0.4984  0.5379
   85CHL1    H6 8706   3.160   5.967   6.828 -0.3420  1.3256  1.2886
   85CHL1    C7 8707   3.105   5.975   7.038  0.0132  0.4600  0.1885
   85CHL1   H7A 8708   3.213   5.991   7.057  0.1787 -0.3947  0.0112
   85CHL1   H7B 8709   3.053   6.074   7.040 -0.4941  0.1990  0.0948
   85CHL1    C8 8710   3.027   5.882   7.136 -0.5055  0.4438  0.7313
   85CHL1    H8 8711   3.088   5.793   7.159 -0.4128  0.7743  1.8218
   85CHL1   C14 8712   3.012   5.948   7.271 -0.0425 -0.6495 -0.4032
   85CHL1   H14 8713   2.943   6.031   7.244  0.7545  0.7604  1.6637
   85CHL1   C15 8714   3.133   6.018   7.340 -0.2025  0.2927 -0.3228
   85CHL1  H15A 8715   3.221   5.950   7.345  0.0875  0.5091 -1.7791
   85CHL1  H15B 8716   3.160   6.116   7.293  1.2425 -0.3366 -0.8562
   85CHL1   C16 8717   3.081   6.032   7.486  0.0642  0.1880 -0.1479
   85CHL1  H16A 8718   3.144   5.972   7.556 -2.6449 -4.8491 -1.5505
   85CHL1  H16B 8719   3.079   6.140   7.512 -0.1038  1.3772 -4.4411
   85CHL1   C17 8720   2.939   5.971   7.489 -0.3135 -0.1063 -0.1136
   85CHL1   H17 8721   2.873   6.053   7.453  0.1120 -0.2438 -1.2659
   85CHL1   C13 8722   2.935   5.873   7.378 -0.7711  0.1404  0.3339
   85CHL1   C18 8723   3.024   5.751   7.410 -0.6971  0.6127 -0.0751
   85CHL1  H18A 8724   3.048   5.688   7.322 -0.0998  0.7557 -0.0144
   85CHL1  H18B 8725   3.121   5.778   7.456  0.0646  1.5714 -2.1209
   85CHL1  H18C 8726   2.973   5.687   7.486  2.8146 -2.1236  0.2023
   85CHL1   C12 8727   2.796   5.828   7.330 -0.4362  0.4335 -0.0165
   85CHL1  H12A 8728   2.738   5.765   7.401 -0.6528  0.8978  0.2217
   85CHL1  H12B 8729   2.739   5.923   7.323  0.6251  1.0232 -1.0223
   85CHL1   C11 8730   2.806   5.754   7.195  0.3208 -0.5028  0.8069
   85CHL1  H11A 8731   2.853   5.660   7.229 -0.5159 -0.8763  0.9582
   85CHL1  H11B 8732   2.702   5.736   7.159 -0.1880  0.2214  1.8578
   85CHL1    C9 8733   2.894   5.822   7.086 -0.1429 -0.4613 -0.4844
   85CHL1    H9 8734   2.834   5.912   7.059 -0.8836 -0.8498 -0.1787
   85CHL1   C10 8735   2.906   5.747   6.950  1.0890  0.0688 -0.0841
   85CHL1   C19 8736   2.982   5.611   6.982 -0.0319 -0.4695  0.7917
   85CHL1  H19A 8737   2.988   5.545   6.893  1.7761  0.8323 -0.1238
   85CHL1  H19B 8738   3.084   5.631   7.022  0.4623 -0.5526 -0.3959
   85CHL1  H19C 8739   2.925   5.554   7.058  1.6642 -0.0225  2.5118
   85CHL1    C1 8740   2.765   5.725   6.891  0.1509 -0.2814 -0.8423
   85CHL1   H1A 8741   2.700   5.657   6.949 -0.5539  0.4281 -0.7844
   85CHL1   H1B 8742   2.716   5.825   6.896  1.4291  0.3295  0.1314
   85CHL1    C2 8743   2.763   5.694   6.739  0.7677 -0.6602  0.0249
   85CHL1   H2A 8744   2.659   5.700   6.702  1.2024 -0.7461 -1.2416
   85CHL1   H2B 8745   2.797   5.591   6.715  0.3180 -1.0342  0.9316
   85CHL1   C20 8746   2.883   5.925   7.621  0.0089 -0.1879  0.0656
   85CHL1   H20 8747   2.808   5.844   7.609 -0.7010  0.5610 -0.6759
   85CHL1   C21 8748   2.805   6.040   7.688  0.2594 -0.6350  0.1341
   85CHL1  H21A 8749   2.742   6.007   7.774 -0.3925 -0.4944 -0.2785
   85CHL1  H21B 8750   2.731   6.087   7.619  0.5267 -0.8456 -0.3000
   85CHL1  H21C 8751   2.878   6.113   7.728 -1.1045  0.5494  0.5856
   85CHL1   C22 8752   2.984   5.861   7.726  0.0157 -0.7826 -0.3981
   85CHL1  H22A 8753   3.050   5.785   7.680  2.0640  1.7554 -1.9824
   85CHL1  H22B 8754   3.049   5.950   7.744 -1.4143 -0.1202  1.9638
   85CHL1   C23 8755   2.909   5.819   7.857  0.0135 -0.2526  0.5376
   85CHL1  H23A 8756   2.855   5.903   7.905 -0.1057  0.9218 -1.5216
   85CHL1  H23B 8757   2.841   5.737   7.827 -0.7300  0.3147  0.6508
   85CHL1   C24 8758   2.992   5.761   7.964 -0.4672  0.0843 -0.5653
   85CHL1  H24A 8759   3.074   5.700   7.921  0.2970  1.0149 -0.4668
   85CHL1  H24B 8760   3.047   5.841   8.018  1.4811 -2.0735  0.8405
   85CHL1   C25 8761   2.919   5.694   8.085 -0.0135  0.7752  0.3628
   85CHL1   H25 8762   2.874   5.600   8.045  1.3877 -0.1301  0.8157
   85CHL1   C26 8763   3.027   5.649   8.184 -0.3621  0.1573  0.0904
   85CHL1  H26A 8764   3.075   5.734   8.238  0.7622 -2.2592  3.1826
   85CHL1  H26B 8765   2.991   5.591   8.272 -0.5801  1.5401  0.9406
   85CHL1  H26C 8766   3.109   5.603   8.125  0.7399 -0.6777  2.1623
   85CHL1   C27 8767   2.816   5.776   8.151  0.0108 -0.8687 -0.5477
   85CHL1  H27A 8768   2.863   5.872   8.183 -2.6478 -0.4951  2.8111
   85CHL1  H27B 8769   2.730   5.793   8.084 -0.3906 -0.0006  0.1560
   85CHL1  H27C 8770   2.773   5.721   8.237  2.3099  2.0070  2.7215
   86CHL1    C3 8771   1.100   1.293   6.963 -0.3936  0.1456  0.0513
   86CHL1    H3 8772   1.201   1.329   6.992  0.2514 -1.2533 -0.3750
   86CHL1    O3 8773   1.087   1.305   6.824 -0.0354  0.2571  0.1429
   86CHL1   H3' 8774   0.993   1.288   6.814  0.1861 -1.0610  0.1328
   86CHL1    C4 8775   1.095   1.146   7.000 -0.7474  0.4484 -0.1785
   86CHL1   H4A 8776   1.004   1.103   6.952 -1.7036  0.0817  1.8770
   86CHL1   H4B 8777   1.177   1.104   6.939  0.1193 -0.8778  1.8251
   86CHL1    C5 8778   1.105   1.112   7.145  0.0452  0.0533  0.5961
   86CHL1    C6 8779   1.190   1.027   7.197  0.0528 -0.0307 -0.5265
   86CHL1    H6 8780   1.272   0.979   7.141 -0.1417 -1.1473  0.1192
   86CHL1    C7 8781   1.198   0.982   7.341  0.4162 -0.8170 -0.1732
   86CHL1   H7A 8782   1.201   0.872   7.351  1.2529 -0.6931  1.1125
   86CHL1   H7B 8783   1.291   1.025   7.384  0.8962 -1.3530 -0.6511
   86CHL1    C8 8784   1.076   1.042   7.421  0.5875 -0.5898  0.4863
   86CHL1    H8 8785   0.992   0.971   7.409  0.6345 -0.5903  0.1559
   86CHL1   C14 8786   1.112   1.054   7.570 -1.0479  0.0165 -0.2482
   86CHL1   H14 8787   1.192   1.131   7.568 -1.3904  0.3797 -2.2731
   86CHL1   C15 8788   1.193   0.935   7.635  0.1005 -0.1638  0.1808
   86CHL1  H15A 8789   1.140   0.838   7.625  1.5694 -1.3041  2.7120
   86CHL1  H15B 8790   1.299   0.929   7.605  1.0467 -4.2940  3.4799
   86CHL1   C16 8791   1.185   0.967   7.786 -0.7070 -0.0996 -0.0413
   86CHL1  H16A 8792   1.161   0.872   7.838 -1.3193  0.4571  0.7203
   86CHL1  H16B 8793   1.288   1.002   7.806 -0.6894  1.1608 -2.0166
   86CHL1   C17 8794   1.078   1.079   7.807  0.7604  0.1429  0.2261
   86CHL1   H17 8795   1.127   1.178   7.819 -0.4777  1.2438 -2.7924
   86CHL1   C13 8796   1.005   1.093   7.672 -0.5488  0.4642  0.4580
   86CHL1   C18 8797   0.890   0.982   7.668  0.0291  0.0072  0.1946
   86CHL1  H18A 8798   0.799   1.023   7.716  1.0186 -2.3160  4.6427
   86CHL1  H18B 8799   0.862   0.965   7.562  0.8990  1.0421 -0.2246
   86CHL1  H18C 8800   0.907   0.886   7.721 -1.0207 -1.5832 -2.1934
   86CHL1   C12 8801   0.960   1.230   7.626  0.4141 -0.3624  0.1001
   86CHL1  H12A 8802   0.871   1.255   7.688  0.9983 -1.7723  1.5758
   86CHL1  H12B 8803   1.031   1.314   7.645  0.9968 -0.7590 -0.2876
   86CHL1   C11 8804   0.918   1.237   7.472 -0.0271 -0.7823  0.1417
   86CHL1  H11A 8805   0.823   1.182   7.462 -0.2168 -0.2886 -0.8109
   86CHL1  H11B 8806   0.895   1.346   7.465  0.6671 -0.5071  1.5911
   86CHL1    C9 8807   1.027   1.183   7.379 -0.9437  0.1195 -0.9498
   86CHL1    H9 8808   1.106   1.259   7.397 -2.0636  1.4026 -1.2945
   86CHL1   C10 8809   1.004   1.193   7.225  0.7310  0.0580 -0.4114
   86CHL1   C19 8810   0.858   1.141   7.194 -0.2899  0.4504  0.2030
   86CHL1  H19A 8811   0.794   1.209   7.255  2.1103  2.5857  0.5174
   86CHL1  H19B 8812   0.836   1.153   7.086 -0.2278  0.3720  0.1820
   86CHL1  H19C 8813   0.850   1.033   7.218 -0.5014  0.3014 -0.5269
   86CHL1    C1 8814   1.013   1.350   7.195  0.2239 -0.0003 -0.7460
   86CHL1   H1A 8815   0.939   1.416   7.245  0.0551  1.1785 -2.4667
   86CHL1   H1B 8816   1.111   1.391   7.229  0.1124  0.9548 -1.5136
   86CHL1    C2 8817   0.996   1.380   7.042  0.6459  0.4855  0.1071
   86CHL1   H2A 8818   1.018   1.487   7.021 -0.3888  0.6329 -0.2710
   86CHL1   H2B 8819   0.893   1.354   7.010  0.5762 -1.4514  1.7273
   86CHL1   C20 8820   0.997   1.059   7.933 -0.5387  0.1179 -0.1545
   86CHL1   H20 8821   0.945   0.961   7.933 -0.7913  0.2383 -1.2704
   86CHL1   C21 8822   0.899   1.175   7.947  0.0250  0.1594 -0.3943
   86CHL1  H21A 8823   0.851   1.169   8.047 -1.6135 -0.0476 -1.1695
   86CHL1  H21B 8824   0.820   1.173   7.870 -0.5846 -0.3427  0.2329
   86CHL1  H21C 8825   0.950   1.274   7.941 -1.5754  1.0332 -0.1231
   86CHL1   C22 8826   1.100   1.062   8.056  0.0063 -0.1350 -0.4741
   86CHL1  H22A 8827   1.173   0.982   8.033 -2.2111 -2.2703 -0.4858
   86CHL1  H22B 8828   1.135   1.167   8.061 -3.8888  1.2885  2.0025
   86CHL1   C23 8829   1.053   1.018   8.193  0.0821  0.1477 -0.2464
   86CHL1  H23A 8830   0.965   1.080   8.222  0.3143 -0.2259  1.3123
   86CHL1  H23B 8831   1.023   0.912   8.184 -1.0845  0.3993  0.5776
   86CHL1   C24 8832   1.159   1.032   8.299 -0.3536 -0.0060  0.5621
   86CHL1  H24A 8833   1.242   0.963   8.271 -0.3547  0.4275 -0.5418
   86CHL1  H24B 8834   1.199   1.135   8.296 -2.8158  1.0111  0.8132
   86CHL1   C25 8835   1.107   1.004   8.442  0.1700  1.0558 -0.7588
   86CHL1   H25 8836   1.025   1.076   8.461 -0.1483  0.4903  0.0582
   86CHL1   C26 8837   1.035   0.869   8.459  0.3084  0.6145 -0.2591
   86CHL1  H26A 8838   1.108   0.788   8.438 -1.2493 -0.7530 -0.5781
   86CHL1  H26B 8839   0.990   0.856   8.560 -0.9266 -0.2074 -0.8845
   86CHL1  H26C 8840   0.949   0.862   8.389  0.7002 -1.1609 -0.6216
   86CHL1   C27 8841   1.212   1.017   8.547 -0.3016  0.0049  0.8237
   86CHL1  H27A 8842   1.267   1.113   8.538 -3.1139  1.6676  0.5104
   86CHL1  H27B 8843   1.171   1.014   8.650 -3.8854 -0.1822 -0.4678
   86CHL1  H27C 8844   1.289   0.938   8.530 -0.2814 -0.4294  2.7198
   87CHL1    C3 8845   0.812   6.643   6.933 -0.3046  0.8617 -0.5100
   87CHL1    H3 8846   0.829   6.546   6.882 -1.1109  1.2504 -1.5516
   87CHL1    O3 8847   0.813   6.740   6.834 -0.0827  0.1102  0.4276
   87CHL1   H3' 8848   0.775   6.816   6.879 -0.1365 -0.2034  0.9116
   87CHL1    C4 8849   0.670   6.650   6.985 -0.1296  0.0124 -0.4001
   87CHL1   H4A 8850   0.636   6.752   7.013  1.5369 -0.0487  2.1121
   87CHL1   H4B 8851   0.604   6.624   6.899  1.1654  0.1188 -1.4567
   87CHL1    C5 8852   0.658   6.544   7.096  0.5523  1.0594  0.9308
   87CHL1    C6 8853   0.571   6.449   7.085  0.6837  0.5771  0.0501
   87CHL1    H6 8854   0.508   6.442   6.995 -0.1834  0.5980  0.6566
   87CHL1    C7 8855   0.541   6.354   7.198  0.1684 -0.4694  0.6187
   87CHL1   H7A 8856   0.431   6.338   7.206 -0.3620  3.0827  2.6095
   87CHL1   H7B 8857   0.599   6.262   7.178  1.5530  0.3303  0.7967
   87CHL1    C8 8858   0.591   6.395   7.336 -0.1782  0.3813 -0.3591
   87CHL1    H8 8859   0.522   6.472   7.377  1.1144  1.2818  0.2082
   87CHL1   C14 8860   0.578   6.277   7.437 -0.2960 -0.5294 -0.7625
   87CHL1   H14 8861   0.651   6.206   7.394 -1.1578 -0.4178 -2.4963
   87CHL1   C15 8862   0.442   6.198   7.447  0.2174  0.2426 -0.3618
   87CHL1  H15A 8863   0.370   6.283   7.440 -0.4086 -0.1070  1.3871
   87CHL1  H15B 8864   0.429   6.138   7.354  3.5705  0.8729 -1.3733
   87CHL1   C16 8865   0.461   6.121   7.571  0.2089 -0.7202  0.0811
   87CHL1  H16A 8866   0.369   6.141   7.631  0.4866  0.3191  0.1802
   87CHL1  H16B 8867   0.466   6.012   7.547  1.7598 -0.8701  0.9655
   87CHL1   C17 8868   0.588   6.173   7.647 -0.0194  0.4870  0.1393
   87CHL1   H17 8869   0.664   6.099   7.614  0.0583  1.2860 -1.5985
   87CHL1   C13 8870   0.631   6.308   7.580 -0.8630  0.0934 -0.8609
   87CHL1   C18 8871   0.557   6.429   7.642  0.5861 -0.1356  0.3981
   87CHL1  H18A 8872   0.616   6.446   7.735  0.7178  0.0608  0.2783
   87CHL1  H18B 8873   0.561   6.524   7.584 -2.8409  1.6498  2.7400
   87CHL1  H18C 8874   0.455   6.398   7.671  0.4202 -0.4613 -0.5256
   87CHL1   C12 8875   0.780   6.355   7.570  0.5272 -0.9557 -0.4557
   87CHL1  H12A 8876   0.814   6.389   7.669  2.6192 -1.6670 -0.8864
   87CHL1  H12B 8877   0.850   6.279   7.529  0.3989 -1.3821  0.1070
   87CHL1   C11 8878   0.795   6.470   7.465  0.2324 -0.4810 -0.5724
   87CHL1  H11A 8879   0.750   6.559   7.513  2.2493  0.7202 -0.7653
   87CHL1  H11B 8880   0.904   6.493   7.459  0.5346 -1.9230 -0.9646
   87CHL1    C9 8881   0.738   6.442   7.328  0.7353 -0.3350  0.1362
   87CHL1    H9 8882   0.798   6.355   7.293  1.1522  0.2597 -0.6723
   87CHL1   C10 8883   0.752   6.560   7.218 -0.5014 -0.0954 -0.3601
   87CHL1   C19 8884   0.715   6.697   7.290 -0.3605  0.2073 -0.4430
   87CHL1  H19A 8885   0.801   6.735   7.349 -0.9475 -0.3771  0.8293
   87CHL1  H19B 8886   0.703   6.781   7.218  0.0758  1.6136  1.0466
   87CHL1  H19C 8887   0.620   6.685   7.348 -0.3402 -1.4083 -0.7109
   87CHL1    C1 8888   0.897   6.568   7.168 -0.1955  0.4856  0.8426
   87CHL1   H1A 8889   0.967   6.601   7.249  1.3560  0.6909 -0.5197
   87CHL1   H1B 8890   0.934   6.476   7.119  0.9628  1.2006  0.3241
   87CHL1    C2 8891   0.912   6.665   7.048 -0.2168  0.0132  0.9729
   87CHL1   H2A 8892   1.012   6.651   7.003 -0.4817  1.1300  0.0201
   87CHL1   H2B 8893   0.905   6.771   7.078 -1.1921  1.0196 -2.3873
   87CHL1   C20 8894   0.571   6.168   7.800  0.2966  0.5215 -0.4495
   87CHL1   H20 8895   0.501   6.251   7.825 -0.6245 -0.1860 -0.6124
   87CHL1   C21 8896   0.705   6.188   7.870 -0.0195 -0.4831  0.4789
   87CHL1  H21A 8897   0.701   6.186   7.981 -0.0355 -1.0629  0.4707
   87CHL1  H21B 8898   0.754   6.285   7.847  1.8924 -1.7176 -0.9379
   87CHL1  H21C 8899   0.775   6.110   7.833 -1.2856 -1.5182  0.1368
   87CHL1   C22 8900   0.513   6.033   7.847  0.4452 -0.7933  0.0108
   87CHL1  H22A 8901   0.406   6.025   7.819  0.8458 -2.6430 -1.2452
   87CHL1  H22B 8902   0.558   5.956   7.781  2.0768 -0.2991  0.5073
   87CHL1   C23 8903   0.516   6.000   7.996  0.0966 -0.3359  0.3702
   87CHL1  H23A 8904   0.622   6.004   8.027 -0.0813 -0.6727  1.0267
   87CHL1  H23B 8905   0.479   6.087   8.054  2.0907  0.7477  0.0928
   87CHL1   C24 8906   0.448   5.863   8.023 -0.3494  0.7907 -0.0383
   87CHL1  H24A 8907   0.349   5.862   7.973 -1.2295 -2.1428  1.4972
   87CHL1  H24B 8908   0.504   5.777   7.982 -1.0039 -0.7031  2.0502
   87CHL1   C25 8909   0.425   5.825   8.170  0.2932 -0.0978  0.9043
   87CHL1   H25 8910   0.382   5.722   8.170  0.1554 -0.0928 -1.4126
   87CHL1   C26 8911   0.551   5.823   8.263  0.1581  0.2980 -0.4719
   87CHL1  H26A 8912   0.643   5.822   8.200  2.5585 -0.0345  2.8088
   87CHL1  H26B 8913   0.558   5.903   8.339 -2.1803 -1.8550  2.2464
   87CHL1  H26C 8914   0.541   5.731   8.325 -2.4398  1.3355  0.7752
   87CHL1   C27 8915   0.329   5.925   8.232 -0.5263  0.3704 -0.3338
   87CHL1  H27A 8916   0.350   6.030   8.205  0.6706 -0.1151 -1.4105
   87CHL1  H27B 8917   0.224   5.912   8.198  0.2517  1.5575 -3.5403
   87CHL1  H27C 8918   0.326   5.901   8.340 -1.3465  0.7069 -0.2716
   88CHL1    C3 8919   5.437   6.313   6.876  0.1216  0.2085  0.0622
   88CHL1    H3 8920   5.457   6.210   6.913  4.9357  0.7072 -0.5983
   88CHL1    O3 8921   5.526   6.343   6.772  0.1443 -0.0291 -0.0324
   88CHL1   H3' 8922   5.503   6.287   6.696 -0.6042  1.0197 -0.6066
   88CHL1    C4 8923   5.293   6.305   6.826  0.4672  0.2844 -0.4874
   88CHL1   H4A 8924   5.260   6.399   6.777 -2.9295 -0.3758  0.3230
   88CHL1   H4B 8925   5.292   6.223   6.751 -0.5997 -1.4297  1.3143
   88CHL1    C5 8926   5.203   6.271   6.940  0.3544 -0.3834 -0.6269
   88CHL1    C6 8927   5.132   6.157   6.942  0.4002 -0.3049  0.2420
   88CHL1    H6 8928   5.138   6.098   6.850  4.0851  1.5895 -0.9408
   88CHL1    C7 8929   5.029   6.125   7.046 -0.2273  0.3412 -0.6218
   88CHL1   H7A 8930   4.929   6.099   7.003 -0.9590 -0.9744  1.7139
   88CHL1   H7B 8931   5.061   6.040   7.110 -0.6598 -2.1367 -3.4226
   88CHL1    C8 8932   5.003   6.246   7.141 -0.1765 -0.4679 -0.0182
   88CHL1    H8 8933   4.945   6.326   7.091  2.0387  1.6051  0.5569
   88CHL1   C14 8934   4.929   6.190   7.262 -0.2581 -0.4000 -0.7100
   88CHL1   H14 8935   5.001   6.123   7.315 -0.9020 -1.1302 -0.7318
   88CHL1   C15 8936   4.804   6.110   7.237  0.2340  0.2539 -0.3854
   88CHL1  H15A 8937   4.729   6.167   7.179 -0.8338  0.4100  1.1169
   88CHL1  H15B 8938   4.823   6.012   7.187 -2.2169 -1.9909  2.6719
   88CHL1   C16 8939   4.746   6.087   7.381 -0.5886 -0.7185  0.6658
   88CHL1  H16A 8940   4.637   6.107   7.375 -0.5810 -0.8508 -0.0634
   88CHL1  H16B 8941   4.777   5.990   7.426 -0.6829 -1.3294 -0.5396
   88CHL1   C17 8942   4.814   6.191   7.471 -0.4616  0.1545  0.2601
   88CHL1   H17 8943   4.891   6.123   7.515 -0.9528  0.1629  1.1587
   88CHL1   C13 8944   4.887   6.287   7.375 -0.2060 -0.1642  0.6042
   88CHL1   C18 8945   4.784   6.394   7.326 -0.2870  0.4213 -0.2197
   88CHL1  H18A 8946   4.824   6.439   7.233 -0.7815  0.3502 -0.4681
   88CHL1  H18B 8947   4.686   6.342   7.315  0.4114 -1.3423  1.2475
   88CHL1  H18C 8948   4.767   6.470   7.405 -1.8121 -0.4806  0.3630
   88CHL1   C12 8949   5.009   6.362   7.417  0.6212 -0.9185 -0.8568
   88CHL1  H12A 8950   4.994   6.441   7.494  0.1828 -2.0457  0.2514
   88CHL1  H12B 8951   5.093   6.301   7.456  1.2480  0.9416  0.8729
   88CHL1   C11 8952   5.081   6.431   7.287 -0.2336  0.8377 -0.8970
   88CHL1  H11A 8953   5.008   6.499   7.239  0.7902  2.2531 -0.5008
   88CHL1  H11B 8954   5.168   6.491   7.321 -1.1417  0.6533  2.0470
   88CHL1    C9 8955   5.130   6.323   7.182  0.1116 -0.8270 -0.1465
   88CHL1    H9 8956   5.189   6.242   7.229  0.0958 -1.1856 -0.7285
   88CHL1   C10 8957   5.201   6.374   7.059  1.0713  0.0598  0.3513
   88CHL1   C19 8958   5.144   6.503   7.015  0.3608 -0.0672  0.5688
   88CHL1  H19A 8959   5.040   6.482   6.983  0.8234 -0.2997 -0.8528
   88CHL1  H19B 8960   5.146   6.580   7.095  0.3458 -0.5562  1.0394
   88CHL1  H19C 8961   5.199   6.548   6.929 -1.0943 -0.4068 -0.5751
   88CHL1    C1 8962   5.355   6.373   7.100 -0.3281  0.3588 -0.2002
   88CHL1   H1A 8963   5.370   6.437   7.190 -1.0260 -0.3675  0.4497
   88CHL1   H1B 8964   5.375   6.268   7.128  1.0658  0.5527 -0.4175
   88CHL1    C2 8965   5.461   6.404   6.989  0.0783 -0.0822 -0.6035
   88CHL1   H2A 8966   5.563   6.383   7.028 -0.3932 -0.7138  0.3188
   88CHL1   H2B 8967   5.452   6.511   6.961 -0.9004  0.0130  0.0008
   88CHL1   C20 8968   4.734   6.248   7.590  0.3821 -0.0515  0.1904
   88CHL1   H20 8969   4.654   6.304   7.536  0.9274 -2.3198 -3.2794
   88CHL1   C21 8970   4.810   6.350   7.682  0.4390  0.3069  0.6349
   88CHL1  H21A 8971   4.742   6.397   7.756 -1.3905  2.8154 -2.3538
   88CHL1  H21B 8972   4.842   6.438   7.622 -2.2349  2.0671  1.5935
   88CHL1  H21C 8973   4.903   6.312   7.729  0.9551 -0.2291 -0.7465
   88CHL1   C22 8974   4.676   6.128   7.674 -0.8775 -0.4442  0.2643
   88CHL1  H22A 8975   4.605   6.070   7.612 -1.9791  0.5446  0.5666
   88CHL1  H22B 8976   4.762   6.062   7.699 -1.2615 -1.2729 -0.5666
   88CHL1   C23 8977   4.606   6.152   7.814 -0.9458 -0.0048  0.7676
   88CHL1  H23A 8978   4.661   6.229   7.872 -2.9743 -0.9397  4.1496
   88CHL1  H23B 8979   4.500   6.179   7.791 -1.1418 -2.2167 -1.3329
   88CHL1   C24 8980   4.606   6.020   7.888  0.6140  1.0771 -0.7577
   88CHL1  H24A 8981   4.557   5.931   7.842 -1.6438 -0.4241  3.9432
   88CHL1  H24B 8982   4.715   6.000   7.889  0.5203  0.4619 -1.6510
   88CHL1   C25 8983   4.558   6.039   8.028 -0.1099 -0.0094 -0.0144
   88CHL1   H25 8984   4.628   6.118   8.062 -1.2767  1.3600 -0.6965
   88CHL1   C26 8985   4.419   6.105   8.051 -0.6304  0.4701  0.2535
   88CHL1  H26A 8986   4.407   6.195   7.987 -2.2476 -0.6409 -1.0708
   88CHL1  H26B 8987   4.341   6.028   8.032 -1.5797  1.8498 -1.6718
   88CHL1  H26C 8988   4.404   6.138   8.156 -0.1954  0.7566  0.2288
   88CHL1   C27 8989   4.585   5.909   8.104  0.0752 -0.0438  0.4495
   88CHL1  H27A 8990   4.511   5.835   8.068 -0.8294  1.2376 -0.4151
   88CHL1  H27B 8991   4.684   5.862   8.086  0.4214  1.4847 -2.1092
   88CHL1  H27C 8992   4.566   5.929   8.212  0.1587  1.5387  0.1989
   89CHL1    C3 8993   1.516   0.164   6.906 -0.5449 -0.0837  0.3146
   89CHL1    H3 8994   1.426   0.104   6.931 -1.6746  0.4252 -2.2063
   89CHL1    O3 8995   1.527   0.186   6.766 -0.0837 -0.2394  0.0756
   89CHL1   H3' 8996   1.619   0.211   6.750  0.4220 -0.6345  2.0860
   89CHL1    C4 8997   1.503   0.299   6.985  0.0828 -0.7374 -0.2536
   89CHL1   H4A 8998   1.592   0.363   6.971  0.3405 -0.7404  1.2103
   89CHL1   H4B 8999   1.412   0.347   6.943  0.1188  0.4430  0.9710
   89CHL1    C5 9000   1.488   0.275   7.132  0.0238  0.1578  0.4092
   89CHL1    C6 9001   1.393   0.339   7.201 -0.6611 -0.4189 -0.4558
   89CHL1    H6 9002   1.332   0.407   7.139  2.6790  2.2793 -1.1309
   89CHL1    C7 9003   1.366   0.312   7.348 -0.1130 -0.0412  0.2194
   89CHL1   H7A 9004   1.337   0.402   7.408  1.1671  0.6240 -0.1224
   89CHL1   H7B 9005   1.273   0.253   7.359 -0.3314  0.4724  1.3271
   89CHL1    C8 9006   1.484   0.235   7.411 -0.5413 -0.0499  0.2632
   89CHL1    H8 9007   1.566   0.307   7.431 -0.4018  0.4993 -2.0349
   89CHL1   C14 9008   1.436   0.176   7.544 -0.4029  0.1469 -0.6228
   89CHL1   H14 9009   1.364   0.096   7.515 -0.2942 -0.4478  0.6751
   89CHL1   C15 9010   1.353   0.257   7.643  0.3113  0.3149 -0.6515
   89CHL1  H15A 9011   1.399   0.357   7.656  2.1028 -0.4482 -0.8015
   89CHL1  H15B 9012   1.246   0.273   7.619 -0.0691  1.3708  1.5361
   89CHL1   C16 9013   1.368   0.188   7.778 -0.0117  0.0124  0.2843
   89CHL1  H16A 9014   1.399   0.258   7.858  0.9027  0.8734 -0.7921
   89CHL1  H16B 9015   1.271   0.139   7.805 -0.5436  0.0833 -1.3835
   89CHL1   C17 9016   1.471   0.070   7.753 -0.2648  0.5666 -0.4316
   89CHL1   H17 9017   1.418  -0.022   7.720  2.5532 -0.6645 -1.8928
   89CHL1   C13 9018   1.549   0.109   7.626  0.4680 -0.0928 -0.5535
   89CHL1   C18 9019   1.654   0.213   7.669  0.6564  0.0635  0.2294
   89CHL1  H18A 9020   1.613   0.291   7.737  3.1836  0.3758  1.4909
   89CHL1  H18B 9021   1.724   0.153   7.731 -2.4247 -1.8218  2.2141
   89CHL1  H18C 9022   1.717   0.260   7.591  0.7840  1.4507  1.1467
   89CHL1   C12 9023   1.614  -0.002   7.546  0.7097  0.2843  0.5644
   89CHL1  H12A 9024   1.701  -0.049   7.597 -1.1738 -3.2800  0.8258
   89CHL1  H12B 9025   1.541  -0.086   7.541  1.0950  0.0072 -0.9761
   89CHL1   C11 9026   1.660   0.048   7.409  0.8445 -0.9505 -0.1035
   89CHL1  H11A 9027   1.741   0.122   7.429 -0.4887  0.2528  1.0481
   89CHL1  H11B 9028   1.710  -0.039   7.362  3.5727 -0.5589  1.8028
   89CHL1    C9 9029   1.548   0.121   7.323  0.3554 -0.8581  0.4041
   89CHL1    H9 9030   1.470   0.046   7.301 -1.5390  1.3501 -0.8405
   89CHL1   C10 9031   1.588   0.175   7.184  0.1733  0.5712  0.5416
   89CHL1   C19 9032   1.726   0.248   7.195  0.6154 -1.0368 -0.3472
   89CHL1  H19A 9033   1.722   0.345   7.250  2.6522 -0.7794 -0.5836
   89CHL1  H19B 9034   1.805   0.187   7.243  0.5265 -1.5049 -0.7931
   89CHL1  H19C 9035   1.772   0.285   7.100  3.4089 -0.3378  1.1616
   89CHL1    C1 9036   1.623   0.047   7.093 -1.0407  0.0918 -0.1078
   89CHL1   H1A 9037   1.711  -0.012   7.127 -1.4875  0.5704  2.0535
   89CHL1   H1B 9038   1.531  -0.017   7.097 -1.0826  0.1409 -0.2782
   89CHL1    C2 9039   1.637   0.082   6.944  0.1272  0.0876 -0.5294
   89CHL1   H2A 9040   1.636  -0.012   6.884 -0.4448  0.8118 -1.6855
   89CHL1   H2B 9041   1.731   0.139   6.930  0.4426 -0.7173 -1.8680
   89CHL1   C20 9042   1.543   0.016   7.880  0.5257  0.5016 -0.4243
   89CHL1   H20 9043   1.615   0.092   7.917 -0.0419  0.8942 -0.1122
   89CHL1   C21 9044   1.618  -0.114   7.847 -0.0611 -0.4836 -0.4106
   89CHL1  H21A 9045   1.716  -0.102   7.797 -1.5676  0.1210 -3.4934
   89CHL1  H21B 9046   1.556  -0.193   7.799  1.2284 -0.3690 -2.3907
   89CHL1  H21C 9047   1.648  -0.149   7.948 -0.5013 -0.9188 -0.4260
   89CHL1   C22 9048   1.443  -0.014   7.995  0.2528 -0.4056 -0.2376
   89CHL1  H22A 9049   1.364   0.063   8.001  0.4534 -0.2689  0.6698
   89CHL1  H22B 9050   1.386  -0.108   7.978  0.1030 -0.0874 -1.6204
   89CHL1   C23 9051   1.502  -0.021   8.141  0.2364  0.0705  0.8520
   89CHL1  H23A 9052   1.561  -0.114   8.151 -1.3315 -1.3403 -1.9190
   89CHL1  H23B 9053   1.570   0.066   8.155  1.9275 -0.5516 -2.5964
   89CHL1   C24 9054   1.388  -0.017   8.248  0.0785 -0.4192 -0.2068
   89CHL1  H24A 9055   1.319   0.069   8.234  1.0209  0.3918  0.0268
   89CHL1  H24B 9056   1.315  -0.099   8.230  2.4568 -2.5951 -0.5398
   89CHL1   C25 9057   1.444  -0.020   8.392  0.4837 -0.0124 -0.2775
   89CHL1   H25 9058   1.524  -0.096   8.397  1.0709  0.5986 -0.2276
   89CHL1   C26 9059   1.512   0.107   8.443  0.1348  0.7452 -0.2428
   89CHL1  H26A 9060   1.602   0.125   8.380 -0.5548  1.0394 -1.1630
   89CHL1  H26B 9061   1.449   0.198   8.444  1.2505  1.5429  0.2024
   89CHL1  H26C 9062   1.540   0.084   8.548  3.1100 -0.7265 -1.2334
   89CHL1   C27 9063   1.336  -0.052   8.502 -0.4406 -0.1097 -0.1042
   89CHL1  H27A 9064   1.292  -0.151   8.478 -2.9667  0.6411  1.1062
   89CHL1  H27B 9065   1.370  -0.040   8.607 -0.7108 -0.5694  0.0339
   89CHL1  H27C 9066   1.260   0.028   8.491  0.4282  0.9841  1.4142
   90CHL1    C3 9067   1.334   3.256   6.887 -1.0709  0.0289 -0.2519
   90CHL1    H3 9068   1.437   3.264   6.927 -1.6201 -2.1370  1.8119
   90CHL1    O3 9069   1.323   3.313   6.757 -0.0438 -0.6795  0.2115
   90CHL1   H3' 9070   1.262   3.269   6.698 -0.5509 -0.1487  0.3252
   90CHL1    C4 9071   1.302   3.108   6.868 -0.3873  0.3924 -0.1949
   90CHL1   H4A 9072   1.192   3.107   6.853 -0.5653 -1.1243  0.9722
   90CHL1   H4B 9073   1.350   3.064   6.778  1.2920  2.3490 -0.3336
   90CHL1    C5 9074   1.347   3.027   6.995  0.2729  0.8621 -0.2102
   90CHL1    C6 9075   1.448   2.941   6.995  0.3729  0.0301  0.0862
   90CHL1    H6 9076   1.495   2.913   6.900 -1.6680 -1.9124 -0.4480
   90CHL1    C7 9077   1.495   2.888   7.126  0.0928 -0.4178 -0.2006
   90CHL1   H7A 9078   1.526   2.783   7.109  1.3402 -0.1056  0.0172
   90CHL1   H7B 9079   1.595   2.932   7.147  1.3853 -3.8439  1.6537
   90CHL1    C8 9080   1.404   2.892   7.247 -0.2261  0.2735  0.1631
   90CHL1    H8 9081   1.324   2.815   7.244 -1.3219  1.3588  0.3685
   90CHL1   C14 9082   1.481   2.875   7.375  0.6351 -0.1881  0.1351
   90CHL1   H14 9083   1.552   2.961   7.375 -0.1628  0.4805 -0.0349
   90CHL1   C15 9084   1.565   2.742   7.391  0.4110 -0.2019 -0.1911
   90CHL1  H15A 9085   1.506   2.655   7.357  1.0300  0.0010 -1.8551
   90CHL1  H15B 9086   1.658   2.743   7.331  1.9710  2.8073  2.0018
   90CHL1   C16 9087   1.600   2.745   7.541 -0.3640 -0.2728  1.0491
   90CHL1  H16A 9088   1.581   2.649   7.593 -0.1818 -0.6976  0.3360
   90CHL1  H16B 9089   1.708   2.763   7.556 -0.3111  1.9862 -1.3378
   90CHL1   C17 9090   1.507   2.857   7.602  0.3825 -0.6112  0.1861
   90CHL1   H17 9091   1.558   2.955   7.593  0.6233 -0.5653  1.7761
   90CHL1   C13 9092   1.397   2.884   7.503 -0.1813 -0.8028  0.2731
   90CHL1   C18 9093   1.288   2.770   7.498 -0.2484 -0.4917 -0.4412
   90CHL1  H18A 9094   1.343   2.677   7.522  0.6529  0.5135  1.6692
   90CHL1  H18B 9095   1.206   2.773   7.573  1.2041 -2.7885  1.3937
   90CHL1  H18C 9096   1.240   2.760   7.398  1.1017  2.4564 -1.4920
   90CHL1   C12 9097   1.338   3.032   7.500 -0.4783  0.8326  0.0524
   90CHL1  H12A 9098   1.281   3.062   7.590 -0.6903 -0.7298  0.4783
   90CHL1  H12B 9099   1.425   3.101   7.497 -1.3435  1.9527 -0.2309
   90CHL1   C11 9100   1.259   3.056   7.370 -0.0646 -0.1703 -0.0994
   90CHL1  H11A 9101   1.166   2.997   7.382  0.1255 -0.7079 -1.2172
   90CHL1  H11B 9102   1.217   3.158   7.376 -2.7441 -1.2546  1.0245
   90CHL1    C9 9103   1.340   3.024   7.249  0.3517 -0.4965  0.4534
   90CHL1    H9 9104   1.427   3.092   7.261  0.3441 -0.5295  0.7089
   90CHL1   C10 9105   1.272   3.079   7.118 -0.1255 -0.4613  0.5936
   90CHL1   C19 9106   1.132   3.011   7.121  0.2514 -0.4019 -0.0150
   90CHL1  H19A 9107   1.085   3.021   7.020  0.5244  0.1629 -0.0872
   90CHL1  H19B 9108   1.138   2.901   7.140 -0.8356 -0.2792  1.1486
   90CHL1  H19C 9109   1.064   3.065   7.190  0.5315  2.2930 -1.6838
   90CHL1    C1 9110   1.260   3.242   7.125 -0.4962  0.0101  0.0829
   90CHL1   H1A 9111   1.178   3.263   7.197 -0.8437 -0.0572 -0.2899
   90CHL1   H1B 9112   1.357   3.286   7.154 -0.8127  0.6983  0.1381
   90CHL1    C2 9113   1.223   3.304   6.986 -0.5996  0.0486  0.1335
   90CHL1   H2A 9114   1.219   3.415   6.997  0.3497 -0.1062  2.7215
   90CHL1   H2B 9115   1.126   3.273   6.942  0.4136  0.1776 -2.3356
   90CHL1   C20 9116   1.466   2.838   7.747  0.0132  0.1255  0.3044
   90CHL1   H20 9117   1.388   2.911   7.780  0.2296  0.3217  0.3878
   90CHL1   C21 9118   1.591   2.869   7.827 -0.1177  0.1548 -0.7449
   90CHL1  H21A 9119   1.614   2.975   7.802  0.6278 -0.2327 -1.7585
   90CHL1  H21B 9120   1.678   2.807   7.797 -0.3765 -0.7118  0.2252
   90CHL1  H21C 9121   1.565   2.863   7.935 -1.2537 -1.1063 -1.0654
   90CHL1   C22 9122   1.408   2.703   7.787  0.0035 -0.9283 -0.0843
   90CHL1  H22A 9123   1.307   2.709   7.739 -0.0275  2.3472  0.1782
   90CHL1  H22B 9124   1.472   2.617   7.760 -3.3136 -3.3293 -1.0340
   90CHL1   C23 9125   1.384   2.679   7.936 -0.2715  0.7379 -0.4859
   90CHL1  H23A 9126   1.473   2.667   8.001  2.0184  0.0766 -3.5363
   90CHL1  H23B 9127   1.312   2.752   7.978 -2.5787 -1.6259 -0.0036
   90CHL1   C24 9128   1.307   2.550   7.955 -0.2698  0.1572  0.7559
   90CHL1  H24A 9129   1.215   2.551   7.893 -0.2776  2.8155  0.6970
   90CHL1  H24B 9130   1.383   2.469   7.947 -0.6266 -0.3284  1.9860
   90CHL1   C25 9131   1.273   2.519   8.100 -0.2170  0.3983 -0.4357
   90CHL1   H25 9132   1.355   2.558   8.164 -1.3687 -0.3401  1.5831
   90CHL1   C26 9133   1.147   2.603   8.142  0.0417  0.6431 -0.4040
   90CHL1  H26A 9134   1.069   2.586   8.064 -0.7605  0.1618  0.4670
   90CHL1  H26B 9135   1.120   2.578   8.247 -0.0366 -2.2768 -1.0152
   90CHL1  H26C 9136   1.165   2.712   8.134 -0.9418  0.7725 -1.0487
   90CHL1   C27 9137   1.241   2.370   8.132  0.2711  0.9827 -0.7455
   90CHL1  H27A 9138   1.234   2.358   8.243 -2.5609  2.1528 -0.7044
   90CHL1  H27B 9139   1.142   2.342   8.091  0.3909 -0.7100  0.0377
   90CHL1  H27C 9140   1.308   2.288   8.098  0.3314  0.6882  0.0528
   91CHL1    C3 9141   0.522   5.425   7.245 -0.2305  0.1148 -0.1382
   91CHL1    H3 9142   0.527   5.516   7.307 -0.7038 -1.1020  1.7645
   91CHL1    O3 9143   0.492   5.458   7.106 -0.8675 -0.4370 -0.8799
   91CHL1   H3' 9144   0.510   5.381   7.053 -1.8605  0.0395 -1.9416
   91CHL1    C4 9145   0.642   5.333   7.249 -0.2294 -0.4124  0.5165
   91CHL1   H4A 9146   0.620   5.237   7.198 -0.2022  0.3223 -0.9259
   91CHL1   H4B 9147   0.725   5.373   7.186 -2.3746  2.9036 -0.4553
   91CHL1    C5 9148   0.665   5.311   7.393  0.0605  0.4350 -0.3731
   91CHL1    C6 9149   0.788   5.337   7.444 -0.4610  0.0281 -0.5471
   91CHL1    H6 9150   0.864   5.386   7.380  0.4324 -1.4658 -0.6655
   91CHL1    C7 9151   0.823   5.303   7.586  0.0526  0.0562 -0.2337
   91CHL1   H7A 9152   0.926   5.261   7.591  2.1347  4.3135 -2.5987
   91CHL1   H7B 9153   0.820   5.403   7.634 -0.4520  1.2454 -2.6097
   91CHL1    C8 9154   0.727   5.201   7.656  0.6275 -0.6123  0.1974
   91CHL1    H8 9155   0.746   5.100   7.614  1.7569 -0.8398  1.2206
   91CHL1   C14 9156   0.767   5.176   7.803 -0.1065 -0.0317 -0.5114
   91CHL1   H14 9157   0.756   5.272   7.858  0.7865 -0.0076 -0.3701
   91CHL1   C15 9158   0.906   5.118   7.836  0.4276  0.1747  0.1909
   91CHL1  H15A 9159   0.941   5.038   7.767  3.0582  1.9065 -0.6129
   91CHL1  H15B 9160   0.978   5.202   7.835 -1.4407  1.8651  1.4459
   91CHL1   C16 9161   0.899   5.078   7.983 -0.5644  0.4147  0.1428
   91CHL1  H16A 9162   0.960   4.986   7.983  0.9308  1.3039  2.7594
   91CHL1  H16B 9163   0.943   5.147   8.058 -0.7779 -0.1064  0.7542
   91CHL1   C17 9164   0.748   5.055   8.013  0.4463  0.1122  0.6851
   91CHL1   H17 9165   0.718   5.154   8.055 -2.0004  0.3827 -1.4344
   91CHL1   C13 9166   0.677   5.073   7.873 -0.0491 -0.2220  0.1235
   91CHL1   C18 9167   0.682   4.932   7.801 -0.0702  0.7345  0.1424
   91CHL1  H18A 9168   0.788   4.897   7.802 -0.5720 -0.8541  0.1047
   91CHL1  H18B 9169   0.627   4.867   7.872  0.6230  0.2264  0.2326
   91CHL1  H18C 9170   0.635   4.927   7.701  0.9486 -2.3349 -0.2837
   91CHL1   C12 9171   0.536   5.133   7.865  0.5965 -0.2215 -0.3476
   91CHL1  H12A 9172   0.464   5.064   7.914 -0.2243  0.9553  0.1611
   91CHL1  H12B 9173   0.539   5.227   7.923 -0.5656  0.5560 -1.4857
   91CHL1   C11 9174   0.480   5.182   7.726 -0.0442  0.4018 -0.4636
   91CHL1  H11A 9175   0.454   5.080   7.691  0.2902 -1.2336  3.5505
   91CHL1  H11B 9176   0.390   5.246   7.742  0.1612  0.3442  1.0802
   91CHL1    C9 9177   0.582   5.247   7.632 -0.4133  0.2646  0.2922
   91CHL1    H9 9178   0.576   5.352   7.667  0.7662  1.0755 -1.7602
   91CHL1   C10 9179   0.555   5.244   7.476 -0.4243 -0.3679  0.3038
   91CHL1   C19 9180   0.532   5.102   7.418  0.1954  0.1737 -0.0440
   91CHL1  H19A 9181   0.528   5.102   7.307 -1.1146  2.3775 -0.0562
   91CHL1  H19B 9182   0.614   5.029   7.431  1.1636  1.0948 -0.8295
   91CHL1  H19C 9183   0.434   5.062   7.454  0.8662 -1.1793  0.3513
   91CHL1    C1 9184   0.430   5.332   7.461  0.0245  0.3627  0.3409
   91CHL1   H1A 9185   0.338   5.281   7.497 -0.4649  0.7822 -0.2816
   91CHL1   H1B 9186   0.445   5.431   7.510  1.3130  0.7273 -0.7381
   91CHL1    C2 9187   0.403   5.350   7.309 -0.4607  0.3123  0.1274
   91CHL1   H2A 9188   0.318   5.421   7.296 -1.0095 -0.1602  0.9799
   91CHL1   H2B 9189   0.387   5.256   7.251  2.1160 -0.7203  0.9608
   91CHL1   C20 9190   0.715   4.937   8.108 -0.0795 -0.6306 -0.3638
   91CHL1   H20 9191   0.729   4.846   8.045  0.3093 -0.5320 -0.4209
   91CHL1   C21 9192   0.566   4.927   8.151  0.1888  0.3556  0.4294
   91CHL1  H21A 9193   0.498   4.928   8.064 -0.6538 -0.3021  1.0653
   91CHL1  H21B 9194   0.537   5.009   8.220 -0.3441  0.1622  0.4401
   91CHL1  H21C 9195   0.553   4.829   8.202 -0.3547  0.4897  0.5556
   91CHL1   C22 9196   0.804   4.927   8.234  0.4362 -0.2423  0.7507
   91CHL1  H22A 9197   0.774   4.836   8.289 -3.7669 -0.2940 -1.2853
   91CHL1  H22B 9198   0.909   4.910   8.201 -0.2398 -0.3414 -1.5282
   91CHL1   C23 9199   0.802   5.048   8.331  0.3590 -0.4752 -0.4790
   91CHL1  H23A 9200   0.854   5.130   8.278  1.2031 -0.7953 -0.1597
   91CHL1  H23B 9201   0.695   5.076   8.344  0.3364 -0.6950 -0.1739
   91CHL1   C24 9202   0.866   5.009   8.474  0.3476  0.4327  0.2067
   91CHL1  H24A 9203   0.809   4.921   8.510 -2.0766  0.8287 -2.3201
   91CHL1  H24B 9204   0.963   4.961   8.448  0.8873  1.1136  0.8982
   91CHL1   C25 9205   0.878   5.125   8.566  0.1338  0.6451 -0.3739
   91CHL1   H25 9206   0.918   5.219   8.522  1.6939  1.1918  2.0547
   91CHL1   C26 9207   0.752   5.170   8.638 -0.1486  0.3855 -0.1684
   91CHL1  H26A 9208   0.774   5.267   8.688  0.4286  0.0570  0.2228
   91CHL1  H26B 9209   0.661   5.171   8.575  0.2828  0.6212 -0.8016
   91CHL1  H26C 9210   0.741   5.104   8.726 -1.2107 -0.9722 -1.2868
   91CHL1   C27 9211   0.981   5.079   8.671  0.6359 -0.2238 -0.1853
   91CHL1  H27A 9212   0.988   5.149   8.757 -1.7890  1.7002 -1.3981
   91CHL1  H27B 9213   0.964   4.981   8.719  0.4159  1.1191  2.7079
   91CHL1  H27C 9214   1.081   5.077   8.624  0.1082  1.6405 -1.4963
   92CHL1    C3 9215   4.743   0.084   6.804 -0.3216 -0.4667 -0.0291
   92CHL1    H3 9216   4.785   0.186   6.811  2.0527 -0.8873 -4.3775
   92CHL1    O3 9217   4.731   0.044   6.671  0.8156 -0.1142 -0.2010
   92CHL1   H3' 9218   4.654   0.088   6.631  0.7543 -1.1947 -1.3314
   92CHL1    C4 9219   4.841  -0.017   6.880 -0.5069  0.1528 -0.3975
   92CHL1   H4A 9220   4.808  -0.121   6.862 -0.8223 -0.2517  2.0773
   92CHL1   H4B 9221   4.941  -0.015   6.832 -0.1077 -0.2107  0.4007
   92CHL1    C5 9222   4.850  -0.004   7.031 -0.1523  0.4618  0.0701
   92CHL1    C6 9223   4.968   0.002   7.099 -0.1303  0.6897 -0.1858
   92CHL1    H6 9224   5.062  -0.017   7.045 -0.4609  2.1783 -1.3420
   92CHL1    C7 9225   4.974  -0.003   7.251  0.0757 -0.2775 -0.7456
   92CHL1   H7A 9226   5.038  -0.087   7.286 -0.0528  0.4493  1.4287
   92CHL1   H7B 9227   5.024   0.083   7.300 -0.4668 -1.1828  1.5716
   92CHL1    C8 9228   4.841  -0.018   7.322  0.6074 -0.3880 -0.3002
   92CHL1    H8 9229   4.822  -0.127   7.327  0.4353 -0.4127 -1.3344
   92CHL1   C14 9230   4.841   0.035   7.460 -0.4449 -0.9727 -0.2499
   92CHL1   H14 9231   4.871   0.141   7.450 -1.2238 -0.8153 -0.9543
   92CHL1   C15 9232   4.934  -0.029   7.559 -1.1311  0.1190 -0.2222
   92CHL1  H15A 9233   4.926  -0.139   7.547 -2.0904  0.3054 -1.4064
   92CHL1  H15B 9234   5.040  -0.000   7.539 -0.8015 -1.6710 -1.2555
   92CHL1   C16 9235   4.874   0.006   7.697 -0.3552 -0.0639 -0.6629
   92CHL1  H16A 9236   4.864  -0.090   7.753  0.1098 -0.4324 -1.1928
   92CHL1  H16B 9237   4.947   0.072   7.749 -0.6824 -0.1574 -0.0739
   92CHL1   C17 9238   4.738   0.063   7.669  0.6921 -0.2886  0.4222
   92CHL1   H17 9239   4.759   0.172   7.660  2.7643 -0.8036 -1.8473
   92CHL1   C13 9240   4.705   0.021   7.528  0.1760 -0.2982  0.3741
   92CHL1   C18 9241   4.654  -0.131   7.537  0.0644  0.3227 -0.0376
   92CHL1  H18A 9242   4.717  -0.191   7.607  1.3567  2.7238  0.9771
   92CHL1  H18B 9243   4.554  -0.125   7.585  1.1588 -0.8054  2.5793
   92CHL1  H18C 9244   4.641  -0.181   7.439 -0.0115 -2.8637  1.4503
   92CHL1   C12 9245   4.600   0.114   7.459  0.0827 -0.0291 -1.3388
   92CHL1  H12A 9246   4.504   0.101   7.512  1.2359  1.1092  1.1637
   92CHL1  H12B 9247   4.635   0.220   7.466 -2.2427  0.6479  2.9906
   92CHL1   C11 9248   4.589   0.075   7.312 -0.1832  0.3108 -0.3611
   92CHL1  H11A 9249   4.524  -0.014   7.301  0.2782  0.0985 -1.4607
   92CHL1  H11B 9250   4.525   0.157   7.272  0.9166  0.2080 -2.4494
   92CHL1    C9 9251   4.726   0.057   7.241 -0.9906  0.6899  0.3261
   92CHL1    H9 9252   4.760   0.161   7.224  0.7112  0.4606  1.9560
   92CHL1   C10 9253   4.711   0.005   7.097  0.1266 -0.1035 -0.3348
   92CHL1   C19 9254   4.651  -0.139   7.103 -0.5621  0.4259  0.4393
   92CHL1  H19A 9255   4.708  -0.213   7.162 -1.9445 -1.7208 -0.7792
   92CHL1  H19B 9256   4.549  -0.140   7.147 -0.9654 -1.3467 -0.4399
   92CHL1  H19C 9257   4.634  -0.192   7.007  0.6501  0.6191  0.1077
   92CHL1    C1 9258   4.610   0.094   7.020  0.4012 -0.3967  0.1746
   92CHL1   H1A 9259   4.511   0.079   7.069 -1.1061 -0.2893 -2.6455
   92CHL1   H1B 9260   4.654   0.195   7.038  1.3081 -0.3581 -1.9787
   92CHL1    C2 9261   4.603   0.072   6.869 -0.0702  0.4455  0.9921
   92CHL1   H2A 9262   4.543   0.156   6.827  2.2728  1.9372  0.4224
   92CHL1   H2B 9263   4.565  -0.030   6.849 -2.1404  1.0839  1.4157
   92CHL1   C20 9264   4.635   0.063   7.785  0.6533 -0.4529  0.4188
   92CHL1   H20 9265   4.530   0.069   7.749 -0.0332 -1.3273  2.1655
   92CHL1   C21 9266   4.662   0.185   7.869  1.1038 -0.0224  0.0706
   92CHL1  H21A 9267   4.571   0.203   7.930  0.3534  2.9096 -1.7113
   92CHL1  H21B 9268   4.671   0.281   7.814 -3.1685  0.4885 -0.1181
   92CHL1  H21C 9269   4.751   0.174   7.934  2.5885  1.6024 -1.5670
   92CHL1   C22 9270   4.624  -0.062   7.873 -0.1714 -0.9011  0.1479
   92CHL1  H22A 9271   4.646  -0.152   7.812  1.3972 -2.0136  2.2222
   92CHL1  H22B 9272   4.717  -0.051   7.932 -0.0874 -0.1428 -0.1125
   92CHL1   C23 9273   4.510  -0.057   7.970 -0.1285  0.6769 -0.7996
   92CHL1  H23A 9274   4.539  -0.010   8.066 -1.2129  1.2844 -0.7554
   92CHL1  H23B 9275   4.429   0.003   7.925 -0.3387  1.2630  0.3312
   92CHL1   C24 9276   4.469  -0.200   8.009 -0.3547 -0.2553  0.2610
   92CHL1  H24A 9277   4.432  -0.260   7.923  0.5309  1.0800 -1.1002
   92CHL1  H24B 9278   4.564  -0.247   8.045 -0.2823 -0.3954 -0.1031
   92CHL1   C25 9279   4.368  -0.212   8.127  0.1095  0.1576 -0.0972
   92CHL1   H25 9280   4.409  -0.162   8.218 -1.3719  1.8542 -0.2979
   92CHL1   C26 9281   4.234  -0.133   8.099  0.0095 -0.0844  0.2642
   92CHL1  H26A 9282   4.168  -0.195   8.034 -1.5352  0.4523  1.2566
   92CHL1  H26B 9283   4.188  -0.119   8.199  0.3194 -0.5479  0.4749
   92CHL1  H26C 9284   4.249  -0.038   8.045 -3.1544  0.1452 -0.4156
   92CHL1   C27 9285   4.334  -0.362   8.151 -0.3375 -0.7268 -0.0155
   92CHL1  H27A 9286   4.435  -0.404   8.171  0.4186  0.2922 -1.4958
   92CHL1  H27B 9287   4.260  -0.374   8.233  1.1917  0.0822  1.5718
   92CHL1  H27C 9288   4.283  -0.405   8.063 -1.6805 -3.6424  2.0458
   93CHL1    C3 9289   3.114   6.522   6.845  0.5970  0.0823  0.3263
   93CHL1    H3 9290   3.005   6.527   6.861  0.1413 -3.7965 -0.5135
   93CHL1    O3 9291   3.134   6.505   6.707 -0.4615 -0.2259  0.6699
   93CHL1   H3' 9292   3.055   6.462   6.673 -0.3690 -1.5330  2.0160
   93CHL1    C4 9293   3.171   6.660   6.874 -0.0480  0.3074  0.0259
   93CHL1   H4A 9294   3.280   6.661   6.850  0.2208  1.8889  1.1037
   93CHL1   H4B 9295   3.136   6.749   6.818 -1.8794  0.0235  0.6487
   93CHL1    C5 9296   3.164   6.695   7.020 -0.4452 -0.4435 -0.1267
   93CHL1    C6 9297   3.102   6.803   7.068 -0.1319 -0.1527  0.0498
   93CHL1    H6 9298   3.065   6.873   6.992 -0.6859  0.2497  0.6711
   93CHL1    C7 9299   3.084   6.840   7.216 -0.0784  0.3173  0.0669
   93CHL1   H7A 9300   3.114   6.946   7.236  4.1362 -0.5792 -0.5056
   93CHL1   H7B 9301   2.977   6.830   7.241 -0.1245  2.2733  0.8883
   93CHL1    C8 9302   3.155   6.744   7.311 -0.1935 -0.0949  0.6783
   93CHL1    H8 9303   3.258   6.781   7.331 -1.2134  2.8925  0.8906
   93CHL1   C14 9304   3.083   6.751   7.446  0.2238 -0.6442 -0.0227
   93CHL1   H14 9305   2.984   6.702   7.433 -0.7141  1.0524  0.3872
   93CHL1   C15 9306   3.048   6.888   7.509 -0.4517  0.1072 -0.1687
   93CHL1  H15A 9307   3.146   6.940   7.496 -0.6948  0.0410 -2.7803
   93CHL1  H15B 9308   2.970   6.947   7.457 -0.4454  0.2951  0.0380
   93CHL1   C16 9309   3.019   6.856   7.654 -0.0146 -0.1729  0.1996
   93CHL1  H16A 9310   3.081   6.909   7.730 -1.2405  2.0008 -0.2446
   93CHL1  H16B 9311   2.909   6.857   7.668 -0.1467 -0.5366 -0.7881
   93CHL1   C17 9312   3.052   6.705   7.672 -0.4896  0.4012  0.6367
   93CHL1   H17 9313   2.960   6.645   7.657 -0.2106 -0.3434  1.7758
   93CHL1   C13 9314   3.157   6.674   7.556  0.1366  0.4285  0.5640
   93CHL1   C18 9315   3.296   6.729   7.590 -0.0734  0.0572  0.3066
   93CHL1  H18A 9316   3.306   6.838   7.607 -0.6209  0.7589 -2.9964
   93CHL1  H18B 9317   3.345   6.665   7.665  0.8422 -0.5477 -0.7759
   93CHL1  H18C 9318   3.364   6.710   7.504  0.2900 -0.6886  0.7593
   93CHL1   C12 9319   3.168   6.526   7.508 -0.0393  0.7227  0.1132
   93CHL1  H12A 9320   3.224   6.466   7.582 -1.9323 -0.5492  0.5977
   93CHL1  H12B 9321   3.067   6.481   7.498  1.3814 -3.1775  1.7671
   93CHL1   C11 9322   3.239   6.512   7.371  0.3875 -0.1141  0.9374
   93CHL1  H11A 9323   3.347   6.531   7.387  0.3939  1.5719 -0.7082
   93CHL1  H11B 9324   3.230   6.409   7.330 -1.0569  0.3320  0.0371
   93CHL1    C9 9325   3.163   6.600   7.265  0.0661  0.4166  0.4685
   93CHL1    H9 9326   3.054   6.575   7.267  0.0330  0.3626 -0.9108
   93CHL1   C10 9327   3.213   6.586   7.118  0.3325 -0.0385 -0.6338
   93CHL1   C19 9328   3.366   6.606   7.132 -0.1378  0.5516 -0.0741
   93CHL1  H19A 9329   3.404   6.697   7.182  1.3952  1.4245 -2.6291
   93CHL1  H19B 9330   3.426   6.521   7.170 -3.1595 -0.8241  2.1122
   93CHL1  H19C 9331   3.411   6.609   7.030  1.0935  0.2630  0.4441
   93CHL1    C1 9332   3.183   6.439   7.073  0.0896  0.7382 -0.7073
   93CHL1   H1A 9333   3.249   6.364   7.121  1.4991  0.6769 -2.6355
   93CHL1   H1B 9334   3.078   6.418   7.105  0.0655  0.1960 -1.1334
   93CHL1    C2 9335   3.181   6.407   6.921  0.1285  0.0123  0.0559
   93CHL1   H2A 9336   3.130   6.311   6.897 -0.6094  0.6027 -0.7701
   93CHL1   H2B 9337   3.285   6.391   6.887 -0.6628  0.1159 -2.5697
   93CHL1   C20 9338   3.096   6.668   7.807  0.5339  0.0641  0.0414
   93CHL1   H20 9339   3.191   6.720   7.834 -0.2037  0.8163  1.2412
   93CHL1   C21 9340   3.113   6.516   7.825 -0.1688  0.0072  0.2537
   93CHL1  H21A 9341   3.211   6.494   7.778 -1.4514  0.8696 -3.1735
   93CHL1  H21B 9342   3.028   6.470   7.768 -0.5731  0.3364  0.5826
   93CHL1  H21C 9343   3.109   6.488   7.932 -1.7721 -0.3900  0.1169
   93CHL1   C22 9344   2.981   6.720   7.913  1.0765  0.7090  0.2479
   93CHL1  H22A 9345   2.942   6.820   7.884 -0.4063  0.2214  0.4545
   93CHL1  H22B 9346   2.906   6.639   7.911  0.6450  1.1072  0.1492
   93CHL1   C23 9347   3.019   6.726   8.061  0.9418 -0.0030 -0.0393
   93CHL1  H23A 9348   3.078   6.637   8.090 -1.1928 -1.1279  1.0902
   93CHL1  H23B 9349   3.080   6.817   8.076 -0.3538  1.0481 -0.9081
   93CHL1   C24 9350   2.888   6.730   8.148 -0.1780  0.8764 -0.9009
   93CHL1  H24A 9351   2.826   6.819   8.122  0.3183  1.7349  0.7544
   93CHL1  H24B 9352   2.834   6.634   8.133  1.4005 -0.2875  0.5019
   93CHL1   C25 9353   2.910   6.733   8.299  0.0913  0.2429  0.1630
   93CHL1   H25 9354   2.819   6.771   8.350  1.2078  1.0519  1.6399
   93CHL1   C26 9355   2.946   6.596   8.348 -0.6601  0.7172  0.6203
   93CHL1  H26A 9356   2.950   6.605   8.459  0.3978  1.0971  0.5564
   93CHL1  H26B 9357   2.865   6.522   8.328  0.8288  0.0181 -3.9059
   93CHL1  H26C 9358   3.039   6.553   8.306 -2.7618 -3.1132 -0.6200
   93CHL1   C27 9359   3.009   6.842   8.342 -0.0917 -0.5357 -0.0640
   93CHL1  H27A 9360   3.000   6.940   8.291  1.7850 -0.1219  0.3429
   93CHL1  H27B 9361   2.987   6.854   8.451  1.2032  0.8739  0.0745
   93CHL1  H27C 9362   3.119   6.830   8.350  0.0446  0.2080 -0.7472
   94CHL1    C3 9363   5.624   0.708   6.913 -0.1093  0.4464  0.3603
   94CHL1    H3 9364   5.563   0.784   6.967  1.5626  2.0209  0.1279
   94CHL1    O3 9365   5.632   0.747   6.776 -0.3073  0.0214  0.0602
   94CHL1   H3' 9366   5.698   0.693   6.733  0.8763  0.0268  1.7642
   94CHL1    C4 9367   5.771   0.702   6.974  0.3088  0.3863 -0.6538
   94CHL1   H4A 9368   5.818   0.613   6.930  0.7442 -1.5171  3.2181
   94CHL1   H4B 9369   5.817   0.799   6.947  1.6526  0.3495  1.2911
   94CHL1    C5 9370   5.763   0.671   7.123  0.4515  0.0171  0.3257
   94CHL1    C6 9371   5.806   0.756   7.214 -0.4243 -0.4574 -0.2462
   94CHL1    H6 9372   5.854   0.853   7.195 -0.3185  0.0102  2.1143
   94CHL1    C7 9373   5.796   0.731   7.365 -0.3773 -0.2393  0.5625
   94CHL1   H7A 9374   5.898   0.756   7.402 -0.6419  2.5546 -0.3657
   94CHL1   H7B 9375   5.726   0.800   7.416 -4.1429 -2.4497 -1.1795
   94CHL1    C8 9376   5.759   0.590   7.400  0.3967 -0.6020 -0.1551
   94CHL1    H8 9377   5.855   0.534   7.388  0.9870  0.3525 -0.0331
   94CHL1   C14 9378   5.717   0.578   7.547  0.4025  0.4063 -0.1493
   94CHL1   H14 9379   5.633   0.649   7.555  2.5231  3.0761 -0.1000
   94CHL1   C15 9380   5.818   0.620   7.655  0.4289 -1.1655  0.1587
   94CHL1  H15A 9381   5.917   0.590   7.615  0.2876  0.0872 -1.1988
   94CHL1  H15B 9382   5.824   0.731   7.654 -0.4485 -1.1197 -0.5098
   94CHL1   C16 9383   5.775   0.556   7.787 -0.2016 -0.0497 -0.5209
   94CHL1  H16A 9384   5.851   0.493   7.839  0.3412 -1.2198 -2.6451
   94CHL1  H16B 9385   5.736   0.632   7.859  2.2844 -0.7440  1.7206
   94CHL1   C17 9386   5.662   0.455   7.751 -0.6380 -0.4934  0.6986
   94CHL1   H17 9387   5.570   0.516   7.763  0.2547  0.8612  0.8990
   94CHL1   C13 9388   5.682   0.439   7.593  0.2056 -0.1381  0.2357
   94CHL1   C18 9389   5.798   0.335   7.578  0.4347 -0.1988  0.1177
   94CHL1  H18A 9390   5.878   0.385   7.637  1.9736  0.2206 -2.1694
   94CHL1  H18B 9391   5.763   0.234   7.609 -1.1430  0.4044  0.3893
   94CHL1  H18C 9392   5.837   0.326   7.474  0.7135 -2.4313  0.3527
   94CHL1   C12 9393   5.558   0.387   7.509  0.1678 -0.2361  0.9082
   94CHL1  H12A 9394   5.545   0.280   7.536 -1.0296 -0.4156 -0.2844
   94CHL1  H12B 9395   5.475   0.453   7.541  1.5632  0.9902  2.2091
   94CHL1   C11 9396   5.593   0.395   7.356 -0.6313  0.4688  0.2801
   94CHL1  H11A 9397   5.665   0.313   7.337 -2.5384 -0.8657 -1.8365
   94CHL1  H11B 9398   5.506   0.361   7.295  1.5526 -1.7719 -1.8270
   94CHL1    C9 9399   5.650   0.537   7.306 -0.3807  0.0199  0.6208
   94CHL1    H9 9400   5.573   0.615   7.327 -0.8760 -0.4612  0.6049
   94CHL1   C10 9401   5.681   0.546   7.157 -0.7124 -0.1848 -0.2016
   94CHL1   C19 9402   5.773   0.426   7.118  0.1581  0.2167  0.1602
   94CHL1  H19A 9403   5.873   0.433   7.165 -0.3742 -0.8873  1.5180
   94CHL1  H19B 9404   5.719   0.332   7.139 -0.6545  0.2625 -1.5012
   94CHL1  H19C 9405   5.791   0.423   7.008  0.6862 -0.9018  0.2752
   94CHL1    C1 9406   5.547   0.533   7.077  0.0022  0.2861  0.0349
   94CHL1   H1A 9407   5.500   0.433   7.076 -0.0630  0.2727  1.7025
   94CHL1   H1B 9408   5.466   0.601   7.111 -2.4841 -0.7047 -3.3907
   94CHL1    C2 9409   5.558   0.566   6.926 -0.5274 -0.2188 -0.4296
   94CHL1   H2A 9410   5.456   0.572   6.883 -0.7510 -0.2125  0.0955
   94CHL1   H2B 9411   5.618   0.488   6.874  0.9672  0.1363  0.7072
   94CHL1   C20 9412   5.666   0.341   7.850  0.3969  0.8424 -0.2973
   94CHL1   H20 9413   5.754   0.273   7.843 -0.7819 -0.7625 -0.3206
   94CHL1   C21 9414   5.545   0.241   7.825 -0.6505 -0.6670  0.1385
   94CHL1  H21A 9415   5.536   0.159   7.900  1.6813 -1.4426 -0.3581
   94CHL1  H21B 9416   5.555   0.193   7.725  2.4164 -0.6743  0.3715
   94CHL1  H21C 9417   5.448   0.294   7.823  0.0469  0.6979 -2.4921
   94CHL1   C22 9418   5.651   0.385   8.002  0.0780  0.0927  0.3307
   94CHL1  H22A 9419   5.711   0.478   8.011 -1.5562  1.6875 -3.4039
   94CHL1  H22B 9420   5.545   0.417   8.016  0.1654  1.6642 -2.0212
   94CHL1   C23 9421   5.707   0.281   8.100  0.3815 -0.5571 -0.1395
   94CHL1  H23A 9422   5.639   0.194   8.086  0.4101 -0.5421 -0.3690
   94CHL1  H23B 9423   5.814   0.257   8.085  0.6046 -0.4157  1.0732
   94CHL1   C24 9424   5.696   0.328   8.239  0.8605 -0.1684 -0.6732
   94CHL1  H24A 9425   5.590   0.330   8.270  0.9255  1.9740 -0.4359
   94CHL1  H24B 9426   5.751   0.247   8.292 -1.3732 -0.9993  0.5202
   94CHL1   C25 9427   5.765   0.456   8.284  0.2219 -0.9515  0.0439
   94CHL1   H25 9428   5.716   0.540   8.231  0.1000  0.2119  1.9174
   94CHL1   C26 9429   5.738   0.476   8.436 -0.4851 -0.0704 -0.5033
   94CHL1  H26A 9430   5.629   0.480   8.458 -0.3971  2.4823 -0.2866
   94CHL1  H26B 9431   5.779   0.391   8.495 -2.7480 -2.5527 -2.2518
   94CHL1  H26C 9432   5.781   0.571   8.472 -1.7689  2.3267 -4.5647
   94CHL1   C27 9433   5.920   0.459   8.267  0.5308  0.2660 -0.4708
   94CHL1  H27A 9434   5.951   0.447   8.161 -1.9266  1.0359 -1.3604
   94CHL1  H27B 9435   5.973   0.542   8.317 -0.1655  1.3281 -1.4312
   94CHL1  H27C 9436   5.952   0.363   8.313  1.1907  0.4543 -0.5355
   95CHL1    C3 9437   4.398   5.472   6.536 -1.5036  0.2203 -0.3136
   95CHL1    H3 9438   4.312   5.402   6.530  0.0950 -1.7287 -1.3029
   95CHL1    O3 9439   4.407   5.540   6.410 -0.2250  0.0378 -0.5654
   95CHL1   H3' 9440   4.320   5.580   6.397  1.0075  3.7245  1.0260
   95CHL1    C4 9441   4.365   5.580   6.652  0.1644  0.4050  0.4963
   95CHL1   H4A 9442   4.447   5.655   6.653  1.2813 -0.7014 -1.2491
   95CHL1   H4B 9443   4.269   5.628   6.628  0.2404  0.5193  0.4213
   95CHL1    C5 9444   4.372   5.511   6.786 -0.3022  0.0338  0.2904
   95CHL1    C6 9445   4.267   5.518   6.868  0.1069 -0.2110 -0.2654
   95CHL1    H6 9446   4.184   5.581   6.832 -1.7540 -1.6052  1.3245
   95CHL1    C7 9447   4.262   5.466   7.014 -0.9747 -0.8953  0.7805
   95CHL1   H7A 9448   4.235   5.550   7.081  1.8211 -1.0531  2.2500
   95CHL1   H7B 9449   4.202   5.374   7.031 -2.4240 -0.2315 -0.5096
   95CHL1    C8 9450   4.410   5.427   7.051  0.6810 -0.4443 -0.6668
   95CHL1    H8 9451   4.462   5.524   7.068 -1.6644  1.0102 -1.3113
   95CHL1   C14 9452   4.409   5.366   7.188 -0.2469  0.2152 -0.1892
   95CHL1   H14 9453   4.362   5.266   7.176  1.1887 -0.3903 -1.0399
   95CHL1   C15 9454   4.341   5.430   7.310  0.1498  0.2803 -0.1592
   95CHL1  H15A 9455   4.362   5.539   7.307 -1.1412  0.5198 -1.9781
   95CHL1  H15B 9456   4.229   5.432   7.310  0.0621 -1.8219  0.8092
   95CHL1   C16 9457   4.402   5.363   7.433 -0.6299 -0.3270  0.4280
   95CHL1  H16A 9458   4.451   5.445   7.491 -0.3750 -0.9343  1.0797
   95CHL1  H16B 9459   4.330   5.310   7.498  0.5666 -1.9341  0.5161
   95CHL1   C17 9460   4.505   5.262   7.377 -0.4235 -0.6912  0.4069
   95CHL1   H17 9461   4.443   5.170   7.369 -0.5761 -0.5944  0.4615
   95CHL1   C13 9462   4.545   5.312   7.230 -0.4191  0.3284  0.0082
   95CHL1   C18 9463   4.653   5.427   7.240 -0.0864  0.1343  0.2518
   95CHL1  H18A 9464   4.625   5.510   7.308  0.9174 -0.4508  1.4372
   95CHL1  H18B 9465   4.748   5.384   7.280  0.9329  0.8629 -1.2636
   95CHL1  H18C 9466   4.676   5.471   7.140 -3.0231 -0.7963 -0.9332
   95CHL1   C12 9467   4.597   5.213   7.130 -0.6260 -0.1021 -0.4169
   95CHL1  H12A 9468   4.697   5.176   7.162 -0.8870 -0.3363  0.1478
   95CHL1  H12B 9469   4.530   5.124   7.130  1.6067 -1.8952 -1.6166
   95CHL1   C11 9470   4.609   5.276   6.989  0.5687 -0.4082  0.0352
   95CHL1  H11A 9471   4.706   5.331   6.993  0.7332 -0.5431 -1.4699
   95CHL1  H11B 9472   4.646   5.193   6.924  3.7298  0.0988  1.0390
   95CHL1    C9 9473   4.479   5.351   6.942  0.2572  0.1792 -0.2733
   95CHL1    H9 9474   4.412   5.266   6.918 -0.4606  0.3511  1.0296
   95CHL1   C10 9475   4.498   5.430   6.816 -0.2104  0.4090 -0.2077
   95CHL1   C19 9476   4.619   5.520   6.848 -0.2678  0.1038  0.4154
   95CHL1  H19A 9477   4.625   5.588   6.761 -0.9845  0.2139  0.4442
   95CHL1  H19B 9478   4.598   5.579   6.941 -0.7115  0.3252  0.1769
   95CHL1  H19C 9479   4.711   5.459   6.860 -1.0202 -1.1015  0.2094
   95CHL1    C1 9480   4.539   5.341   6.697 -0.4106  0.6534 -0.1604
   95CHL1   H1A 9481   4.638   5.291   6.711  0.2885  1.4535 -1.8734
   95CHL1   H1B 9482   4.470   5.257   6.677 -0.5853  0.9692 -0.9155
   95CHL1    C2 9483   4.542   5.411   6.567  0.6841 -0.1109  0.0240
   95CHL1   H2A 9484   4.572   5.338   6.489  0.5783 -1.2635  1.0324
   95CHL1   H2B 9485   4.629   5.479   6.568 -0.5075  1.5702  3.0978
   95CHL1   C20 9486   4.612   5.233   7.479  0.2616 -0.4245  1.0640
   95CHL1   H20 9487   4.687   5.314   7.462 -0.2166 -0.3308 -0.8479
   95CHL1   C21 9488   4.682   5.099   7.448  0.3072  0.1185  0.4499
   95CHL1  H21A 9489   4.777   5.097   7.505 -0.1979 -1.0574  1.3083
   95CHL1  H21B 9490   4.693   5.080   7.339  0.0942  2.8072 -0.1071
   95CHL1  H21C 9491   4.622   5.013   7.486  1.1262 -0.9095 -0.5286
   95CHL1   C22 9492   4.570   5.244   7.626 -0.2676  0.2141  0.3965
   95CHL1  H22A 9493   4.566   5.352   7.649 -1.9196  0.6201 -1.4324
   95CHL1  H22B 9494   4.470   5.195   7.635  0.2798 -1.1482 -0.6059
   95CHL1   C23 9495   4.670   5.179   7.731 -0.4118  0.0696  0.5043
   95CHL1  H23A 9496   4.612   5.193   7.825 -1.1746  0.0887  0.0435
   95CHL1  H23B 9497   4.686   5.071   7.709 -1.1576 -0.0077  0.3224
   95CHL1   C24 9498   4.802   5.261   7.739  0.4945 -0.1408  0.3473
   95CHL1  H24A 9499   4.830   5.284   7.634  0.5685  1.2133  0.6485
   95CHL1  H24B 9500   4.774   5.362   7.776  2.2855 -0.2339  2.0996
   95CHL1   C25 9501   4.909   5.199   7.827 -0.1007 -0.0072 -0.4476
   95CHL1   H25 9502   4.950   5.110   7.776 -1.2156 -0.4664 -0.5583
   95CHL1   C26 9503   5.025   5.300   7.855  0.4586 -0.5446  0.0794
   95CHL1  H26A 9504   5.074   5.334   7.761  0.8931  1.6410  1.0312
   95CHL1  H26B 9505   4.988   5.395   7.899 -0.3240 -0.4424 -0.7448
   95CHL1  H26C 9506   5.094   5.253   7.928 -1.0955 -1.0736  1.2639
   95CHL1   C27 9507   4.865   5.168   7.973 -0.0468  0.8439  0.0955
   95CHL1  H27A 9508   4.795   5.081   7.977  1.2111 -0.2102 -0.2140
   95CHL1  H27B 9509   4.935   5.117   8.042 -0.0677  1.9812  0.9886
   95CHL1  H27C 9510   4.835   5.252   8.039  1.5284 -1.1739  3.6598
   96CHL1    C3 9511   5.747   3.394   6.583  0.3032 -0.7296  0.0709
   96CHL1    H3 9512   5.771   3.488   6.636 -1.0271  0.6783 -1.7098
   96CHL1    O3 9513   5.756   3.412   6.442  0.3664 -0.3025  0.2319
   96CHL1   H3' 9514   5.733   3.328   6.403  1.1495 -0.3492 -0.1544
   96CHL1    C4 9515   5.838   3.271   6.612  0.2186 -0.1090  0.8111
   96CHL1   H4A 9516   5.821   3.188   6.540  1.1922  1.8317 -1.8208
   96CHL1   H4B 9517   5.940   3.303   6.581 -1.3705  3.0919 -1.7701
   96CHL1    C5 9518   5.824   3.213   6.752 -0.3377 -0.0447  0.0810
   96CHL1    C6 9519   5.934   3.182   6.824 -0.7715  0.3673 -0.2019
   96CHL1    H6 9520   6.030   3.201   6.773 -1.8628  1.8601 -1.8054
   96CHL1    C7 9521   5.943   3.116   6.961  0.5582 -0.3385 -0.5810
   96CHL1   H7A 9522   6.020   3.036   6.964  0.0246 -0.8494 -0.2840
   96CHL1   H7B 9523   5.952   3.198   7.035 -3.1459 -0.9030  0.7220
   96CHL1    C8 9524   5.798   3.056   6.998  0.4109 -0.0941 -0.2441
   96CHL1    H8 9525   5.781   2.959   6.948 -1.1247  1.0230 -2.0386
   96CHL1   C14 9526   5.790   3.023   7.146 -0.1571  0.2421  0.0102
   96CHL1   H14 9527   5.820   3.115   7.201 -0.2528 -0.1242  0.6834
   96CHL1   C15 9528   5.887   2.924   7.206 -0.3967  0.2691  0.2177
   96CHL1  H15A 9529   5.891   2.838   7.135 -1.2488 -0.9506  1.6031
   96CHL1  H15B 9530   5.993   2.960   7.211 -0.1078 -0.3613 -0.9464
   96CHL1   C16 9531   5.826   2.878   7.335  0.1460  0.2199 -0.3688
   96CHL1  H16A 9532   5.841   2.768   7.344 -0.8029  0.0566 -0.6204
   96CHL1  H16B 9533   5.893   2.917   7.415  0.9363  0.4355 -1.1233
   96CHL1   C17 9534   5.689   2.946   7.346 -0.5124  0.1817 -0.4307
   96CHL1   H17 9535   5.702   3.044   7.396  0.4155 -0.5481  0.8038
   96CHL1   C13 9536   5.653   2.975   7.199  0.2879  0.1218  0.3126
   96CHL1   C18 9537   5.604   2.840   7.132 -0.0646  0.3855  0.0875
   96CHL1  H18A 9538   5.626   2.851   7.024 -1.2777  0.9548 -0.1211
   96CHL1  H18B 9539   5.666   2.756   7.169 -0.5447 -1.3303 -2.6808
   96CHL1  H18C 9540   5.496   2.823   7.151 -0.2464  0.3308 -0.9459
   96CHL1   C12 9541   5.548   3.092   7.181  0.2402 -0.4218  0.0021
   96CHL1  H12A 9542   5.444   3.053   7.192  0.3927 -0.8449 -0.0369
   96CHL1  H12B 9543   5.569   3.170   7.257 -1.8816 -1.0245  1.3143
   96CHL1   C11 9544   5.550   3.133   7.027  0.3052 -0.0933  0.1225
   96CHL1  H11A 9545   5.487   3.053   6.983 -0.5959  1.1259 -0.8725
   96CHL1  H11B 9546   5.497   3.231   7.022  0.4758  0.0744  1.3678
   96CHL1    C9 9547   5.689   3.150   6.955  0.9207  0.5411 -0.0931
   96CHL1    H9 9548   5.715   3.247   7.003 -0.0351  0.6856  0.1725
   96CHL1   C10 9549   5.680   3.182   6.807  0.1754 -0.9243  0.6537
   96CHL1   C19 9550   5.606   3.071   6.725 -0.4147  0.2614  0.0595
   96CHL1  H19A 9551   5.508   3.041   6.769 -0.5857  2.3864  1.2590
   96CHL1  H19B 9552   5.593   3.077   6.615 -1.0477 -2.8963 -0.1317
   96CHL1  H19C 9553   5.669   2.979   6.728  0.3133  0.7637  2.1844
   96CHL1    C1 9554   5.616   3.325   6.781 -0.7405  0.1991 -0.2434
   96CHL1   H1A 9555   5.509   3.314   6.811 -1.8342 -1.6211 -4.1164
   96CHL1   H1B 9556   5.675   3.400   6.838  1.6962 -1.4979 -0.4045
   96CHL1    C2 9557   5.604   3.368   6.637  0.8096  0.1489  0.7474
   96CHL1   H2A 9558   5.540   3.459   6.630  2.1477  1.1819  1.3176
   96CHL1   H2B 9559   5.545   3.291   6.583  0.4439 -0.6155  2.2002
   96CHL1   C20 9560   5.586   2.869   7.427  0.2587 -0.6006 -0.0925
   96CHL1   H20 9561   5.573   2.766   7.387 -1.0668 -0.4479 -0.1044
   96CHL1   C21 9562   5.448   2.938   7.427  0.2299  1.0069  0.0684
   96CHL1  H21A 9563   5.406   2.923   7.325  0.4265 -0.9929  0.2498
   96CHL1  H21B 9564   5.457   3.048   7.441  2.4888  0.9636 -0.6301
   96CHL1  H21C 9565   5.389   2.897   7.511 -0.3407 -3.0458 -2.0608
   96CHL1   C22 9566   5.637   2.845   7.572 -0.5212 -0.2270  0.2022
   96CHL1  H22A 9567   5.745   2.820   7.576 -0.2655  0.8093 -0.1201
   96CHL1  H22B 9568   5.621   2.942   7.623 -0.7282 -1.2612  2.1951
   96CHL1   C23 9569   5.555   2.738   7.647 -0.7977 -0.1835  0.5802
   96CHL1  H23A 9570   5.448   2.769   7.649  0.0327  3.0482  1.8174
   96CHL1  H23B 9571   5.564   2.640   7.595  0.0826  0.5316 -0.6502
   96CHL1   C24 9572   5.606   2.723   7.792 -0.3858 -0.0243 -0.3627
   96CHL1  H24A 9573   5.566   2.630   7.839  2.1634  0.1073  2.3933
   96CHL1  H24B 9574   5.716   2.710   7.802 -0.5143 -0.6426  0.3840
   96CHL1   C25 9575   5.576   2.844   7.891 -0.1647  0.2243  0.4584
   96CHL1   H25 9576   5.610   2.938   7.841 -0.4885 -0.0860 -0.3703
   96CHL1   C26 9577   5.425   2.863   7.917  0.8280  0.2500  1.2550
   96CHL1  H26A 9578   5.370   2.849   7.821  1.3021  2.2325  0.6463
   96CHL1  H26B 9579   5.380   2.794   7.991  1.1046 -0.3981  0.8285
   96CHL1  H26C 9580   5.400   2.961   7.963  3.4674  1.8869 -0.5235
   96CHL1   C27 9581   5.658   2.835   8.017 -0.0824  1.0364  0.8200
   96CHL1  H27A 9582   5.642   2.917   8.090  5.6082  0.7154  2.9521
   96CHL1  H27B 9583   5.654   2.740   8.074  1.7019  1.6031  1.9697
   96CHL1  H27C 9584   5.764   2.852   7.989  0.0011  0.2866  0.6603
   97OSM      N 9585   3.283   0.054  11.186 -0.3036  0.8497 -0.0183
   97OSM    C15 9586   3.321  -0.036  11.307 -0.1139 -0.0222  1.0889
   97OSM   H15A 9587   3.424  -0.016  11.332  0.6220 -1.0367 -0.9828
   97OSM   H15B 9588   3.309  -0.141  11.286 -1.2069  0.2476  0.3048
   97OSM   H15C 9589   3.267  -0.013  11.398  0.2118  2.9287  0.6329
   97OSM    C14 9590   3.307   0.195  11.227  0.0208  0.0662  0.3288
   97OSM   H14A 9591   3.407   0.207  11.266 -1.1786 -1.2641  4.3029
   97OSM   H14B 9592   3.226   0.232  11.289 -0.4327 -0.8472  0.3061
   97OSM   H14C 9593   3.296   0.255  11.138  0.3504 -1.0352 -0.4790
   97OSM    C13 9594   3.386   0.042  11.080  0.2326  0.5958 -0.3587
   97OSM   H13A 9595   3.382  -0.046  11.018  1.3934  0.9528 -0.9708
   97OSM   H13B 9596   3.489   0.043  11.113  1.3156 -1.7026 -3.2417
   97OSM   H13C 9597   3.377   0.134  11.023  1.0613  0.8495 -0.0925
   97OSM    C12 9598   3.144   0.031  11.147 -0.9247  0.1911  0.0849
   97OSM   H12A 9599   3.080   0.058  11.230 -0.1445  0.4735  0.6008
   97OSM   H12B 9600   3.143  -0.073  11.118  1.4256 -0.6420  2.5982
   97OSM    C11 9601   3.090   0.108  11.027  0.7228  0.1069  0.5848
   97OSM   H11A 9602   3.152   0.092  10.936  0.8169 -2.0675  0.9610
   97OSM   H11B 9603   3.100   0.218  11.030  0.3369  0.1634 -0.0018
   97OSM      P 9604   2.841   0.115  11.093  0.2747 -0.2060 -0.0032
   97OSM    O13 9605   2.769   0.006  11.164  0.6882  0.7568  0.1295
   97OSM    O14 9606   2.900   0.219  11.184 -0.1854  0.5403 -0.2319
   97OSM    O11 9607   2.739   0.180  10.991 -0.4930 -0.0056  0.1811
   97OSM    O12 9608   2.957   0.056  10.996 -0.3834  0.0844 -0.9207
   97OSM    C1S 9609   2.718   0.128  10.859 -0.8659 -0.0946 -0.2333
   97OSM    H1S 9610   2.626   0.066  10.866 -0.0355 -1.5901 -1.8760
   97OSM    H1T 9611   2.801   0.061  10.829 -1.5654 -1.0733 -0.0152
   97OSM     NF 9612   2.660   0.176  10.626  0.3254  0.1720 -0.0523
   97OSM    HNF 9613   2.726   0.191  10.553  0.8363 -0.2710  0.3143
   97OSM    C2S 9614   2.693   0.241  10.758 -0.2662 -0.1494  0.7214
   97OSM    H2S 9615   2.610   0.305  10.794  0.4011  0.4292  1.2903
   97OSM    C3S 9616   2.810   0.348  10.748  0.4148  0.3426  0.3724
   97OSM    H3S 9617   2.893   0.287  10.708  0.1801  0.3796 -0.1715
   97OSM     O3 9618   2.850   0.407  10.870 -0.1198  0.1985 -0.3898
   97OSM    HO3 9619   2.841   0.342  10.941  0.0299  1.3496  0.7300
   97OSM    C4S 9620   2.781   0.459  10.648 -0.9444  0.5837 -0.2344
   97OSM    H4S 9621   2.826   0.443  10.549 -2.6735 -0.9512 -0.8148
   97OSM    C5S 9622   2.708   0.577  10.668 -0.3410 -0.4570  0.0909
   97OSM    H5S 9623   2.665   0.582  10.769  1.6600 -3.7505  1.2533
   97OSM    C6S 9624   2.674   0.689  10.574 -0.8611 -0.2576  0.0644
   97OSM    H6S 9625   2.735   0.780  10.593 -0.5282 -0.3634 -0.4569
   97OSM    H6T 9626   2.571   0.721  10.599 -0.3626 -0.3339  2.5631
   97OSM    C7S 9627   2.688   0.650  10.423  0.4792  0.1843 -0.2110
   97OSM    H7S 9628   2.637   0.553  10.404  0.9861 -0.4041  1.2822
   97OSM    H7T 9629   2.796   0.628  10.407  0.1905 -1.5539  0.0967
   97OSM    C8S 9630   2.638   0.768  10.335 -0.2021  0.1314 -0.3309
   97OSM    H8S 9631   2.680   0.870  10.346 -1.6051  0.8197 -1.1029
   97OSM    H8T 9632   2.533   0.794  10.357  0.1206  2.3641 -1.1289
   97OSM    C9S 9633   2.659   0.728  10.183  0.9343  0.1000 -0.3783
   97OSM    H9S 9634   2.597   0.640  10.155 -0.9807  1.3010 -0.1195
   97OSM    H9T 9635   2.766   0.700  10.171  1.7935  3.1678 -0.9641
   97OSM   C10S 9636   2.622   0.843  10.087 -0.2753  0.0750 -0.1631
   97OSM   H10S 9637   2.685   0.932  10.109 -0.9531  0.8701 -1.3412
   97OSM   H10T 9638   2.524   0.889  10.110 -0.1588  1.5727 -2.3791
   97OSM   C11S 9639   2.642   0.799   9.941  0.0528  0.5126 -0.6400
   97OSM   H11S 9640   2.619   0.884   9.872 -0.9414  0.2211 -0.6875
   97OSM   H11T 9641   2.566   0.719   9.928  0.3285  0.0590  0.4852
   97OSM   C12S 9642   2.784   0.735   9.917 -0.3320 -0.5175  0.8781
   97OSM   H12S 9643   2.796   0.630   9.952  1.2032 -0.8916 -0.6530
   97OSM   H12T 9644   2.854   0.798   9.975  0.6967 -1.2622  0.4784
   97OSM   C13S 9645   2.824   0.733   9.759  0.7940  0.1365  0.4936
   97OSM   H13S 9646   2.803   0.830   9.708  1.0321 -0.0522  0.0315
   97OSM   H13T 9647   2.759   0.650   9.725 -0.5275  0.8403  1.2123
   97OSM   C14S 9648   2.961   0.676   9.730 -0.5544  0.1448 -0.2092
   97OSM   H14S 9649   2.969   0.582   9.787 -0.6679  0.1341 -0.2111
   97OSM   H14T 9650   3.042   0.744   9.765 -1.6196  2.5464 -2.0778
   97OSM   C15S 9651   2.984   0.650   9.582  0.4467  1.0687 -0.6421
   97OSM   H15S 9652   2.900   0.584   9.552 -0.6712  1.2963  1.7450
   97OSM   H15T 9653   3.074   0.586   9.567 -1.2711 -1.6976  0.0229
   97OSM   C16S 9654   3.002   0.779   9.507 -0.3532  0.1378  0.6733
   97OSM   H16S 9655   3.082   0.843   9.551 -0.0845 -0.7655  1.5185
   97OSM   H16T 9656   2.901   0.825   9.502 -0.9604 -0.9505  2.1937
   97OSM   C17S 9657   3.040   0.765   9.357  0.6126  0.6347 -0.6583
   97OSM   H17S 9658   3.147   0.734   9.368  0.2189 -0.4742  0.3617
   97OSM   H17T 9659   3.031   0.865   9.309 -2.5262  2.0522  2.4282
   97OSM   C18S 9660   2.961   0.655   9.280  0.4785  0.3606 -1.0716
   97OSM   H18S 9661   2.990   0.556   9.322  1.0160  0.9529 -0.0012
   97OSM   H18T 9662   2.997   0.661   9.175 -1.0865  3.1411 -1.5481
   97OSM   H18U 9663   2.853   0.667   9.302  0.4392  0.9563 -1.5759
   97OSM    C1F 9664   2.547   0.114  10.590  0.2280 -0.6205 -0.3249
   97OSM     OF 9665   2.465   0.092  10.673  0.1497  0.1857 -0.1732
   97OSM    C2F 9666   2.532   0.067  10.448  0.1112  0.6652  0.1151
   97OSM    H2F 9667   2.610  -0.008  10.427 -0.5426  0.1067 -0.3617
   97OSM    H2G 9668   2.540   0.156  10.382 -1.4419 -0.0181 -1.0677
   97OSM    C3F 9669   2.395   0.007  10.413  0.3024  0.4032 -0.0372
   97OSM    H3F 9670   2.318   0.082  10.440 -1.5044 -1.2905 -0.2531
   97OSM    H3G 9671   2.373  -0.088  10.467 -0.3055  1.1823  1.1320
   97OSM    C4F 9672   2.374  -0.015  10.264 -0.0387  0.0470 -0.9909
   97OSM    H4F 9673   2.411   0.068  10.201 -0.4087  0.3819 -0.7716
   97OSM    H4G 9674   2.268  -0.038  10.237  0.2681 -2.8479 -0.1485
   97OSM    C5F 9675   2.445  -0.142  10.204 -0.0685 -0.5188 -0.4019
   97OSM    H5F 9676   2.425  -0.230  10.268  2.5159 -1.8880 -1.3487
   97OSM    H5G 9677   2.552  -0.118  10.185 -0.0186  0.2842  0.8574
   97OSM    C6F 9678   2.404  -0.168  10.057  0.2956  0.0117  0.3284
   97OSM    H6F 9679   2.318  -0.239  10.055  2.0503 -2.3651  2.3070
   97OSM    H6G 9680   2.488  -0.227  10.015  0.7902  0.4141  0.7405
   97OSM    C7F 9681   2.379  -0.040   9.976  0.8107 -0.3946  0.2366
   97OSM    H7F 9682   2.469   0.024   9.966  1.8202 -1.2888  2.8162
   97OSM    H7G 9683   2.302   0.030  10.016  1.7224  1.0841 -0.5182
   97OSM    C8F 9684   2.317  -0.068   9.835  0.2011 -0.4059  1.0630
   97OSM    H8F 9685   2.289   0.035   9.803 -0.9876 -0.5882  1.4538
   97OSM    H8G 9686   2.219  -0.119   9.843 -1.4716  2.5998  1.1256
   97OSM    C9F 9687   2.420  -0.138   9.745  0.0907  1.1352 -0.0139
   97OSM    H9F 9688   2.486  -0.215   9.787  0.1149  1.2210  0.1051
   97OSM   C10F 9689   2.448  -0.094   9.620  0.1076  0.0496 -0.0541
   97OSM   H10F 9690   2.516  -0.150   9.554 -1.1476  1.5147 -2.7399
   97OSM   C11F 9691   2.383   0.024   9.550 -0.3884  0.1862  0.1225
   97OSM   H11F 9692   2.456   0.088   9.496 -1.3862 -0.2072 -1.7892
   97OSM   H11G 9693   2.316   0.088   9.612 -1.5961 -1.8550  1.0339
   97OSM   C12F 9694   2.301  -0.023   9.432  0.1515  0.0074  0.7824
   97OSM   H12F 9695   2.271   0.059   9.364 -0.8503 -1.6625 -0.8870
   97OSM   H12G 9696   2.209  -0.056   9.485 -1.1014  3.5970  1.1307
   97OSM   C13F 9697   2.361  -0.128   9.344 -0.9276 -0.2119 -0.0715
   97OSM   H13F 9698   2.281  -0.155   9.272 -1.7901 -2.5326  1.6209
   97OSM   H13G 9699   2.394  -0.220   9.397  2.0859  0.6459 -0.2530
   97OSM   C14F 9700   2.482  -0.062   9.268  0.0842 -0.1497  1.7864
   97OSM   H14F 9701   2.519  -0.140   9.199  1.4354  1.7604  0.2463
   97OSM   H14G 9702   2.566  -0.027   9.332  1.0830  1.8480 -0.4605
   97OSM   C15F 9703   2.453   0.051   9.170  0.3189 -0.1582 -0.3703
   97OSM   H15F 9704   2.404   0.129   9.233  0.3979 -0.2852 -0.1480
   97OSM   H15G 9705   2.379   0.011   9.098  0.9716 -0.4743 -0.8802
   97OSM   C16F 9706   2.571   0.129   9.099  0.2195  0.1204  0.6730
   97OSM   H16F 9707   2.649   0.162   9.171  1.8936  0.6520 -1.3103
   97OSM   H16G 9708   2.528   0.224   9.060 -2.6332 -0.4958  2.0447
   97OSM   C17F 9709   2.644   0.044   8.996  0.0057  0.4893 -0.0099
   97OSM   H17F 9710   2.631  -0.064   9.021 -1.3979  0.7225  0.3829
   97OSM   H17G 9711   2.751   0.072   8.999 -0.0701  0.7260  0.5387
   97OSM   C18F 9712   2.595   0.069   8.858 -0.0054  0.6542 -0.6145
   97OSM   H18F 9713   2.662   0.023   8.781 -2.5424 -3.2344 -0.7684
   97OSM   H18G 9714   2.592   0.175   8.826  0.0508  0.5421 -1.0042
   97OSM   H18H 9715   2.493   0.028   8.844  0.7110 -2.1901  1.4513
   98OSM      N 9716   1.568   6.461  11.102 -0.1735  0.2270 -0.0939
   98OSM    C15 9717   1.479   6.573  11.135 -0.0884  0.0518 -0.2902
   98OSM   H15A 9718   1.521   6.643  11.206  1.4595  0.2451 -1.3463
   98OSM   H15B 9719   1.382   6.539  11.169 -0.0100 -1.0325 -1.1176
   98OSM   H15C 9720   1.463   6.634  11.047  0.7091 -1.5514 -1.5868
   98OSM    C14 9721   1.701   6.518  11.091 -0.0939  0.4126  0.0950
   98OSM   H14A 9722   1.697   6.600  11.021  1.7442  0.9026  0.5053
   98OSM   H14B 9723   1.784   6.455  11.064  0.4573  0.8354  0.7599
   98OSM   H14C 9724   1.729   6.571  11.181  1.4764  0.3882 -0.3512
   98OSM    C13 9725   1.571   6.350  11.208 -0.3574  0.4689  0.4844
   98OSM   H13A 9726   1.657   6.288  11.187  1.0810  2.4217  0.3165
   98OSM   H13B 9727   1.475   6.300  11.214 -0.4254  0.3305 -1.2961
   98OSM   H13C 9728   1.586   6.402  11.301 -1.2782  0.6177  0.5581
   98OSM    C12 9729   1.530   6.399  10.968  0.1344  0.0895  0.8332
   98OSM   H12A 9730   1.432   6.354  10.980  0.1624  0.4643  2.8702
   98OSM   H12B 9731   1.599   6.319  10.949  1.0277 -0.4426  5.1202
   98OSM    C11 9732   1.528   6.507  10.851  0.1766  0.4474  0.0553
   98OSM   H11A 9733   1.538   6.446  10.758  2.7028  0.6049  0.1451
   98OSM   H11B 9734   1.620   6.567  10.866 -0.1982  0.3920  3.0982
   98OSM      P 9735   1.274   6.533  10.828 -0.2537  0.0295  0.0609
   98OSM    O13 9736   1.233   6.417  10.912 -0.2697 -0.2923  0.2357
   98OSM    O14 9737   1.178   6.646  10.826 -0.1263 -0.5128  0.5964
   98OSM    O11 9738   1.287   6.492  10.678 -0.0628  0.3794  0.4096
   98OSM    O12 9739   1.420   6.597  10.859  0.2402 -0.0058  0.6630
   98OSM    C1S 9740   1.332   6.579  10.572 -0.3131  0.2115 -0.1614
   98OSM    H1S 9741   1.443   6.579  10.566 -0.3566 -1.4462 -1.9611
   98OSM    H1T 9742   1.308   6.683  10.603  0.5967  0.1999  0.6370
   98OSM     NF 9743   1.321   6.642  10.333 -0.6844  0.6000 -0.7268
   98OSM    HNF 9744   1.269   6.726  10.320  0.2150  1.3723  0.5157
   98OSM    C2S 9745   1.269   6.546  10.429 -0.6752 -0.1128  0.8210
   98OSM    H2S 9746   1.309   6.451  10.387  1.7435  0.4275  1.7827
   98OSM    C3S 9747   1.112   6.531  10.441 -0.1043 -0.0968 -0.4897
   98OSM    H3S 9748   1.068   6.621  10.490  0.1473 -0.2643  0.0578
   98OSM     O3 9749   1.082   6.419  10.523 -0.8260  0.0519 -0.2195
   98OSM    HO3 9750   1.166   6.394  10.562 -0.0563 -2.6137 -3.1469
   98OSM    C4S 9751   1.055   6.526  10.302 -0.4117 -0.0025  0.2844
   98OSM    H4S 9752   1.105   6.446  10.246 -2.5151 -0.5763 -0.8706
   98OSM    C5S 9753   0.959   6.599  10.237  0.2668  0.3009 -0.0555
   98OSM    H5S 9754   0.908   6.676  10.297  1.0801  1.0319 -0.2764
   98OSM    C6S 9755   0.907   6.591  10.096 -0.0844  0.1628 -0.1574
   98OSM    H6S 9756   0.895   6.693  10.055  1.0947  0.4033  0.0627
   98OSM    H6T 9757   0.805   6.548  10.086  0.0359  0.1709 -1.6471
   98OSM    C7S 9758   1.010   6.529   9.991  0.1906 -0.0764  0.4284
   98OSM    H7S 9759   1.014   6.418   9.990  0.3067 -0.0794  1.0985
   98OSM    H7T 9760   1.113   6.564  10.013  0.5125 -1.4678  1.2641
   98OSM    C8S 9761   0.976   6.567   9.844  0.7752 -0.0024  0.3569
   98OSM    H8S 9762   0.867   6.548   9.839  0.7270 -0.6708  2.6339
   98OSM    H8T 9763   1.022   6.500   9.769 -1.8702  1.0458 -2.4327
   98OSM    C9S 9764   1.020   6.710   9.816 -0.2060  0.7688  0.3056
   98OSM    H9S 9765   1.129   6.719   9.833  0.1551  3.9847 -2.6167
   98OSM    H9T 9766   0.965   6.788   9.873 -1.4565  1.2311 -1.4548
   98OSM   C10S 9767   0.987   6.737   9.668  0.5320 -0.1127  0.1338
   98OSM   H10S 9768   0.878   6.718   9.656  0.8121 -2.4633  0.7812
   98OSM   H10T 9769   1.045   6.666   9.604  1.3518  0.8071 -0.1723
   98OSM   C11S 9770   1.026   6.872   9.617 -0.1958  0.3789 -0.6896
   98OSM   H11S 9771   1.136   6.871   9.631 -0.2656 -0.4672 -0.1505
   98OSM   H11T 9772   0.986   6.946   9.689 -1.4927 -0.8572 -0.0769
   98OSM   C12S 9773   0.984   6.895   9.471 -0.8033  0.5425 -0.4059
   98OSM   H12S 9774   0.874   6.909   9.463 -1.0621 -0.6422  0.7260
   98OSM   H12T 9775   1.003   6.804   9.410  0.8558  0.6403 -0.0930
   98OSM   C13S 9776   1.057   7.020   9.405  0.1802  0.2266 -0.1310
   98OSM   H13S 9777   1.167   7.007   9.416  0.0031 -0.7941  0.5248
   98OSM   H13T 9778   1.018   7.103   9.468 -0.3691 -2.9022  4.0607
   98OSM   C14S 9779   1.022   7.043   9.258 -0.7842  0.2202 -0.4209
   98OSM   H14S 9780   0.916   7.064   9.231 -1.3705  0.0164  1.5491
   98OSM   H14T 9781   1.049   6.949   9.204  1.8207  0.6835 -0.0536
   98OSM   C15S 9782   1.094   7.162   9.195 -0.0228  0.9170 -0.3075
   98OSM   H15S 9783   1.202   7.153   9.219 -0.3231  0.0432  0.7749
   98OSM   H15T 9784   1.062   7.260   9.238  0.7021 -0.2729  3.2468
   98OSM   C16S 9785   1.087   7.169   9.045 -0.4792 -0.3373 -0.1055
   98OSM   H16S 9786   1.144   7.080   9.011  0.0214  0.6392 -1.9485
   98OSM   H16T 9787   1.154   7.242   8.995 -1.2517  0.0489 -0.6043
   98OSM   C17S 9788   0.947   7.154   8.985  0.4484 -0.1817  0.3162
   98OSM   H17S 9789   0.879   7.220   9.042  0.7085  0.6375 -0.2974
   98OSM   H17T 9790   0.908   7.052   9.004 -1.8623  0.0775 -2.2857
   98OSM   C18S 9791   0.931   7.180   8.835  0.1066 -0.1049 -0.1135
   98OSM   H18S 9792   0.825   7.165   8.807 -0.5439 -0.6391  2.4011
   98OSM   H18T 9793   1.007   7.130   8.770  1.7025  0.7510  1.0086
   98OSM   H18U 9794   0.951   7.287   8.818  2.5490 -0.0031  2.5899
   98OSM    C1F 9795   1.454   6.652  10.311  0.3813 -0.3067  0.1657
   98OSM     OF 9796   1.522   6.556  10.339  0.7169 -0.3859  0.2406
   98OSM    C2F 9797   1.502   6.782  10.259 -0.6031  0.1965  0.0363
   98OSM    H2F 9798   1.516   6.842  10.351  0.0123  0.1476 -0.0265
   98OSM    H2G 9799   1.429   6.819  10.184 -1.7273 -0.6132  0.6880
   98OSM    C3F 9800   1.639   6.761  10.185 -0.5792 -0.2204  0.1855
   98OSM    H3F 9801   1.622   6.691  10.101 -2.5446 -0.2637  0.5829
   98OSM    H3G 9802   1.719   6.715  10.247 -2.2610 -0.7129  2.1113
   98OSM    C4F 9803   1.693   6.887  10.132 -0.8647 -0.4105 -0.5484
   98OSM    H4F 9804   1.745   6.954  10.204 -2.5742  0.5149 -0.1049
   98OSM    H4G 9805   1.610   6.942  10.084 -0.3000 -0.4546 -1.5976
   98OSM    C5F 9806   1.796   6.851  10.026  0.5747 -0.0548  0.3899
   98OSM    H5F 9807   1.737   6.797   9.949  2.0437  0.5933 -1.2687
   98OSM    H5G 9808   1.869   6.778  10.066  1.6761  0.8138  0.0228
   98OSM    C6F 9809   1.879   6.973   9.973 -0.2313  1.1605  0.0856
   98OSM    H6F 9810   1.940   7.025  10.050  2.0017  1.4264 -1.7646
   98OSM    H6G 9811   1.811   7.051   9.931  1.0967  1.1791 -2.1823
   98OSM    C7F 9812   1.985   6.933   9.867 -0.1884 -0.5028 -0.6484
   98OSM    H7F 9813   2.042   6.850   9.912 -0.7434 -1.4267 -1.6013
   98OSM    H7G 9814   2.053   7.021   9.869 -0.6554 -0.1215 -1.1464
   98OSM    C8F 9815   1.933   6.891   9.730 -0.2062  0.2785 -0.0134
   98OSM    H8F 9816   1.881   6.796   9.754  2.2798 -0.2566  4.0792
   98OSM    H8G 9817   2.024   6.867   9.672  0.8437  0.8388  1.3439
   98OSM    C9F 9818   1.834   6.992   9.673  0.5412 -0.4257  0.0801
   98OSM    H9F 9819   1.745   7.021   9.730 -1.0211  3.2650 -3.6669
   98OSM   C10F 9820   1.852   7.047   9.554  0.1454  0.3926 -0.6413
   98OSM   H10F 9821   1.780   7.127   9.531  0.5501  0.5948 -1.2223
   98OSM   C11F 9822   1.962   7.031   9.449  0.0543 -0.4379 -0.6828
   98OSM   H11F 9823   2.039   6.952   9.468 -0.6346 -1.1390 -0.7343
   98OSM   H11G 9824   2.014   7.129   9.443  0.4221 -0.6298 -0.6509
   98OSM   C12F 9825   1.918   7.001   9.310 -0.0445  0.1105  0.4449
   98OSM   H12F 9826   1.847   7.080   9.278 -2.7955 -1.7872  1.4555
   98OSM   H12G 9827   1.853   6.911   9.310  2.3324 -1.7908 -2.1311
   98OSM   C13F 9828   2.026   6.985   9.199  0.2066 -0.6348 -0.5851
   98OSM   H13F 9829   1.999   6.926   9.109 -0.3405  0.1699 -0.9574
   98OSM   H13G 9830   2.106   6.921   9.244  0.2720 -0.4601 -0.4513
   98OSM   C14F 9831   2.088   7.114   9.142 -0.2429 -0.2630 -0.5056
   98OSM   H14F 9832   2.124   7.179   9.224  0.4048 -0.7668 -0.3771
   98OSM   H14G 9833   2.014   7.173   9.085  0.3251  2.7057  1.5935
   98OSM   C15F 9834   2.204   7.077   9.045 -0.3081  0.2183 -0.4549
   98OSM   H15F 9835   2.190   6.978   8.995  1.9021 -1.0717  1.2881
   98OSM   H15G 9836   2.292   7.068   9.112 -0.0904  0.2573 -0.7364
   98OSM   C16F 9837   2.211   7.188   8.947 -0.0927 -0.4892 -0.1418
   98OSM   H16F 9838   2.212   7.280   9.009 -2.5612 -1.1060  0.9305
   98OSM   H16G 9839   2.116   7.177   8.891  0.0815 -0.1003 -0.5177
   98OSM   C17F 9840   2.316   7.190   8.837 -0.9108 -0.5776 -0.2261
   98OSM   H17F 9841   2.416   7.176   8.885 -0.9212 -1.5785 -0.4710
   98OSM   H17G 9842   2.308   7.289   8.786 -1.7660  0.1079  1.2036
   98OSM   C18F 9843   2.297   7.077   8.728  0.1065  0.5824 -0.2764
   98OSM   H18F 9844   2.200   7.081   8.675  1.0029  0.4593 -2.0062
   98OSM   H18G 9845   2.294   6.990   8.798 -1.9827  1.0341  0.2600
   98OSM   H18H 9846   2.375   7.072   8.649  0.8362 -0.9756  0.5046
   99OSM      N 9847   4.307   0.910  10.830 -0.2557 -0.0091  0.0777
   99OSM    C15 9848   4.270   0.877  10.971  0.4332 -0.0255 -0.4327
   99OSM   H15A 9849   4.187   0.808  10.970 -0.9112  1.4873  0.9398
   99OSM   H15B 9850   4.238   0.971  11.014 -0.4619 -1.2229  1.6148
   99OSM   H15C 9851   4.354   0.832  11.021  0.0381 -0.3525 -0.0516
   99OSM    C14 9852   4.451   0.978  10.824 -0.6001  0.1364  0.3672
   99OSM   H14A 9853   4.514   0.940  10.903 -2.7224 -2.9495  0.7421
   99OSM   H14B 9854   4.438   1.084  10.837 -2.5976 -0.2908  2.3148
   99OSM   H14C 9855   4.495   0.963  10.726  1.4494  2.6640  0.7780
   99OSM    C13 9856   4.309   0.782  10.759  1.1920  0.5235 -0.2268
   99OSM   H13A 9857   4.213   0.731  10.761  1.8331 -0.7094  1.4563
   99OSM   H13B 9858   4.378   0.712  10.804 -1.6660 -2.0097  0.5726
   99OSM   H13C 9859   4.331   0.806  10.656  0.4830  1.0117 -0.2738
   99OSM    C12 9860   4.207   1.017  10.775 -0.3006 -0.4214 -0.2694
   99OSM   H12A 9861   4.106   0.980  10.776 -1.0852  1.6427  0.4585
   99OSM   H12B 9862   4.234   1.049  10.675  0.4868  0.8351  0.3242
   99OSM    C11 9863   4.196   1.157  10.855 -0.4079 -0.2149  0.2816
   99OSM   H11A 9864   4.137   1.150  10.949 -0.5431  2.5827  0.4924
   99OSM   H11B 9865   4.122   1.205  10.787 -1.7957 -0.3007  1.6811
   99OSM      P 9866   4.313   1.386  10.855 -0.2641  0.0174 -0.0466
   99OSM    O13 9867   4.225   1.439  10.965  0.0703 -0.0647  0.2153
   99OSM    O14 9868   4.448   1.443  10.838  0.0952 -0.0521 -0.7551
   99OSM    O11 9869   4.234   1.396  10.712  0.1440  0.4178 -0.1593
   99OSM    O12 9870   4.321   1.232  10.868 -0.5463  0.0847 -0.2122
   99OSM    C1S 9871   4.305   1.339  10.596 -0.0528 -0.6865 -0.7752
   99OSM    H1S 9872   4.320   1.230  10.616 -1.0434 -0.4651  1.5587
   99OSM    H1T 9873   4.399   1.395  10.581 -0.1831 -0.4842 -0.8426
   99OSM     NF 9874   4.288   1.264  10.361  0.1853 -0.3699 -0.7900
   99OSM    HNF 9875   4.357   1.305  10.302  0.0524  1.8338  0.4859
   99OSM    C2S 9876   4.225   1.347  10.466 -0.2968  0.2890 -0.1200
   99OSM    H2S 9877   4.121   1.309  10.479  0.0935 -1.2863 -1.2929
   99OSM    C3S 9878   4.210   1.503  10.435 -0.2170 -0.2419  0.5247
   99OSM    H3S 9879   4.312   1.544  10.427 -0.1453 -0.7195 -1.4312
   99OSM     O3 9880   4.144   1.574  10.536  0.2336 -0.2363 -0.6060
   99OSM    HO3 9881   4.123   1.518  10.611 -4.1299  1.5293 -0.2087
   99OSM    C4S 9882   4.139   1.521  10.304  0.5079 -0.7622  0.2869
   99OSM    H4S 9883   4.031   1.498  10.300 -0.3554  2.7488 -0.1423
   99OSM    C5S 9884   4.188   1.589  10.195  0.2791 -0.1150  0.4119
   99OSM    H5S 9885   4.284   1.640  10.210  0.8930 -0.9360 -0.6087
   99OSM    C6S 9886   4.101   1.612  10.066 -0.2855 -0.1831  0.1643
   99OSM    H6S 9887   4.075   1.720  10.062  0.4045 -0.0432 -1.9204
   99OSM    H6T 9888   4.006   1.554  10.066 -1.2620  1.3478 -0.5002
   99OSM    C7S 9889   4.184   1.566   9.943  0.2290 -0.6444  0.3321
   99OSM    H7S 9890   4.284   1.615   9.943 -0.0890  0.0386 -1.0373
   99OSM    H7T 9891   4.143   1.608   9.849 -0.1342 -1.0750  0.2958
   99OSM    C8S 9892   4.204   1.417   9.932  0.3398  0.3554 -0.3271
   99OSM    H8S 9893   4.110   1.363   9.909  1.4039 -1.3628 -0.7586
   99OSM    H8T 9894   4.229   1.374  10.031  1.6559  0.8167 -0.4372
   99OSM    C9S 9895   4.317   1.377   9.835 -0.4893  0.3200 -0.4056
   99OSM    H9S 9896   4.330   1.267   9.840 -0.8290  0.2222 -1.4596
   99OSM    H9T 9897   4.413   1.414   9.878 -1.3776  0.4345  1.5909
   99OSM   C10S 9898   4.287   1.413   9.687 -0.0882 -0.1432 -0.2808
   99OSM   H10S 9899   4.271   1.522   9.684  0.7356 -0.0022  0.0500
   99OSM   H10T 9900   4.191   1.361   9.667  0.2108 -0.1685 -1.7971
   99OSM   C11S 9901   4.396   1.352   9.600 -0.1335  0.0305  0.2639
   99OSM   H11S 9902   4.421   1.247   9.628  1.5599  0.3072 -0.0608
   99OSM   H11T 9903   4.482   1.420   9.617 -0.6167  0.2712  1.9647
   99OSM   C12S 9904   4.357   1.366   9.449  0.7634  0.5550 -0.1329
   99OSM   H12S 9905   4.269   1.298   9.438  1.8587 -0.8580 -0.5037
   99OSM   H12T 9906   4.311   1.466   9.436 -2.0196 -0.6942 -0.6496
   99OSM   C13S 9907   4.468   1.332   9.347  0.0575 -0.5945  0.9274
   99OSM   H13S 9908   4.504   1.231   9.376  1.7490  0.1257  1.4880
   99OSM   H13T 9909   4.547   1.408   9.366  2.2594 -1.6314 -2.8075
   99OSM   C14S 9910   4.430   1.344   9.197  0.7560 -0.0537  0.5455
   99OSM   H14S 9911   4.396   1.444   9.163  2.2030  0.9242  1.8490
   99OSM   H14T 9912   4.356   1.264   9.175  0.2824  0.2832  0.8979
   99OSM   C15S 9913   4.552   1.323   9.108  0.4282 -0.3174  0.3665
   99OSM   H15S 9914   4.598   1.225   9.135  2.5739  0.6038  0.2802
   99OSM   H15T 9915   4.630   1.399   9.132 -1.2848  1.1040  1.6972
   99OSM   C16S 9916   4.531   1.305   8.959  0.4987  0.0336 -0.8833
   99OSM   H16S 9917   4.478   1.396   8.924  0.7003  0.3653 -0.3277
   99OSM   H16T 9918   4.463   1.217   8.945 -2.3785  2.2828 -2.1013
   99OSM   C17S 9919   4.659   1.298   8.878  0.2757 -0.2637 -0.3261
   99OSM   H17S 9920   4.731   1.229   8.928  1.9311 -0.0712 -2.3142
   99OSM   H17T 9921   4.712   1.396   8.874 -1.3623  0.6375 -1.4943
   99OSM   C18S 9922   4.640   1.261   8.727 -0.4799  0.4597  0.2063
   99OSM   H18S 9923   4.601   1.157   8.724  1.5087 -0.3223 -0.0087
   99OSM   H18T 9924   4.734   1.268   8.669  0.1101  1.1393  1.2184
   99OSM   H18U 9925   4.566   1.332   8.684 -1.7741  0.1988  1.8977
   99OSM    C1F 9926   4.292   1.133  10.369 -0.0425  0.2358  0.7938
   99OSM     OF 9927   4.245   1.081  10.465 -0.9420 -0.5539 -0.1226
   99OSM    C2F 9928   4.347   1.066  10.239  0.0369 -0.4234 -0.8489
   99OSM    H2F 9929   4.443   1.021  10.272 -0.3918 -1.4396 -0.9280
   99OSM    H2G 9930   4.357   1.152  10.170 -3.8481  2.0229  1.2539
   99OSM    C3F 9931   4.271   0.944  10.190  0.7356  0.5049  0.1368
   99OSM    H3F 9932   4.294   0.862  10.261  3.3313  0.1682 -0.9636
   99OSM    H3G 9933   4.164   0.975  10.190  0.6377  0.2325  1.7510
   99OSM    C4F 9934   4.317   0.890  10.052  0.4479  0.0236 -0.6542
   99OSM    H4F 9935   4.250   0.810  10.015  1.2309 -1.3729  0.7980
   99OSM    H4G 9936   4.420   0.849  10.065 -0.3590 -1.7011  0.7692
   99OSM    C5F 9937   4.318   0.998   9.946  0.0931 -0.4881  0.3942
   99OSM    H5F 9938   4.398   1.066   9.982  0.3016 -1.6918  2.3699
   99OSM    H5G 9939   4.224   1.055   9.933 -0.7212 -2.0580 -0.8975
   99OSM    C6F 9940   4.363   0.950   9.806  0.0210 -0.1840  0.3638
   99OSM    H6F 9941   4.425   0.858   9.819  0.3255  0.0107  0.3121
   99OSM    H6G 9942   4.413   1.039   9.761 -1.2902  0.5426  0.3062
   99OSM    C7F 9943   4.245   0.913   9.717  0.5105  0.1735  0.1982
   99OSM    H7F 9944   4.169   0.991   9.698  2.1583  1.3073 -2.1589
   99OSM    H7G 9945   4.204   0.817   9.757 -1.8253  1.5633  1.3511
   99OSM    C8F 9946   4.279   0.878   9.569 -0.1917  0.2834  0.6336
   99OSM    H8F 9947   4.183   0.863   9.514  0.7144  1.6316 -1.4696
   99OSM    H8G 9948   4.332   0.781   9.561  0.6942  0.6655  1.7173
   99OSM    C9F 9949   4.364   0.977   9.489  0.3498 -0.0573 -0.2152
   99OSM    H9F 9950   4.388   1.060   9.557 -0.5745 -0.0304  0.0851
   99OSM   C10F 9951   4.394   0.973   9.355 -0.0169  0.4921  0.1389
   99OSM   H10F 9952   4.468   1.046   9.319 -0.1482 -0.6864 -2.7794
   99OSM   C11F 9953   4.339   0.864   9.256  0.1165  0.2914  0.3017
   99OSM   H11F 9954   4.267   0.803   9.314  0.6867 -0.0056  0.7149
   99OSM   H11G 9955   4.412   0.792   9.214 -2.5662 -2.2388 -0.3336
   99OSM   C12F 9956   4.260   0.926   9.136 -0.6007  0.8837  0.7369
   99OSM   H12F 9957   4.181   0.993   9.177  1.0689  3.0375  0.6618
   99OSM   H12G 9958   4.222   0.835   9.085 -0.9313  2.3590 -1.8049
   99OSM   C13F 9959   4.346   0.991   9.031 -0.5247  0.4438  0.0304
   99OSM   H13F 9960   4.372   1.092   9.069 -0.9956  0.9660 -0.9982
   99OSM   H13G 9961   4.288   1.004   8.938 -3.1837  0.4238  1.5960
   99OSM   C14F 9962   4.475   0.922   8.991  0.0504  0.5816 -0.3121
   99OSM   H14F 9963   4.544   0.907   9.077  0.5631 -0.3227 -0.8639
   99OSM   H14G 9964   4.516   0.994   8.917 -0.7895 -1.1370 -2.5824
   99OSM   C15F 9965   4.453   0.794   8.912 -0.2703  0.1386  0.6056
   99OSM   H15F 9966   4.358   0.807   8.857 -0.3720  2.1045  1.1786
   99OSM   H15G 9967   4.431   0.712   8.983 -3.0880 -0.0481 -0.3529
   99OSM   C16F 9968   4.550   0.752   8.795  0.2854  0.2036  0.0588
   99OSM   H16F 9969   4.540   0.828   8.714  1.8844  2.5898  1.9593
   99OSM   H16G 9970   4.516   0.655   8.753  0.7532  1.2479 -3.0336
   99OSM   C17F 9971   4.692   0.739   8.850 -0.7360  0.5611  0.9146
   99OSM   H17F 9972   4.677   0.717   8.958 -1.2756 -2.1246  0.3711
   99OSM   H17G 9973   4.753   0.830   8.834 -0.5977  0.6752  2.0585
   99OSM   C18F 9974   4.772   0.619   8.789 -0.0720 -0.9726 -0.2327
   99OSM   H18F 9975   4.823   0.638   8.692  2.3709 -0.0492  1.1468
   99OSM   H18G 9976   4.711   0.527   8.777 -1.8279 -0.2470  2.2903
   99OSM   H18H 9977   4.855   0.600   8.860  0.2685  1.1788  0.0276
  100OSM      N 9978   6.743   2.405  10.429  0.1068  0.0413  0.1757
  100OSM    C15 9979   6.739   2.349  10.290  0.1196  0.2566 -0.2526
  100OSM   H15A 9980   6.824   2.386  10.233 -0.9804  2.7326 -0.4055
  100OSM   H15B 9981   6.656   2.376  10.226  1.1349  0.6233 -1.4779
  100OSM   H15C 9982   6.735   2.242  10.298 -1.5184  0.2881 -0.3199
  100OSM    C14 9983   6.723   2.552  10.430  0.3514 -0.4500  0.7475
  100OSM   H14A 9984   6.625   2.575  10.391  0.1050 -2.8940 -0.2846
  100OSM   H14B 9985   6.784   2.609  10.361  0.2256 -0.8931  0.2588
  100OSM   H14C 9986   6.735   2.604  10.524 -1.4168 -1.2657  1.4750
  100OSM    C13 9987   6.639   2.340  10.513 -0.0232 -0.0916 -0.2136
  100OSM   H13A 9988   6.636   2.373  10.616 -0.2979 -3.1864  0.8751
  100OSM   H13B 9989   6.659   2.234  10.516 -0.6882 -0.2140  0.0959
  100OSM   H13C 9990   6.543   2.360  10.467  0.2875  0.6164 -0.5659
  100OSM    C12 9991   6.880   2.378  10.489  0.6876  0.4082  0.0496
  100OSM   H12A 9992   6.877   2.422  10.587  0.2060  3.2592 -1.1358
  100OSM   H12B 9993   6.950   2.447  10.445  0.2600  1.8071  1.4856
  100OSM    C11 9994   6.919   2.225  10.511 -0.1305 -0.3043 -0.4616
  100OSM   H11A 9995   7.024   2.241  10.543  0.0446 -3.6755  1.0763
  100OSM   H11B 9996   6.935   2.173  10.414 -0.3974 -1.1478 -0.0683
  100OSM      P 9997   6.890   2.011  10.658 -0.1137 -0.0675  0.4524
  100OSM    O13 9998   7.013   2.019  10.741  0.0217  0.0164 -0.4533
  100OSM    O14 9999   6.775   1.955  10.726  0.1088 -0.1920  0.3555
  100OSM    O1110000   6.916   1.944  10.523 -0.3869  0.5743 -0.0402
  100OSM    O1210001   6.844   2.155  10.613  0.4291 -0.5351  0.2426
  100OSM    C1S10002   6.808   1.893  10.442 -0.0346 -0.4992  0.2607
  100OSM    H1S10003   6.719   1.959  10.435 -0.7115 -1.3754  0.4769
  100OSM    H1T10004   6.765   1.803  10.489 -0.4985 -1.8690 -2.5900
  100OSM     NF10005   6.739   1.865  10.199  0.4337  0.1095 -0.7232
  100OSM    HNF10006   6.723   1.776  10.157 -0.5349  0.7718 -1.8197
  100OSM    C2S10007   6.850   1.876  10.293 -0.7084  0.1106  0.2873
  100OSM    H2S10008   6.910   1.966  10.267 -0.6744  0.1771  0.5834
  100OSM    C3S10009   6.952   1.765  10.277  0.2740  0.0012  0.6063
  100OSM    H3S10010   6.893   1.672  10.294 -2.3251  1.9644  3.2391
  100OSM     O310011   7.057   1.766  10.374 -0.0015  0.3976  0.1219
  100OSM    HO310012   7.024   1.804  10.456  0.5731  2.5379 -0.5762
  100OSM    C4S10013   7.020   1.758  10.145  0.1762 -0.1399  0.3650
  100OSM    H4S10014   7.009   1.662  10.093  3.0312 -2.0670  2.9277
  100OSM    C5S10015   7.094   1.857  10.079  0.2670  0.2325 -0.2141
  100OSM    H5S10016   7.099   1.957  10.125 -1.7070  0.3483 -0.1737
  100OSM    C6S10017   7.158   1.842   9.946  0.1694  0.0750 -0.0899
  100OSM    H6S10018   7.241   1.769   9.956 -0.1560  0.0070  3.1506
  100OSM    H6T10019   7.213   1.935   9.922 -0.5506  1.1060  2.0713
  100OSM    C7S10020   7.064   1.800   9.836 -0.1477 -0.2527  0.2076
  100OSM    H7S10021   6.974   1.865   9.835 -0.2826 -0.4145  0.9449
  100OSM    H7T10022   7.038   1.692   9.844 -1.0536  0.0337  1.6350
  100OSM    C8S10023   7.129   1.817   9.693  0.3141 -0.0521 -0.0923
  100OSM    H8S10024   7.192   1.727   9.674 -0.1261 -0.0817 -1.4790
  100OSM    H8T10025   7.205   1.898   9.692 -0.2811  0.5238 -1.7147
  100OSM    C9S10026   7.029   1.834   9.584  0.0209  0.0172  0.4703
  100OSM    H9S10027   6.984   1.934   9.600 -2.5433 -0.8382 -0.8563
  100OSM    H9T10028   6.951   1.757   9.602 -0.1135  0.1611  0.4996
  100OSM   C10S10029   7.087   1.816   9.441 -0.2224 -0.0092 -0.5356
  100OSM   H10S10030   7.120   1.710   9.432 -3.4298 -1.3068  1.2009
  100OSM   H10T10031   7.174   1.885   9.434 -0.2366 -0.0699 -1.3377
  100OSM   C11S10032   6.987   1.868   9.337  0.5789 -0.5426  0.0636
  100OSM   H11S10033   6.962   1.974   9.358 -0.3785 -0.7282 -0.0911
  100OSM   H11T10034   6.889   1.816   9.334 -0.9067  2.1293 -1.6688
  100OSM   C12S10035   7.041   1.851   9.191  0.8576 -0.4909  0.3302
  100OSM   H12S10036   6.959   1.884   9.123  0.6977 -2.7352 -0.6466
  100OSM   H12T10037   7.044   1.740   9.187 -1.9134 -0.5966 -0.4209
  100OSM   C13S10038   7.173   1.926   9.160 -0.9629 -0.4341 -0.5263
  100OSM   H13S10039   7.253   1.859   9.197 -1.7997 -1.7909 -1.0890
  100OSM   H13T10040   7.186   2.015   9.225 -1.1335 -1.2981  0.7567
  100OSM   C14S10041   7.198   1.955   9.019  0.3174  0.3699  0.1357
  100OSM   H14S10042   7.300   1.994   8.997  1.0059 -2.2977 -1.9933
  100OSM   H14T10043   7.118   2.025   8.984 -0.5707 -0.9062 -0.4505
  100OSM   C15S10044   7.193   1.828   8.934  0.7415  0.0207  1.2761
  100OSM   H15S10045   7.099   1.770   8.944  0.2356  0.6885  0.4748
  100OSM   H15T10046   7.277   1.766   8.974  1.5715 -0.9607 -1.7451
  100OSM   C16S10047   7.196   1.861   8.784 -0.5425  0.2620 -0.0505
  100OSM   H16S10048   7.289   1.919   8.767  0.2521 -1.3470 -1.4295
  100OSM   H16T10049   7.108   1.927   8.770  0.1810  1.4865  0.9329
  100OSM   C17S10050   7.174   1.750   8.682 -0.5320  1.1122  0.6378
  100OSM   H17S10051   7.068   1.723   8.664  0.2800 -0.8824 -1.9790
  100OSM   H17T10052   7.221   1.655   8.717  0.6026  2.4315  2.9262
  100OSM   C18S10053   7.232   1.794   8.548  0.8487  0.3899 -0.2803
  100OSM   H18S10054   7.341   1.775   8.544  0.8059  0.3644 -3.5452
  100OSM   H18T10055   7.218   1.904   8.542 -0.6879  0.2402  0.1750
  100OSM   H18U10056   7.175   1.742   8.468 -0.2307  0.0145  0.6945
  100OSM    C1F10057   6.675   1.973  10.161  0.0486  0.0983  0.3545
  100OSM     OF10058   6.699   2.077  10.219  0.3377  0.1014  0.2114
  100OSM    C2F10059   6.572   1.962  10.047  0.1383  0.5566 -0.0529
  100OSM    H2F10060   6.527   2.063  10.038  1.4169  0.9760 -2.3428
  100OSM    H2G10061   6.502   1.879  10.069 -1.8386  2.2907  0.5702
  100OSM    C3F10062   6.644   1.937   9.913 -0.7004 -0.0935 -1.0558
  100OSM    H3F10063   6.706   1.846   9.917 -2.3300 -1.2252  1.3515
  100OSM    H3G10064   6.710   2.024   9.897 -1.3976  0.7414  0.3584
  100OSM    C4F10065   6.564   1.929   9.787 -0.5843 -0.4539  0.6029
  100OSM    H4F10066   6.490   2.011   9.771  0.5694  0.1974 -2.0865
  100OSM    H4G10067   6.495   1.842   9.790 -0.9463 -0.1672  0.6913
  100OSM    C5F10068   6.653   1.940   9.666 -0.0252  0.0256 -0.4164
  100OSM    H5F10069   6.709   1.843   9.666  0.4937  0.1647  3.5108
  100OSM    H5G10070   6.723   2.027   9.666  0.0959 -0.0701  0.1490
  100OSM    C6F10071   6.573   1.951   9.533  0.2835  0.1128  0.3621
  100OSM    H6F10072   6.492   1.875   9.530  2.3445 -2.1582 -0.9789
  100OSM    H6G10073   6.647   1.943   9.450  1.0161  0.8357  0.9267
  100OSM    C7F10074   6.508   2.087   9.504 -0.0485 -0.1601 -0.0840
  100OSM    H7F10075   6.584   2.165   9.523 -0.1316 -0.0226 -0.3126
  100OSM    H7G10076   6.428   2.114   9.577 -0.8210  2.8049 -1.8467
  100OSM    C8F10077   6.432   2.106   9.364 -0.6781  0.4894  0.8044
  100OSM    H8F10078   6.376   2.202   9.376  2.7497  2.7137  0.3807
  100OSM    H8G10079   6.364   2.019   9.352 -0.2111  0.0137  1.4782
  100OSM    C9F10080   6.529   2.131   9.254 -0.6915  0.6340  0.1999
  100OSM    H9F10081   6.626   2.179   9.278 -0.7796  1.6106 -1.2768
  100OSM   C10F10082   6.506   2.105   9.124 -0.0651 -1.0141  0.2791
  100OSM   H10F10083   6.595   2.130   9.063  0.4703 -0.5510  1.2204
  100OSM   C11F10084   6.380   2.047   9.070 -0.4316 -0.2624  0.1721
  100OSM   H11F10085   6.312   2.037   9.157 -0.0854 -1.4505  0.3156
  100OSM   H11G10086   6.406   1.952   9.019  0.7792  0.3512 -0.4049
  100OSM   C12F10087   6.310   2.135   8.966  0.1599 -0.4153  0.1342
  100OSM   H12F10088   6.282   2.236   9.004 -0.5379  0.0303 -1.4822
  100OSM   H12G10089   6.208   2.090   8.959  1.2276 -3.3473  1.4784
  100OSM   C13F10090   6.385   2.139   8.833 -0.3266  0.2945 -0.4389
  100OSM   H13F10091   6.379   2.031   8.808  1.7906  0.2594 -0.9356
  100OSM   H13G10092   6.492   2.169   8.841  0.3059 -2.0029  0.4792
  100OSM   C14F10093   6.306   2.229   8.731 -0.2381 -0.3990  0.0685
  100OSM   H14F10094   6.355   2.199   8.636 -1.1002 -1.0650 -0.1775
  100OSM   H14G10095   6.326   2.337   8.748  0.4431  0.2557 -3.9316
  100OSM   C15F10096   6.153   2.201   8.726 -0.5009  0.1597  0.5458
  100OSM   H15F10097   6.100   2.258   8.805 -2.2410 -0.9208  0.2403
  100OSM   H15G10098   6.136   2.092   8.741 -0.3884  0.0114 -0.3415
  100OSM   C16F10099   6.097   2.216   8.582  0.4715  0.5478  0.2406
  100OSM   H16F10100   6.135   2.137   8.514  0.0370 -0.1897  0.8459
  100OSM   H16G10101   6.127   2.315   8.542 -2.1278  1.7861  1.1724
  100OSM   C17F10102   5.947   2.218   8.592 -0.5379 -0.2566  0.1387
  100OSM   H17F10103   5.900   2.237   8.493  0.2723  1.8467  0.1050
  100OSM   H17G10104   5.914   2.306   8.651  1.3948  0.0966  0.7839
  100OSM   C18F10105   5.885   2.095   8.654  0.3520  0.6931 -0.2591
  100OSM   H18F10106   5.905   2.014   8.581 -2.9812  0.7862 -1.4862
  100OSM   H18G10107   5.774   2.109   8.657  0.2811  0.5229 -1.4675
  100OSM   H18H10108   5.924   2.070   8.754 -0.3103  0.1667 -0.1192
  101OSM      N10109   2.071   2.191  10.868 -0.3110  0.2793  0.0497
  101OSM    C1510110   2.187   2.161  10.958 -0.2837  0.0286 -0.3359
  101OSM   H15A10111   2.167   2.083  11.030  0.3451  1.2347  1.1872
  101OSM   H15B10112   2.222   2.247  11.013  0.2269 -1.7774  2.3219
  101OSM   H15C10113   2.269   2.127  10.897  1.9907  2.3433  1.2078
  101OSM    C1410114   1.957   2.254  10.943 -0.1248 -0.0107  0.4512
  101OSM   H14A10115   2.001   2.323  11.013  0.6649 -0.1189  0.0707
  101OSM   H14B10116   1.896   2.182  10.997 -0.2887  0.4618  0.9050
  101OSM   H14C10117   1.890   2.300  10.871 -0.1110 -2.2660 -1.1185
  101OSM    C1310118   2.115   2.295  10.763 -0.4154 -0.1312  0.0349
  101OSM   H13A10119   2.039   2.312  10.688 -1.1444 -0.0976  0.7695
  101OSM   H13B10120   2.197   2.263  10.700 -0.5189  2.4539 -1.5690
  101OSM   H13C10121   2.144   2.395  10.793  0.1901 -0.0886 -0.6539
  101OSM    C1210122   2.021   2.068  10.796 -0.4868 -0.8150 -0.1766
  101OSM   H12A10123   1.945   2.103  10.728 -2.6573 -1.4917  1.7626
  101OSM   H12B10124   1.957   2.008  10.859  0.2740 -1.7003 -0.2152
  101OSM    C1110125   2.124   1.981  10.723  0.3626 -0.5204 -0.1728
  101OSM   H11A10126   2.183   2.057  10.668  0.2662 -0.2841  0.0510
  101OSM   H11B10127   2.075   1.913  10.649 -2.8096  2.4037 -1.0328
  101OSM      P10128   2.190   1.757  10.855  0.2361  0.4171  0.0989
  101OSM    O1310129   2.248   1.758  10.991 -0.1105  0.1332 -0.5976
  101OSM    O1410130   2.045   1.722  10.824 -0.2322  0.0304 -0.1574
  101OSM    O1110131   2.269   1.666  10.756 -0.3678  0.6233  0.1279
  101OSM    O1210132   2.215   1.904  10.800  0.4835  0.1144  0.3260
  101OSM    C1S10133   2.282   1.692  10.612  0.2704  0.6738  0.3186
  101OSM    H1S10134   2.248   1.794  10.584 -1.0925  0.0054 -0.5688
  101OSM    H1T10135   2.220   1.613  10.564 -1.2037 -0.4810  3.7767
  101OSM     NF10136   2.435   1.724  10.418 -0.3785  0.3822  0.2449
  101OSM    HNF10137   2.459   1.642  10.366  0.0035  1.5212 -1.4399
  101OSM    C2S10138   2.430   1.699  10.561 -0.6903  1.0235 -0.6514
  101OSM    H2S10139   2.473   1.791  10.607 -4.4973  2.4071  0.5383
  101OSM    C3S10140   2.509   1.571  10.599  0.2275 -0.6019 -0.6975
  101OSM    H3S10141   2.464   1.494  10.533 -3.7795  1.0801 -0.2173
  101OSM     O310142   2.489   1.533  10.736  0.0240  0.1562  0.3229
  101OSM    HO310143   2.405   1.571  10.764 -0.3892 -0.6618  0.2147
  101OSM    C4S10144   2.655   1.592  10.584  0.0416 -0.1723 -0.5491
  101OSM    H4S10145   2.706   1.658  10.655  3.3472 -2.3330 -0.6899
  101OSM    C5S10146   2.730   1.532  10.489 -0.4196  0.2496  0.1509
  101OSM    H5S10147   2.682   1.463  10.417 -0.1706  0.7836 -0.5418
  101OSM    C6S10148   2.880   1.541  10.484  0.7756 -0.0793  0.0634
  101OSM    H6S10149   2.943   1.450  10.473  0.6873 -0.2950  1.2042
  101OSM    H6T10150   2.911   1.582  10.582 -2.8374 -1.6385  2.0522
  101OSM    C7S10151   2.923   1.641  10.371  0.0223  1.1142 -0.1654
  101OSM    H7S10152   3.034   1.632  10.373 -0.0678 -0.2883 -0.4047
  101OSM    H7T10153   2.895   1.745  10.396 -1.2687  0.6298  0.5074
  101OSM    C8S10154   2.884   1.600  10.227  0.4630 -0.3043 -0.8522
  101OSM    H8S10155   2.781   1.558  10.220  0.0513 -0.2317  2.7269
  101OSM    H8T10156   2.957   1.521  10.201  1.7652  0.1629  1.2009
  101OSM    C9S10157   2.877   1.721  10.132  0.1485  0.3294 -0.2094
  101OSM    H9S10158   2.978   1.764  10.115  0.2277 -0.1261 -0.9395
  101OSM    H9T10159   2.819   1.803  10.179  0.2947  0.7727 -0.8058
  101OSM   C10S10160   2.828   1.679   9.995 -0.4651  0.2761  0.7646
  101OSM   H10S10161   2.752   1.599  10.005 -0.0475  0.0832  2.7082
  101OSM   H10T10162   2.911   1.648   9.928 -0.2781  0.1576  1.0515
  101OSM   C11S10163   2.749   1.791   9.937 -0.0834  0.1999  0.0161
  101OSM   H11S10164   2.795   1.892   9.931  1.7990 -0.5883  0.2305
  101OSM   H11T10165   2.659   1.801  10.001 -0.6375  0.6173 -0.8139
  101OSM   C12S10166   2.700   1.773   9.787 -0.3574  0.1818  0.0175
  101OSM   H12S10167   2.629   1.858   9.780 -1.3286 -0.3803  2.1378
  101OSM   H12T10168   2.647   1.676   9.774 -0.7352  0.2410  0.9967
  101OSM   C13S10169   2.805   1.795   9.672 -0.3602  0.3903 -1.0485
  101OSM   H13S10170   2.862   1.700   9.659  0.1796  0.6294 -0.4511
  101OSM   H13T10171   2.878   1.876   9.692 -0.7545  1.1872 -2.6615
  101OSM   C14S10172   2.741   1.830   9.539 -0.0882  0.2477 -0.0885
  101OSM   H14S10173   2.693   1.929   9.524 -0.4431  0.6131  2.8176
  101OSM   H14T10174   2.664   1.752   9.527  0.5110 -0.3336 -0.2226
  101OSM   C15S10175   2.847   1.824   9.425 -0.1139 -0.1459 -0.2915
  101OSM   H15S10176   2.945   1.797   9.468 -1.0541 -2.0492  0.7937
  101OSM   H15T10177   2.877   1.923   9.386 -3.0685  0.6608 -0.7582
  101OSM   C16S10178   2.820   1.710   9.322 -0.5763  0.3913 -0.9776
  101OSM   H16S10179   2.888   1.716   9.234 -0.3197 -1.4870 -0.9492
  101OSM   H16T10180   2.712   1.724   9.296 -1.0986  0.6832  1.1841
  101OSM   C17S10181   2.835   1.564   9.375 -0.3609 -0.3023  0.9851
  101OSM   H17S10182   2.911   1.566   9.456 -0.0037  0.5507  0.6415
  101OSM   H17T10183   2.882   1.514   9.288 -2.2885  2.0431 -1.5459
  101OSM   C18S10184   2.713   1.477   9.398  0.6462  0.0228 -0.5439
  101OSM   H18S10185   2.745   1.376   9.429  2.2108 -0.1637 -2.5723
  101OSM   H18T10186   2.649   1.467   9.307 -0.9435 -2.1919  0.7283
  101OSM   H18U10187   2.643   1.524   9.471 -1.7079 -0.1781 -2.5153
  101OSM    C1F10188   2.402   1.842  10.368 -0.4569  0.5380  0.5736
  101OSM     OF10189   2.353   1.930  10.442 -0.5301  0.1371 -0.2111
  101OSM    C2F10190   2.408   1.857  10.216  0.5548  0.0802 -0.3068
  101OSM    H2F10191   2.403   1.751  10.182  0.2540 -0.3665  1.0450
  101OSM    H2G10192   2.503   1.909  10.191  0.0840  0.7060 -0.8148
  101OSM    C3F10193   2.284   1.933  10.171  0.4064 -0.1253  0.2236
  101OSM    H3F10194   2.299   2.038  10.203  1.3674  0.1974 -1.1493
  101OSM    H3G10195   2.190   1.884  10.203 -0.7830  0.3213 -2.3150
  101OSM    C4F10196   2.267   1.943  10.020  0.5351  0.4696 -0.9321
  101OSM    H4F10197   2.348   2.007   9.980 -0.3539  1.0593 -1.8303
  101OSM    H4G10198   2.171   1.990   9.992  0.3313  0.2627 -0.5916
  101OSM    C5F10199   2.269   1.798   9.960  0.3683 -0.5736 -0.0119
  101OSM    H5F10200   2.198   1.727  10.008 -0.4140 -0.3739 -0.8350
  101OSM    H5G10201   2.372   1.757   9.962  0.8581  0.4762 -1.6782
  101OSM    C6F10202   2.228   1.792   9.810 -0.6491  0.5979 -0.6617
  101OSM    H6F10203   2.120   1.812   9.794 -0.8871  0.0018  0.1406
  101OSM    H6G10204   2.277   1.875   9.755 -0.0537  1.3493  0.9567
  101OSM    C7F10205   2.266   1.665   9.737 -0.0803  0.3045  0.1388
  101OSM    H7F10206   2.217   1.569   9.765 -1.1800  0.7667 -0.1480
  101OSM    H7G10207   2.373   1.650   9.763  0.3625 -1.8166 -2.4740
  101OSM    C8F10208   2.257   1.663   9.584 -0.1998 -0.3718  0.5159
  101OSM    H8F10209   2.307   1.760   9.561  1.2634 -1.0867  0.5725
  101OSM    H8G10210   2.157   1.674   9.537  0.5230  0.6130 -0.9099
  101OSM    C9F10211   2.351   1.563   9.527 -0.4458  0.5235  0.1799
  101OSM    H9F10212   2.425   1.526   9.600 -1.0315  1.0987  1.0858
  101OSM   C10F10213   2.354   1.502   9.404 -0.7321  0.4545  0.3130
  101OSM   H10F10214   2.444   1.444   9.379 -0.1377  0.1741  2.8545
  101OSM   C11F10215   2.248   1.523   9.299 -0.4891  0.8723  0.2860
  101OSM   H11F10216   2.226   1.631   9.281  0.2862  0.8036 -1.2003
  101OSM   H11G10217   2.152   1.472   9.325  0.0438  0.0757  0.7178
  101OSM   C12F10218   2.283   1.459   9.165  0.8099  0.7796  0.3137
  101OSM   H12F10219   2.191   1.443   9.105  1.2679 -0.8233 -0.0227
  101OSM   H12G10220   2.317   1.354   9.179 -1.3492 -0.3616 -2.1491
  101OSM   C13F10221   2.384   1.551   9.089 -0.0001 -0.3093  0.6939
  101OSM   H13F10222   2.483   1.554   9.139  0.1273  0.1623  0.4180
  101OSM   H13G10223   2.342   1.654   9.086  1.0728  0.1212 -0.3382
  101OSM   C14F10224   2.420   1.519   8.945 -0.0669  0.0317 -0.2169
  101OSM   H14F10225   2.503   1.591   8.925 -0.2295 -0.0464 -1.2026
  101OSM   H14G10226   2.338   1.557   8.880  1.9229  0.2720 -2.7633
  101OSM   C15F10227   2.453   1.379   8.916  0.0195  0.1586  0.3871
  101OSM   H15F10228   2.370   1.310   8.940  1.1956 -0.8795  1.6790
  101OSM   H15G10229   2.537   1.353   8.985  0.5873 -0.1849 -0.4157
  101OSM   C16F10230   2.488   1.343   8.770 -0.6670  0.2108  0.6489
  101OSM   H16F10231   2.413   1.379   8.696  0.3105 -1.9718 -1.5757
  101OSM   H16G10232   2.492   1.232   8.763 -2.0463  0.1103  1.1017
  101OSM   C17F10233   2.627   1.405   8.728  0.0473  0.4213  0.0597
  101OSM   H17F10234   2.643   1.513   8.750 -2.9469  0.5725  2.0374
  101OSM   H17G10235   2.621   1.385   8.619  0.1457 -1.6347  0.3989
  101OSM   C18F10236   2.749   1.322   8.786  0.0254 -0.5695 -0.1297
  101OSM   H18F10237   2.735   1.292   8.891  0.1697 -1.2649 -0.3083
  101OSM   H18G10238   2.839   1.388   8.790 -1.4522  1.4758  1.4037
  101OSM   H18H10239   2.777   1.236   8.722  1.3600  0.4680 -1.0130
  102OSM      N10240   6.068   4.097  11.153  0.3944  0.0591  0.0064
  102OSM    C1510241   6.170   4.063  11.048  0.0542 -0.3652  0.5107
  102OSM   H15A10242   6.187   3.957  11.047 -1.6754 -0.6714  0.1395
  102OSM   H15B10243   6.264   4.115  11.061 -0.0453 -0.3656  1.2914
  102OSM   H15C10244   6.142   4.090  10.947  1.1524  2.1358  0.8038
  102OSM    C1410245   5.947   4.010  11.144  0.6478 -0.1528 -0.0822
  102OSM   H14A10246   5.982   3.909  11.155  0.7146 -0.5704 -3.3136
  102OSM   H14B10247   5.902   4.020  11.047  1.2644  1.2885 -0.2499
  102OSM   H14C10248   5.874   4.039  11.219  0.7206  2.8489 -1.0194
  102OSM    C1310249   6.123   4.084  11.292  0.1208  0.4131 -1.0713
  102OSM   H13A10250   6.199   4.156  11.318 -0.7509 -0.0761  4.0485
  102OSM   H13B10251   6.169   3.987  11.307 -0.5319  0.4361  1.7569
  102OSM   H13C10252   6.054   4.084  11.375  2.3691 -0.2512  0.9198
  102OSM    C1210253   6.034   4.237  11.133  0.2156 -0.3619  0.6192
  102OSM   H12A10254   6.117   4.303  11.155 -0.0692  0.3444 -0.3461
  102OSM   H12B10255   5.952   4.267  11.197  0.2387 -0.3139  0.6268
  102OSM    C1110256   6.000   4.301  10.995  0.5261  0.1058  0.3856
  102OSM   H11A10257   6.081   4.294  10.919 -0.3176 -0.5497 -0.4837
  102OSM   H11B10258   5.988   4.410  11.011 -0.8901  0.4184 -2.2231
  102OSM      P10259   5.863   4.161  10.817  0.1088 -0.3180  0.0523
  102OSM    O1310260   5.838   4.020  10.861  0.0962  0.3374 -0.0547
  102OSM    O1410261   5.767   4.220  10.729  0.9086 -0.1027 -0.1517
  102OSM    O1110262   6.004   4.167  10.743  0.1276  0.3889  0.6579
  102OSM    O1210263   5.879   4.253  10.942 -0.0247  0.5206 -0.4000
  102OSM    C1S10264   6.044   4.073  10.643 -0.3612 -0.5102  0.2832
  102OSM    H1S10265   5.969   3.992  10.627 -1.7827  0.8687 -0.2897
  102OSM    H1T10266   6.146   4.030  10.651 -0.1025  0.1471  0.4883
  102OSM     NF10267   6.071   4.045  10.388  0.8439  0.4254  0.2722
  102OSM    HNF10268   6.156   4.046  10.337  1.3824  1.0774  1.1564
  102OSM    C2S10269   6.055   4.137  10.501  0.6542 -0.0072 -0.7096
  102OSM    H2S10270   5.958   4.185  10.479  0.8661  1.5692  1.4988
  102OSM    C3S10271   6.160   4.257  10.497 -0.5950  0.2247  0.1906
  102OSM    H3S10272   6.257   4.205  10.512  0.1118  1.2977 -0.5188
  102OSM     O310273   6.144   4.354  10.600 -0.4900  0.1726  0.3094
  102OSM    HO310274   6.123   4.307  10.681  1.0401 -0.0458  0.6061
  102OSM    C4S10275   6.171   4.322  10.363 -0.0867  0.2523  0.2012
  102OSM    H4S10276   6.235   4.264  10.295 -1.5702  0.4020 -1.3762
  102OSM    C5S10277   6.131   4.438  10.318 -0.2658  0.2250 -0.5781
  102OSM    H5S10278   6.076   4.504  10.387  2.2389  3.5210 -1.4741
  102OSM    C6S10279   6.145   4.507  10.188 -0.2039  0.6236 -0.1678
  102OSM    H6S10280   6.206   4.599  10.197 -0.4331  0.5549  4.4299
  102OSM    H6T10281   6.049   4.531  10.139 -0.7120  4.0364  2.1322
  102OSM    C7S10282   6.225   4.420  10.089  0.1281 -0.1748 -0.0009
  102OSM    H7S10283   6.170   4.324  10.081  0.3048 -0.5436  2.3192
  102OSM    H7T10284   6.322   4.398  10.138  2.3971  2.0740 -3.1185
  102OSM    C8S10285   6.253   4.486   9.954 -0.5804 -0.1576 -0.0302
  102OSM    H8S10286   6.301   4.587   9.956 -0.8562 -0.0359  1.2893
  102OSM    H8T10287   6.155   4.515   9.911 -0.4340 -2.0657 -1.7924
  102OSM    C9S10288   6.309   4.391   9.845 -0.7199  0.4303  0.3936
  102OSM    H9S10289   6.251   4.296   9.835  2.9310 -1.8071 -2.3605
  102OSM    H9T10290   6.414   4.362   9.866 -1.5433 -1.2279  2.6664
  102OSM   C10S10291   6.313   4.466   9.709  0.4360 -0.6543  0.5222
  102OSM   H10S10292   6.354   4.569   9.713 -2.0190  0.3545  1.9748
  102OSM   H10T10293   6.206   4.472   9.681  0.7342  1.0004 -0.4149
  102OSM   C11S10294   6.382   4.381   9.607 -0.7969  0.1937  0.0543
  102OSM   H11S10295   6.325   4.287   9.590 -0.5587 -0.0191  0.4171
  102OSM   H11T10296   6.484   4.348   9.637 -1.0467  0.0556  0.7843
  102OSM   C12S10297   6.395   4.452   9.470 -0.2015  0.1159 -0.2759
  102OSM   H12S10298   6.429   4.555   9.490  1.7118 -0.5309 -0.0093
  102OSM   H12T10299   6.293   4.455   9.426 -2.3514 -2.0630  3.9418
  102OSM   C13S10300   6.498   4.387   9.382 -0.4126 -0.2817  0.2892
  102OSM   H13S10301   6.462   4.283   9.363  1.3863 -0.4431 -2.8021
  102OSM   H13T10302   6.593   4.382   9.438  0.7526 -2.3359 -1.7173
  102OSM   C14S10303   6.509   4.450   9.243  0.1324 -0.1291 -0.9352
  102OSM   H14S10304   6.527   4.559   9.255  4.8165 -1.0578  3.9043
  102OSM   H14T10305   6.414   4.433   9.187 -0.7813  0.6235  0.3511
  102OSM   C15S10306   6.625   4.383   9.173  0.1834 -0.9049  0.0622
  102OSM   H15S10307   6.596   4.280   9.140 -0.4385 -0.0158 -2.4484
  102OSM   H15T10308   6.714   4.376   9.237  3.0996 -1.4910 -3.6852
  102OSM   C16S10309   6.656   4.453   9.040  0.2778 -0.0848 -0.4135
  102OSM   H16S10310   6.706   4.549   9.063  1.1317 -1.2516  3.3381
  102OSM   H16T10311   6.562   4.478   8.987 -0.5257 -0.1932  0.9091
  102OSM   C17S10312   6.744   4.373   8.946  0.1960 -0.0912 -0.5662
  102OSM   H17S10313   6.847   4.364   8.987  0.2392 -0.0499 -0.6636
  102OSM   H17T10314   6.764   4.435   8.856  2.1638 -0.4601 -0.4230
  102OSM   C18S10315   6.687   4.240   8.897  0.2432 -0.5932  0.1356
  102OSM   H18S10316   6.596   4.270   8.840 -0.7199  0.5075  2.1485
  102OSM   H18T10317   6.663   4.174   8.983  2.3406 -0.5923  0.7734
  102OSM   H18U10318   6.768   4.196   8.835 -0.7910 -1.4067 -0.6893
  102OSM    C1F10319   5.976   3.963  10.349 -0.2848  0.2599  0.2561
  102OSM     OF10320   5.867   3.958  10.403  0.0995 -0.9713 -0.0053
  102OSM    C2F10321   6.019   3.870  10.228 -0.4908 -0.0333 -0.9597
  102OSM    H2F10322   6.017   3.768  10.273  0.3285 -0.4808 -1.9059
  102OSM    H2G10323   6.125   3.886  10.199 -0.0709 -0.3901  0.2736
  102OSM    C3F10324   5.919   3.869  10.109 -0.4873  0.5246  1.1194
  102OSM    H3F10325   5.901   3.973  10.074 -0.1669  2.0036  4.9121
  102OSM    H3G10326   5.817   3.836  10.138 -1.7114  3.2634  0.2970
  102OSM    C4F10327   5.967   3.777   9.988 -0.7183 -0.7704  0.3704
  102OSM    H4F10328   5.938   3.671  10.003 -2.9607 -0.3498 -0.6465
  102OSM    H4G10329   6.078   3.779   9.981 -0.5979 -1.4669  1.6171
  102OSM    C5F10330   5.919   3.822   9.844  0.3410 -0.9069  0.4428
  102OSM    H5F10331   5.940   3.930   9.830  1.5216 -1.4139 -2.1991
  102OSM    H5G10332   5.808   3.813   9.844  0.1501  1.0053  1.3003
  102OSM    C6F10333   5.988   3.737   9.737 -0.4536 -0.9218  0.4046
  102OSM    H6F10334   5.962   3.630   9.754 -1.1880 -0.8972 -0.5012
  102OSM    H6G10335   6.099   3.747   9.743 -0.6172  1.7881  0.1686
  102OSM    C7F10336   5.949   3.771   9.591  0.2513 -0.2745  0.1662
  102OSM    H7F10337   5.997   3.870   9.575  1.1749 -0.1314  3.0918
  102OSM    H7G10338   5.838   3.775   9.590  0.2738  0.2823 -0.3126
  102OSM    C8F10339   5.996   3.665   9.490  0.3149 -0.1582  0.4953
  102OSM    H8F10340   6.099   3.636   9.520  0.6296  0.1064 -0.3084
  102OSM    H8G10341   6.002   3.724   9.396  1.3476 -0.1459  0.5479
  102OSM    C9F10342   5.913   3.543   9.490  0.0269  0.5337 -0.7620
  102OSM    H9F10343   5.907   3.491   9.586  1.4897 -1.1015 -1.4989
  102OSM   C10F10344   5.865   3.477   9.382 -0.5362 -0.0071 -0.3326
  102OSM   H10F10345   5.802   3.388   9.391  0.8410 -1.0924 -1.1637
  102OSM   C11F10346   5.862   3.523   9.247 -0.1620  0.2943  0.2823
  102OSM   H11F10347   5.839   3.631   9.257 -0.5988  0.6064 -2.9601
  102OSM   H11G10348   5.777   3.468   9.202 -0.4125  1.9865 -1.4326
  102OSM   C12F10349   5.984   3.501   9.160  0.3224 -1.1414  0.4658
  102OSM   H12F10350   6.016   3.395   9.171  0.8191 -0.9834  0.5911
  102OSM   H12G10351   6.051   3.581   9.197  0.0976 -0.9479  0.4552
  102OSM   C13F10352   5.969   3.532   9.009 -0.7380  0.3535 -0.1219
  102OSM   H13F10353   5.874   3.486   8.972 -0.0915  0.8441 -2.5304
  102OSM   H13G10354   6.047   3.486   8.945  0.1107  1.3705  0.1705
  102OSM   C14F10355   5.960   3.678   8.974 -0.5160 -0.4809 -0.2208
  102OSM   H14F10356   6.049   3.741   8.997 -0.7409  0.7329 -2.3717
  102OSM   H14G10357   5.872   3.725   9.022  0.1891  3.5610 -2.4532
  102OSM   C15F10358   5.960   3.695   8.825  0.1524  0.3098 -0.0444
  102OSM   H15F10359   5.864   3.652   8.789  0.1934 -1.0256  1.3307
  102OSM   H15G10360   6.042   3.630   8.786  1.1536  0.2491  2.0298
  102OSM   C16F10361   5.978   3.847   8.797  0.0443  0.9753  0.1165
  102OSM   H16F10362   6.068   3.889   8.847  1.4698  0.7600 -2.1370
  102OSM   H16G10363   5.883   3.880   8.845 -0.8211  1.0013 -1.5272
  102OSM   C17F10364   5.982   3.876   8.650  0.1408 -0.5020 -0.7521
  102OSM   H17F10365   5.970   3.778   8.599 -0.2057 -2.2127  2.3512
  102OSM   H17G10366   6.078   3.924   8.622 -0.9406  1.8014 -0.7191
  102OSM   C18F10367   5.866   3.968   8.611  0.2545  0.5790  0.0297
  102OSM   H18F10368   5.887   4.074   8.635  0.9164  0.8095 -1.4583
  102OSM   H18G10369   5.773   3.944   8.667 -1.1455  0.9321 -2.0335
  102OSM   H18H10370   5.841   3.967   8.503 -0.0647  0.4035  0.1040
  103OSM      N10371   3.034   0.763  10.898  0.2716 -0.2621 -0.4098
  103OSM    C1510372   2.913   0.777  10.817 -0.2338  0.5090  0.0783
  103OSM   H15A10373   2.923   0.730  10.720 -2.7679 -1.3529  0.6341
  103OSM   H15B10374   2.888   0.878  10.789  0.5982 -0.0613 -3.1427
  103OSM   H15C10375   2.836   0.720  10.867 -0.4842 -0.2846 -1.1601
  103OSM    C1410376   3.137   0.846  10.821  0.3969  0.6737 -0.1671
  103OSM   H14A10377   3.088   0.940  10.798 -3.0007 -0.6332  1.0702
  103OSM   H14B10378   3.154   0.793  10.728 -1.0321 -0.4138  0.1524
  103OSM   H14C10379   3.232   0.856  10.872  1.0606  0.5631 -1.3465
  103OSM    C1310380   3.009   0.831  11.031 -0.3363 -0.5098  0.6310
  103OSM   H13A10381   2.938   0.779  11.094 -1.8640  0.5217 -0.1777
  103OSM   H13B10382   2.977   0.933  11.012 -1.4251 -0.9724 -0.0652
  103OSM   H13C10383   3.104   0.840  11.082  0.8994  1.4432 -1.8200
  103OSM    C1210384   3.075   0.618  10.901 -0.1818 -0.6290 -0.7700
  103OSM   H12A10385   3.085   0.583  10.800 -2.3769  0.5357 -1.4294
  103OSM   H12B10386   2.997   0.565  10.954 -0.3994 -0.3661 -0.8270
  103OSM    C1110387   3.207   0.599  10.981  0.4384 -0.2089  0.4061
  103OSM   H11A10388   3.184   0.631  11.085  1.6428  2.9196 -0.1698
  103OSM   H11B10389   3.287   0.665  10.941 -0.3045  0.3581 -0.1935
  103OSM      P10390   3.354   0.413  10.869  0.6083 -0.2263  0.0567
  103OSM    O1310391   3.477   0.496  10.893 -0.4753 -0.0909  0.0716
  103OSM    O1410392   3.365   0.262  10.878  0.2796  0.0413 -0.1642
  103OSM    O1110393   3.295   0.450  10.735 -0.1025 -0.4115  0.2865
  103OSM    O1210394   3.245   0.463  10.966 -0.1359  0.1167  0.7972
  103OSM    C1S10395   3.375   0.422  10.623  0.1277 -0.5586  0.1055
  103OSM    H1S10396   3.413   0.317  10.617 -1.8367 -1.4847  2.1359
  103OSM    H1T10397   3.463   0.489  10.625  1.5417 -2.2446 -1.6135
  103OSM     NF10398   3.400   0.461  10.385 -0.5748  0.1834  0.7439
  103OSM    HNF10399   3.431   0.555  10.377  0.1434 -0.1847 -1.2373
  103OSM    C2S10400   3.296   0.442  10.487  0.2508 -0.3518  0.1761
  103OSM    H2S10401   3.236   0.350  10.475  1.7192 -1.0749 -2.2919
  103OSM    C3S10402   3.197   0.565  10.504 -0.3723 -0.5476  0.3336
  103OSM    H3S10403   3.254   0.655  10.537 -1.3005 -0.3561  1.4843
  103OSM     O310404   3.107   0.552  10.608  0.4692 -0.0234 -0.7875
  103OSM    HO310405   3.164   0.515  10.675 -2.6536  2.5837  3.8921
  103OSM    C4S10406   3.115   0.566  10.375 -0.6582 -0.1956 -0.1357
  103OSM    H4S10407   3.039   0.488  10.360  0.1089 -0.5202 -2.9335
  103OSM    C5S10408   3.129   0.659  10.273  0.4441 -0.1789 -0.5044
  103OSM    H5S10409   3.207   0.736  10.285 -0.0228  0.3514 -0.7869
  103OSM    C6S10410   3.050   0.657  10.145  0.0593  0.2667 -0.1477
  103OSM    H6S10411   3.011   0.759  10.125  1.5098  0.8609 -0.0758
  103OSM    H6T10412   2.968   0.583  10.154 -1.6092  1.7963 -1.8544
  103OSM    C7S10413   3.151   0.600  10.044 -0.4884  0.2499 -0.3974
  103OSM    H7S10414   3.117   0.584   9.940  0.4957 -0.2080 -0.6683
  103OSM    H7T10415   3.181   0.501  10.084 -1.7211  0.3622  0.8795
  103OSM    C8S10416   3.278   0.691  10.032  0.3881  0.1717 -0.1527
  103OSM    H8S10417   3.357   0.664  10.105  0.5843 -0.8740 -0.7205
  103OSM    H8T10418   3.257   0.797  10.057  2.1912  0.1643  1.6477
  103OSM    C9S10419   3.329   0.702   9.888 -0.0383 -0.8772 -0.2784
  103OSM    H9S10420   3.264   0.642   9.821 -0.2274  0.3206 -1.1955
  103OSM    H9T10421   3.435   0.669   9.885  0.4423  0.4901  0.5063
  103OSM   C10S10422   3.330   0.847   9.827 -0.6624 -0.2693 -1.0160
  103OSM   H10S10423   3.387   0.922   9.886 -0.5063 -0.9381 -0.2903
  103OSM   H10T10424   3.229   0.891   9.816 -1.1388 -1.3160 -0.9671
  103OSM   C11S10425   3.395   0.845   9.686  0.3334 -0.6580  0.8430
  103OSM   H11S10426   3.322   0.787   9.627  0.1741  1.9315 -1.7224
  103OSM   H11T10427   3.485   0.780   9.685  0.8608  0.0644 -0.6013
  103OSM   C12S10428   3.409   0.983   9.637 -0.3619  0.4892  0.0611
  103OSM   H12S10429   3.485   1.030   9.703  0.6312  0.3364 -0.9563
  103OSM   H12T10430   3.306   1.022   9.656 -0.6912 -0.2619 -0.1369
  103OSM   C13S10431   3.453   0.988   9.488 -0.1561 -0.1596 -0.7235
  103OSM   H13S10432   3.380   0.934   9.425  3.0605 -3.3363 -2.1091
  103OSM   H13T10433   3.535   0.914   9.474 -1.1127 -1.8983  1.9217
  103OSM   C14S10434   3.500   1.120   9.424  0.6763  0.3553 -0.6015
  103OSM   H14S10435   3.591   1.147   9.481  0.7914 -0.5873 -0.3097
  103OSM   H14T10436   3.420   1.194   9.444  0.0073 -0.6621  0.6741
  103OSM   C15S10437   3.535   1.117   9.279  0.1941  0.2018  0.1647
  103OSM   H15S10438   3.449   1.076   9.223 -0.7967  0.8183  1.1905
  103OSM   H15T10439   3.620   1.045   9.277  1.4899  1.6623 -1.6704
  103OSM   C16S10440   3.589   1.249   9.230  0.2395 -0.2783  0.4163
  103OSM   H16S10441   3.657   1.293   9.306 -1.8603  3.1359  0.4962
  103OSM   H16T10442   3.503   1.317   9.212  1.7501  1.3582 -0.9714
  103OSM   C17S10443   3.670   1.230   9.103 -0.1070  0.1088  0.1048
  103OSM   H17S10444   3.752   1.160   9.130  0.2426 -0.7021 -2.7503
  103OSM   H17T10445   3.733   1.321   9.089  0.5330 -0.3585 -0.0618
  103OSM   C18S10446   3.601   1.186   8.970  0.0356  0.1238 -0.5858
  103OSM   H18S10447   3.528   1.259   8.928 -2.0942  0.6619  3.4589
  103OSM   H18T10448   3.553   1.086   8.974  1.7828 -0.8429 -2.3100
  103OSM   H18U10449   3.682   1.175   8.895  1.0884  0.2951  0.4959
  103OSM    C1F10450   3.459   0.358  10.330  0.3934  0.0130  0.3756
  103OSM     OF10451   3.439   0.246  10.373  0.0818  0.2675  0.9867
  103OSM    C2F10452   3.545   0.381  10.211  0.1236 -0.5040 -0.0342
  103OSM    H2F10453   3.643   0.331  10.227  0.3160  0.4281  1.9433
  103OSM    H2G10454   3.573   0.488  10.200  0.3968 -0.7581 -2.3541
  103OSM    C3F10455   3.476   0.344  10.079  0.2766  0.3866 -0.5999
  103OSM    H3F10456   3.391   0.414  10.063  1.6948  2.5884  0.8804
  103OSM    H3G10457   3.434   0.241  10.071 -1.9307  1.2547 -1.0160
  103OSM    C4F10458   3.572   0.350   9.952 -0.0235  0.3171 -0.1287
  103OSM    H4F10459   3.663   0.286   9.956 -1.0407 -1.1275  0.9027
  103OSM    H4G10460   3.600   0.458   9.947 -0.8258  0.5945  0.8669
  103OSM    C5F10461   3.502   0.317   9.819 -0.1013  0.4074 -0.3404
  103OSM    H5F10462   3.398   0.356   9.816  0.0665  0.8627 -0.3118
  103OSM    H5G10463   3.505   0.207   9.799  1.3218 -0.0698  2.1101
  103OSM    C6F10464   3.582   0.383   9.699 -0.0409  0.3258  0.0564
  103OSM    H6F10465   3.682   0.335   9.706  1.1920  2.7288  0.0487
  103OSM    H6G10466   3.588   0.494   9.704 -0.1622  0.6095 -3.3234
  103OSM    C7F10467   3.520   0.338   9.560 -0.5012  0.5484  0.0632
  103OSM    H7F10468   3.409   0.339   9.561 -0.5173 -0.0860 -0.4784
  103OSM    H7G10469   3.557   0.236   9.534  1.0400  1.2829 -0.7591
  103OSM    C8F10470   3.568   0.437   9.447 -0.9775  0.8369  0.2312
  103OSM    H8F10471   3.541   0.537   9.487 -0.9144  1.3742 -1.0411
  103OSM    H8G10472   3.494   0.422   9.365 -0.7619  2.8427 -0.3803
  103OSM    C9F10473   3.715   0.426   9.418  0.0502  0.0681 -0.0829
  103OSM    H9F10474   3.783   0.431   9.504  1.2585 -0.2889 -0.9949
  103OSM   C10F10475   3.765   0.392   9.298 -0.7262 -0.0283  0.1284
  103OSM   H10F10476   3.872   0.371   9.283 -0.6521 -1.0267  1.7816
  103OSM   C11F10477   3.685   0.370   9.173 -0.1668 -0.2319 -0.5834
  103OSM   H11F10478   3.759   0.378   9.091  0.1666 -1.2646 -0.4040
  103OSM   H11G10479   3.610   0.450   9.159 -1.3959 -0.8623  1.8537
  103OSM   C12F10480   3.603   0.238   9.179  0.0307  0.1024 -0.2465
  103OSM   H12F10481   3.549   0.231   9.276  0.4841  0.8448  0.0707
  103OSM   H12G10482   3.673   0.152   9.180 -0.1107 -0.0239  1.2603
  103OSM   C13F10483   3.510   0.233   9.056 -0.0920  0.2899 -0.1763
  103OSM   H13F10484   3.453   0.328   9.048 -0.5639  0.0073 -0.2660
  103OSM   H13G10485   3.429   0.157   9.067  0.6311 -0.1967  2.3263
  103OSM   C14F10486   3.586   0.198   8.934 -0.9036 -0.1543 -0.1087
  103OSM   H14F10487   3.655   0.118   8.969  1.2764  1.2381 -1.0375
  103OSM   H14G10488   3.648   0.285   8.902 -0.1361 -0.4251  0.5988
  103OSM   C15F10489   3.510   0.144   8.816  0.1116 -0.0050  0.1941
  103OSM   H15F10490   3.402   0.171   8.815 -0.1917 -1.1542 -1.4056
  103OSM   H15G10491   3.510   0.035   8.832 -0.4490 -0.3424 -1.8642
  103OSM   C16F10492   3.562   0.192   8.682 -0.4170 -0.4625 -0.3263
  103OSM   H16F10493   3.672   0.174   8.684 -0.5571 -1.3146 -0.0822
  103OSM   H16G10494   3.564   0.300   8.656  0.3403 -0.9007 -2.2670
  103OSM   C17F10495   3.505   0.125   8.554  0.1569 -0.0360  0.1220
  103OSM   H17F10496   3.540   0.020   8.544  2.0200  0.2081  2.9391
  103OSM   H17G10497   3.527   0.185   8.463 -2.0886  3.0115  1.4170
  103OSM   C18F10498   3.352   0.132   8.567 -0.3850  0.6116  0.5063
  103OSM   H18F10499   3.323   0.057   8.644  1.1710  0.1640  0.6975
  103OSM   H18G10500   3.314   0.109   8.465 -0.3299  0.4428  0.5237
  103OSM   H18H10501   3.311   0.229   8.603 -0.7144  0.5772  0.2294
  104OSM      N10502   5.754   0.211  10.766  0.1916  1.0296 -0.3107
  104OSM    C1510503   5.778   0.186  10.911 -1.2285  0.2037 -0.3066
  104OSM   H15A10504   5.758   0.283  10.955 -0.0016  0.7153 -0.8230
  104OSM   H15B10505   5.882   0.161  10.918 -1.1910 -0.2888 -2.1640
  104OSM   H15C10506   5.712   0.107  10.945 -3.0445  1.8116  0.1069
  104OSM    C1410507   5.785   0.085  10.689  0.3780  0.0070 -0.7060
  104OSM   H14A10508   5.772   0.097  10.582  0.4095  1.3666 -0.5778
  104OSM   H14B10509   5.717   0.004  10.711 -0.5271  1.3373  1.7123
  104OSM   H14C10510   5.886   0.053  10.709  0.0146 -0.8110 -0.1449
  104OSM    C1310511   5.612   0.237  10.752  0.3278  0.0072  0.3784
  104OSM   H13A10512   5.538   0.166  10.786  0.8545 -1.0640 -0.6505
  104OSM   H13B10513   5.582   0.250  10.649  1.3019 -1.6480 -0.1468
  104OSM   H13C10514   5.593   0.331  10.801  0.4085 -0.0594  0.5361
  104OSM    C1210515   5.825   0.331  10.709  0.3743  0.0644  0.5285
  104OSM   H12A10516   5.813   0.350  10.604 -0.0980  2.4606  0.9597
  104OSM   H12B10517   5.930   0.311  10.725  0.4251  0.1412  0.2948
  104OSM    C1110518   5.787   0.459  10.783  0.5037  0.0865  0.2516
  104OSM   H11A10519   5.865   0.535  10.763  1.5389 -0.6439  1.3389
  104OSM   H11B10520   5.795   0.444  10.893 -2.6798  2.1215  0.8950
  104OSM      P10521   5.630   0.628  10.642  0.6057 -0.4294 -0.2036
  104OSM    O1310522   5.481   0.636  10.624 -0.4451 -0.7673  0.1522
  104OSM    O1410523   5.698   0.754  10.679  0.1632 -0.1180 -0.0471
  104OSM    O1110524   5.690   0.570  10.512  0.0039  0.1505 -0.3756
  104OSM    O1210525   5.657   0.520  10.755 -0.2029  0.1910  0.1492
  104OSM    C1S10526   5.666   0.626  10.381  0.0982 -0.1071  0.2987
  104OSM    H1S10527   5.739   0.708  10.364  3.3100 -2.4593  1.5848
  104OSM    H1T10528   5.563   0.666  10.369  0.0450  0.2159  1.6858
  104OSM     NF10529   5.678   0.596  10.142  0.1830 -0.2758  0.1120
  104OSM    HNF10530   5.590   0.586  10.097 -1.0508  0.2499  2.2772
  104OSM    C2S10531   5.688   0.520  10.270 -0.3916 -0.1948 -0.4519
  104OSM    H2S10532   5.791   0.479  10.277 -0.0627  0.3974 -1.6239
  104OSM    C3S10533   5.587   0.393  10.282  0.5364  0.7840  0.2079
  104OSM    H3S10534   5.480   0.421  10.276  1.1640  3.3945  0.0033
  104OSM     O310535   5.605   0.331  10.408 -0.0759  0.5769  0.3349
  104OSM    HO310536   5.648   0.406  10.450  0.1570  1.8994 -2.0837
  104OSM    C4S10537   5.607   0.290  10.176 -0.4185  0.0913 -0.0643
  104OSM    H4S10538   5.703   0.236  10.184 -0.3125  0.5143  2.5322
  104OSM    C5S10539   5.522   0.254  10.072  0.3415 -0.2690 -0.2184
  104OSM    H5S10540   5.422   0.299  10.070  0.7216  0.6652  0.9317
  104OSM    C6S10541   5.536   0.149   9.971  0.0433 -0.0929  0.2887
  104OSM    H6S10542   5.449   0.081   9.969 -1.0431  1.1204  2.4298
  104OSM    H6T10543   5.624   0.086   9.995  0.5930  0.1310 -1.0174
  104OSM    C7S10544   5.556   0.211   9.836  0.1087  0.0266  0.2994
  104OSM    H7S10545   5.601   0.133   9.770  0.4780  0.1776  0.3683
  104OSM    H7T10546   5.634   0.289   9.846  1.6949 -1.4916  0.4465
  104OSM    C8S10547   5.435   0.280   9.762 -0.0573  0.4223 -0.3174
  104OSM    H8S10548   5.434   0.387   9.792  1.8568  0.2878  0.3777
  104OSM    H8T10549   5.340   0.235   9.797 -0.1006  1.2287  0.6283
  104OSM    C9S10550   5.455   0.267   9.619  0.6374 -0.3268 -0.6903
  104OSM    H9S10551   5.361   0.286   9.562  0.8591 -3.1550 -2.2258
  104OSM    H9T10552   5.459   0.161   9.586  3.2743 -0.6594  0.4610
  104OSM   C10S10553   5.561   0.356   9.555 -0.0321 -0.1329 -0.1832
  104OSM   H10S10554   5.666   0.324   9.574 -0.1599 -1.0387 -0.9504
  104OSM   H10T10555   5.538   0.456   9.598 -1.2632  0.2364 -1.6419
  104OSM   C11S10556   5.553   0.350   9.399 -0.1406 -0.0381  0.6323
  104OSM   H11S10557   5.448   0.375   9.373 -1.8412 -2.1258  4.6168
  104OSM   H11T10558   5.563   0.244   9.365  0.0371  0.4161 -0.7718
  104OSM   C12S10559   5.641   0.450   9.322  0.0193 -0.1564  0.2121
  104OSM   H12S10560   5.745   0.414   9.341 -0.4382 -2.1940 -0.7827
  104OSM   H12T10561   5.638   0.544   9.381 -0.8956 -0.9881  1.5504
  104OSM   C13S10562   5.618   0.462   9.166 -0.0710 -0.2210 -0.6608
  104OSM   H13S10563   5.536   0.538   9.159  0.5415  0.9507  2.8179
  104OSM   H13T10564   5.587   0.363   9.127 -1.0452  0.4948 -1.7766
  104OSM   C14S10565   5.748   0.505   9.103 -0.1309  0.4007  0.3697
  104OSM   H14S10566   5.834   0.455   9.151  2.1182  2.8794 -0.7901
  104OSM   H14T10567   5.765   0.615   9.114  1.6187  0.1426  0.4664
  104OSM   C15S10568   5.750   0.478   8.950  0.1364 -0.7096  0.3534
  104OSM   H15S10569   5.841   0.524   8.908 -0.8644  0.4356 -0.6204
  104OSM   H15T10570   5.657   0.511   8.899 -0.4952 -3.6095 -0.5792
  104OSM   C16S10571   5.763   0.331   8.917 -0.2790  0.1874 -0.2461
  104OSM   H16S10572   5.677   0.270   8.950  0.4865 -0.6040  0.3287
  104OSM   H16T10573   5.847   0.284   8.972 -2.3135 -3.3885  0.1258
  104OSM   C17S10574   5.765   0.307   8.770 -0.1037  0.6498 -0.0165
  104OSM   H17S10575   5.851   0.365   8.729  1.0509 -0.2603  1.0213
  104OSM   H17T10576   5.671   0.356   8.737  0.5690  1.3479 -0.9810
  104OSM   C18S10577   5.781   0.163   8.731  0.6986  0.4730  0.0541
  104OSM   H18S10578   5.682   0.113   8.719 -0.2541  1.8979  1.6152
  104OSM   H18T10579   5.840   0.098   8.800 -1.9566 -2.6579 -0.4022
  104OSM   H18U10580   5.823   0.161   8.628 -2.4139  1.2209 -1.3403
  104OSM    C1F10581   5.771   0.685  10.115 -0.7444 -0.6544  0.0768
  104OSM     OF10582   5.888   0.673  10.165 -0.1617  0.1319  0.4598
  104OSM    C2F10583   5.735   0.798  10.020  0.8233  0.5924 -0.4994
  104OSM    H2F10584   5.722   0.896  10.071  0.4841  0.5225 -0.4492
  104OSM    H2G10585   5.632   0.779   9.986  0.9306  0.9055 -1.0240
  104OSM    C3F10586   5.839   0.798   9.902 -0.3752 -0.2308  0.1488
  104OSM    H3F10587   5.943   0.814   9.938  0.1112  0.7902 -1.5803
  104OSM    H3G10588   5.822   0.881   9.829  1.2986  0.1549  0.1474
  104OSM    C4F10589   5.849   0.665   9.833  0.1500 -0.5128 -0.7224
  104OSM    H4F10590   5.861   0.585   9.909 -0.5898 -1.5779 -1.7023
  104OSM    H4G10591   5.932   0.670   9.759 -1.0759 -0.7787 -2.1558
  104OSM    C5F10592   5.715   0.617   9.760  0.0603 -0.6905  0.0466
  104OSM    H5F10593   5.645   0.583   9.839 -0.4437  0.4984  0.1456
  104OSM    H5G10594   5.746   0.529   9.701  2.3511  1.3355 -2.0119
  104OSM    C6F10595   5.657   0.731   9.672  0.1645 -0.4653  0.0122
  104OSM    H6F10596   5.649   0.825   9.730 -0.5073  0.0653 -0.9094
  104OSM    H6G10597   5.555   0.697   9.645 -0.9381  2.0358  0.6914
  104OSM    C7F10598   5.744   0.760   9.540  0.3602 -0.8085 -0.2949
  104OSM    H7F10599   5.762   0.665   9.486 -1.3486 -0.4871 -1.5093
  104OSM    H7G10600   5.842   0.806   9.564  0.4421 -0.0321 -1.9457
  104OSM    C8F10601   5.675   0.873   9.450 -0.3049 -0.3076 -0.1753
  104OSM    H8F10602   5.763   0.902   9.388 -1.7157  3.0861 -0.8283
  104OSM    H8G10603   5.645   0.962   9.510 -1.0758 -0.8030  0.1841
  104OSM    C9F10604   5.550   0.826   9.380  0.0839  0.4177 -0.3446
  104OSM    H9F10605   5.514   0.727   9.411  4.7520 -0.9320  1.7941
  104OSM   C10F10606   5.488   0.896   9.290  0.5514  0.4255 -0.1035
  104OSM   H10F10607   5.389   0.862   9.258  0.8767 -1.4355  0.7229
  104OSM   C11F10608   5.530   1.034   9.233  0.0303  0.8972 -0.1331
  104OSM   H11F10609   5.624   1.077   9.271 -0.0147  1.0948 -0.2476
  104OSM   H11G10610   5.459   1.113   9.264  0.7687  1.1406  0.9707
  104OSM   C12F10611   5.548   1.029   9.078 -0.4198  0.2541  0.2897
  104OSM   H12F10612   5.538   1.135   9.044 -0.4656 -0.4137 -1.9386
  104OSM   H12G10613   5.465   0.972   9.033  0.6499  1.0054 -2.8826
  104OSM   C13F10614   5.684   0.979   9.045  0.0603 -0.6781  1.3044
  104OSM   H13F10615   5.682   0.877   9.088  1.1341 -0.9306  0.8000
  104OSM   H13G10616   5.763   1.046   9.087 -0.4707  2.0872 -1.7072
  104OSM   C14F10617   5.696   0.973   8.893 -0.1302 -0.0752  0.2505
  104OSM   H14F10618   5.801   0.949   8.866 -0.1960  0.0447 -0.1205
  104OSM   H14G10619   5.668   1.070   8.846 -0.6136 -1.0940 -1.6705
  104OSM   C15F10620   5.617   0.849   8.836  0.1528  0.0284  0.1997
  104OSM   H15F10621   5.511   0.858   8.868  0.3173  0.4369  0.6400
  104OSM   H15G10622   5.660   0.765   8.894  0.0419 -0.8788 -0.9922
  104OSM   C16F10623   5.639   0.821   8.687 -0.2142  0.0991 -0.2974
  104OSM   H16F10624   5.608   0.722   8.649  0.4067  0.1896 -1.0767
  104OSM   H16G10625   5.745   0.792   8.670 -0.5286 -0.0945 -2.1264
  104OSM   C17F10626   5.601   0.935   8.603 -0.3411  0.7817 -1.1313
  104OSM   H17F10627   5.644   1.024   8.655 -0.4405 -1.3184  2.9784
  104OSM   H17G10628   5.492   0.957   8.602 -1.0329 -2.1654  0.3446
  104OSM   C18F10629   5.662   0.921   8.464 -0.1700 -0.0074  0.0070
  104OSM   H18F10630   5.768   0.954   8.455 -0.5552  1.6712  1.1803
  104OSM   H18G10631   5.607   0.979   8.387  4.2344  3.8004 -0.6935
  104OSM   H18H10632   5.667   0.814   8.435 -0.2109 -0.3866  1.3240
  105OSM      N10633   2.366   3.547  11.116  0.1645 -0.5553 -0.3314
  105OSM    C1510634   2.266   3.471  11.198  0.7579 -0.1014 -0.8984
  105OSM   H15A10635   2.256   3.370  11.160 -2.1382 -1.0935  2.0233
  105OSM   H15B10636   2.175   3.528  11.208  1.1473  0.5495 -1.0482
  105OSM   H15C10637   2.308   3.458  11.297  0.0376 -0.4840 -0.6410
  105OSM    C1410638   2.403   3.677  11.181  0.3032 -1.2301 -0.2854
  105OSM   H14A10639   2.429   3.668  11.285 -1.6842  1.6733  0.5938
  105OSM   H14B10640   2.327   3.754  11.181  3.7431  2.5197  0.1840
  105OSM   H14C10641   2.482   3.729  11.129 -1.4201  0.2521 -1.5912
  105OSM    C1310642   2.492   3.457  11.121 -0.0047  0.2437 -0.8353
  105OSM   H13A10643   2.467   3.356  11.093 -1.2953  0.2246  0.3215
  105OSM   H13B10644   2.523   3.452  11.224  0.6879  1.9342 -0.9227
  105OSM   H13C10645   2.567   3.508  11.062 -1.2419  3.0106 -0.1800
  105OSM    C1210646   2.336   3.567  10.973 -0.1166  0.5158  0.0154
  105OSM   H12A10647   2.388   3.650  10.927 -0.6958  2.1553  2.1958
  105OSM   H12B10648   2.231   3.590  10.969 -0.2486  0.0979  0.8303
  105OSM    C1110649   2.349   3.440  10.886 -0.0323  0.3899  0.2966
  105OSM   H11A10650   2.455   3.413  10.868 -0.0083  0.2889  0.5862
  105OSM   H11B10651   2.324   3.483  10.786 -2.4917  0.4188  0.8527
  105OSM      P10652   2.125   3.315  10.857  0.5177 -0.2008 -0.0449
  105OSM    O1310653   2.074   3.175  10.876  0.2491  0.1644 -0.3073
  105OSM    O1410654   2.025   3.427  10.876 -0.6663 -0.2642 -0.3729
  105OSM    O1110655   2.164   3.317  10.704  0.4658 -0.4756  0.5181
  105OSM    O1210656   2.258   3.337  10.939 -0.6002  0.1146  0.0503
  105OSM    C1S10657   2.074   3.366  10.604 -0.3572 -0.1344  0.1180
  105OSM    H1S10658   2.053   3.468  10.643 -2.5033 -1.1192  1.7206
  105OSM    H1T10659   1.984   3.301  10.612  1.0991 -2.1203  1.0058
  105OSM     NF10660   2.046   3.446  10.374 -0.3295  0.3784 -0.2276
  105OSM    HNF10661   2.002   3.393  10.301  0.9136  0.7362 -1.2926
  105OSM    C2S10662   2.126   3.361  10.461  0.8025  0.0887  0.1426
  105OSM    H2S10663   2.229   3.402  10.465  0.4790  0.8024  1.3295
  105OSM    C3S10664   2.140   3.218  10.412 -0.2845 -0.5740  1.1628
  105OSM    H3S10665   2.043   3.165  10.403 -0.4088 -0.3794  1.3362
  105OSM     O310666   2.201   3.126  10.503 -0.0621  0.2201 -0.0477
  105OSM    HO310667   2.222   3.177  10.582  2.4346 -2.8326  1.4846
  105OSM    C4S10668   2.203   3.217  10.275 -0.2272  0.2970  0.4992
  105OSM    H4S10669   2.125   3.215  10.198  0.3028  1.8695 -0.1246
  105OSM    C5S10670   2.330   3.217  10.236 -0.0104  0.1848  0.1000
  105OSM    H5S10671   2.406   3.211  10.315 -0.9536  0.6773  1.0809
  105OSM    C6S10672   2.369   3.212  10.090  0.2720 -0.3796 -0.0775
  105OSM    H6S10673   2.430   3.123  10.063  0.5627 -0.8309  1.9145
  105OSM    H6T10674   2.434   3.301  10.080  1.4517 -1.1779  0.2183
  105OSM    C7S10675   2.259   3.232   9.982 -0.1081 -0.2239 -0.4391
  105OSM    H7S10676   2.195   3.320  10.004 -0.8321 -0.3474 -1.9512
  105OSM    H7T10677   2.210   3.133   9.983  2.0545 -1.3515  0.8165
  105OSM    C8S10678   2.321   3.270   9.847  0.1798  0.4331  0.4466
  105OSM    H8S10679   2.393   3.195   9.808  0.0268  0.3233  0.3696
  105OSM    H8T10680   2.397   3.346   9.874  1.8842 -1.4099  1.1273
  105OSM    C9S10681   2.223   3.318   9.736  0.5040 -0.1931  0.2355
  105OSM    H9S10682   2.175   3.409   9.779 -0.2956  0.3167 -1.6474
  105OSM    H9T10683   2.136   3.250   9.722 -1.6323  1.6402  3.3494
  105OSM   C10S10684   2.285   3.351   9.594  0.8084  0.0010 -0.1498
  105OSM   H10S10685   2.311   3.255   9.545 -2.5800 -0.8467 -0.5144
  105OSM   H10T10686   2.370   3.419   9.615 -0.4841  1.4720  0.5013
  105OSM   C11S10687   2.177   3.417   9.501  0.1737  0.8796  0.7184
  105OSM   H11S10688   2.157   3.517   9.545  0.0917  1.5931 -0.8461
  105OSM   H11T10689   2.091   3.347   9.511 -0.2253  1.4249  1.1723
  105OSM   C12S10690   2.210   3.435   9.350 -0.2104 -0.0294 -0.1863
  105OSM   H12S10691   2.316   3.468   9.357 -0.2113  0.2154 -1.2241
  105OSM   H12T10692   2.146   3.512   9.301 -1.2264 -0.8728 -0.2149
  105OSM   C13S10693   2.190   3.310   9.259  0.0026 -0.0833 -0.4481
  105OSM   H13S10694   2.083   3.284   9.245  0.3191 -2.3844  0.9487
  105OSM   H13T10695   2.235   3.220   9.304  1.3552  0.0771 -1.4015
  105OSM   C14S10696   2.263   3.325   9.120  0.5976 -0.3897 -0.0596
  105OSM   H14S10697   2.258   3.228   9.066  0.0167  0.0312 -0.7779
  105OSM   H14T10698   2.369   3.341   9.146  0.6812  0.7199 -1.0081
  105OSM   C15S10699   2.195   3.446   9.037 -0.0283  0.8339 -0.0156
  105OSM   H15S10700   2.208   3.535   9.101  2.0925 -0.8481  2.0937
  105OSM   H15T10701   2.087   3.426   9.024  0.0583  1.3333 -1.7680
  105OSM   C16S10702   2.268   3.455   8.903  0.5285 -0.3003  0.1861
  105OSM   H16S10703   2.378   3.451   8.911  0.6747 -2.0276 -1.7174
  105OSM   H16T10704   2.237   3.555   8.866  0.8574  0.0150  0.7621
  105OSM   C17S10705   2.230   3.351   8.799  0.8557 -0.7301  0.0969
  105OSM   H17S10706   2.122   3.344   8.776  1.3896 -1.7439 -2.4289
  105OSM   H17T10707   2.264   3.252   8.837  0.6900 -1.2996 -1.2076
  105OSM   C18S10708   2.304   3.384   8.668  0.1306  0.3756 -0.1013
  105OSM   H18S10709   2.262   3.472   8.615  2.0974 -0.0869 -2.5797
  105OSM   H18T10710   2.284   3.296   8.605 -1.7559  2.4677 -2.6539
  105OSM   H18U10711   2.411   3.403   8.689  0.0435  1.5860 -0.6346
  105OSM    C1F10712   2.053   3.581  10.382 -0.3858  0.2167  0.3878
  105OSM     OF10713   2.118   3.629  10.470 -0.3941 -0.3503  0.5631
  105OSM    C2F10714   1.970   3.665  10.282 -0.0068  0.2838  0.3029
  105OSM    H2F10715   1.867   3.669  10.322  0.0646 -0.9956  0.6749
  105OSM    H2G10716   1.972   3.626  10.178  2.1718  3.9463 -1.1931
  105OSM    C3F10717   2.013   3.815  10.291  0.1603  0.0396 -0.1518
  105OSM    H3F10718   2.110   3.807  10.238 -0.8113  0.3697 -2.1169
  105OSM    H3G10719   2.024   3.850  10.395  0.5783 -0.7101  0.0593
  105OSM    C4F10720   1.925   3.908  10.200 -0.4430 -0.3237  0.7119
  105OSM    H4F10721   1.959   4.010  10.229 -0.8677  0.3253 -0.9844
  105OSM    H4G10722   1.815   3.896  10.208 -0.3388 -0.4462  2.2653
  105OSM    C5F10723   1.949   3.891  10.047 -0.5194  0.2206  0.3993
  105OSM    H5F10724   1.923   3.785  10.027  0.6531 -0.8456  3.8656
  105OSM    H5G10725   2.059   3.902  10.033 -0.3460 -2.3983 -0.8939
  105OSM    C6F10726   1.866   3.991   9.972  0.5249 -0.4206 -0.3584
  105OSM    H6F10727   1.850   4.083  10.032 -1.2824 -1.5101  0.9149
  105OSM    H6G10728   1.760   3.962   9.962  0.3651  0.7972 -3.2609
  105OSM    C7F10729   1.910   4.032   9.833  0.2460  0.3752 -0.5083
  105OSM    H7F10730   1.821   4.068   9.776 -0.9935 -1.1172  0.4110
  105OSM    H7G10731   1.942   3.935   9.789 -0.2169 -0.0791  0.1521
  105OSM    C8F10732   2.033   4.127   9.830 -0.1779 -0.2330  0.1526
  105OSM    H8F10733   2.114   4.071   9.882  0.2483  1.7622  1.7696
  105OSM    H8G10734   2.008   4.217   9.890  1.6869  1.7648 -1.8855
  105OSM    C9F10735   2.072   4.162   9.693 -0.3242 -0.1678 -0.6175
  105OSM    H9F10736   2.056   4.077   9.624  0.3281 -0.7344 -0.0852
  105OSM   C10F10737   2.111   4.280   9.647  0.1010 -0.2571 -0.0715
  105OSM   H10F10738   2.138   4.300   9.543 -0.6316  2.1862  0.1640
  105OSM   C11F10739   2.135   4.391   9.749  0.3753 -0.2625 -0.5314
  105OSM   H11F10740   2.196   4.350   9.832 -1.0349 -1.9300 -0.2585
  105OSM   H11G10741   2.039   4.420   9.798 -0.1345 -1.0629 -1.0392
  105OSM   C12F10742   2.207   4.506   9.676 -0.3888 -0.5060 -0.8218
  105OSM   H12F10743   2.313   4.478   9.656  0.1876  0.7509  0.2523
  105OSM   H12G10744   2.221   4.585   9.753  0.2226 -1.4201  0.0270
  105OSM   C13F10745   2.126   4.561   9.554 -0.2393  0.3669  0.0718
  105OSM   H13F10746   2.025   4.593   9.587 -0.9463 -2.1364  0.6220
  105OSM   H13G10747   2.105   4.484   9.476 -2.1816  1.0450 -0.1042
  105OSM   C14F10748   2.207   4.671   9.484  0.1157 -0.1716 -0.1897
  105OSM   H14F10749   2.304   4.622   9.459 -0.2539 -0.2930 -1.4831
  105OSM   H14G10750   2.233   4.754   9.553 -2.9620  0.5818  0.1853
  105OSM   C15F10751   2.146   4.727   9.360  0.0536  0.4514  0.2060
  105OSM   H15F10752   2.118   4.643   9.293 -1.1705  1.3859 -0.4942
  105OSM   H15G10753   2.232   4.780   9.313 -0.3220 -1.0819 -2.3919
  105OSM   C16F10754   2.027   4.832   9.378  0.0619 -0.0554 -0.1524
  105OSM   H16F10755   1.955   4.786   9.449 -2.5774  3.5356 -0.2556
  105OSM   H16G10756   1.978   4.846   9.280 -3.2020  0.6000  1.4407
  105OSM   C17F10757   2.069   4.966   9.437 -0.4281 -0.2349 -0.4481
  105OSM   H17F10758   2.158   5.001   9.381 -1.2213  1.0872 -0.9189
  105OSM   H17G10759   2.105   4.953   9.542 -1.4234 -1.8496 -0.2646
  105OSM   C18F10760   1.946   5.054   9.431  0.4714  0.1630  0.6108
  105OSM   H18F10761   1.970   5.160   9.455 -1.5851  0.6590  0.6425
  105OSM   H18G10762   1.879   5.022   9.513 -1.2312 -0.1230 -0.8567
  105OSM   H18H10763   1.885   5.042   9.340 -1.1350  0.7632  1.5602
  106OSM      N10764   0.546   1.816  10.609 -0.1477 -0.4346 -0.0014
  106OSM    C1510765   0.497   1.838  10.467 -0.4603 -0.0254 -0.0061
  106OSM   H15A10766   0.435   1.926  10.455 -2.2388 -1.3083 -0.4806
  106OSM   H15B10767   0.433   1.757  10.437  1.4817 -1.7412  0.2380
  106OSM   H15C10768   0.584   1.831  10.404 -1.5923 -0.6568 -1.5471
  106OSM    C1410769   0.631   1.938  10.650 -0.2098  0.4946 -0.3645
  106OSM   H14A10770   0.709   1.950  10.577  0.5510  2.2185  0.6608
  106OSM   H14B10771   0.668   1.917  10.749 -1.2250  0.3220 -0.0113
  106OSM   H14C10772   0.568   2.025  10.643 -1.7220 -0.6257 -1.4193
  106OSM    C1310773   0.426   1.805  10.692 -0.1825 -0.4608  0.3625
  106OSM   H13A10774   0.369   1.895  10.712  0.4411  0.2149 -0.8559
  106OSM   H13B10775   0.459   1.766  10.788  0.2061 -0.6291  0.1598
  106OSM   H13C10776   0.359   1.737  10.642  2.4694 -0.8012 -3.0503
  106OSM    C1210777   0.622   1.684  10.612 -0.6145 -0.5434  0.7508
  106OSM   H12A10778   0.544   1.611  10.595 -1.1954 -0.2704  2.1200
  106OSM   H12B10779   0.662   1.669  10.711 -2.0126  1.2229  1.6248
  106OSM    C1110780   0.738   1.672  10.507 -0.6032  0.0653 -0.8745
  106OSM   H11A10781   0.692   1.664  10.406 -0.8106  0.3104 -0.8019
  106OSM   H11B10782   0.792   1.575  10.515  1.0173  0.9349 -0.9331
  106OSM      P10783   0.962   1.754  10.619  0.2350  0.0590 -0.0996
  106OSM    O1310784   0.988   1.884  10.683 -0.0694  0.2901  0.3881
  106OSM    O1410785   0.935   1.633  10.701  0.6854  0.0795 -0.0256
  106OSM    O1110786   1.083   1.740  10.521  0.2195  0.5307  0.0398
  106OSM    O1210787   0.836   1.781  10.518  0.2616  0.4287  0.8836
  106OSM    C1S10788   1.119   1.615  10.461 -0.4487 -0.9580  0.4542
  106OSM    H1S10789   1.033   1.546  10.452 -2.3154  0.8989  2.8723
  106OSM    H1T10790   1.205   1.568  10.513  0.3725  1.7321  1.7115
  106OSM     NF10791   1.162   1.516  10.228 -0.5489  0.3267  0.0812
  106OSM    HNF10792   1.239   1.486  10.171 -1.1902 -2.4807  0.5302
  106OSM    C2S10793   1.165   1.634  10.308 -0.1594 -0.3252 -0.1905
  106OSM    H2S10794   1.087   1.696  10.257 -1.0019 -1.4364 -0.2876
  106OSM    C3S10795   1.300   1.717  10.301  0.4147  0.6994  0.3502
  106OSM    H3S10796   1.374   1.655  10.355 -0.1493  0.0957  0.4293
  106OSM     O310797   1.293   1.851  10.346  0.3512 -0.3861  0.0017
  106OSM    HO310798   1.212   1.847  10.397 -2.0307  1.1242 -3.2713
  106OSM    C4S10799   1.344   1.712  10.157 -0.2218 -0.3200  0.2925
  106OSM    H4S10800   1.433   1.649  10.142 -2.3633 -3.9051  1.2663
  106OSM    C5S10801   1.288   1.762  10.045 -0.2205  0.3559  0.9554
  106OSM    H5S10802   1.197   1.823  10.053  0.2366  1.1524  0.1833
  106OSM    C6S10803   1.335   1.737   9.903 -0.6292 -0.6917  0.3559
  106OSM    H6S10804   1.245   1.713   9.842 -0.4094  0.2498 -0.3508
  106OSM    H6T10805   1.411   1.656   9.904  0.9663  0.7449 -0.3507
  106OSM    C7S10806   1.398   1.865   9.847  0.9528 -0.1463  0.0192
  106OSM    H7S10807   1.485   1.906   9.903  1.8643 -1.4601 -0.3773
  106OSM    H7T10808   1.321   1.946   9.847 -0.2833 -1.2746  0.7612
  106OSM    C8S10809   1.444   1.841   9.703 -0.0156  0.2930 -0.0207
  106OSM    H8S10810   1.364   1.805   9.634  0.1524 -1.7745  0.7799
  106OSM    H8T10811   1.525   1.765   9.701 -0.1747 -0.0499  2.7046
  106OSM    C9S10812   1.495   1.962   9.631 -0.0125 -0.0879 -0.1871
  106OSM    H9S10813   1.570   2.014   9.694 -0.1038  0.4699 -0.5325
  106OSM    H9T10814   1.421   2.044   9.620 -0.0427 -0.3801 -2.6575
  106OSM   C10S10815   1.557   1.939   9.494 -0.0172  0.3591 -0.0451
  106OSM   H10S10816   1.638   1.863   9.499 -0.0237  0.2636 -1.1403
  106OSM   H10T10817   1.618   2.029   9.470 -0.5088  1.1225  1.4635
  106OSM   C11S10818   1.472   1.907   9.371  0.0572  0.2254 -0.2877
  106OSM   H11S10819   1.388   1.842   9.406 -1.3054  1.2552 -1.5485
  106OSM   H11T10820   1.528   1.841   9.301  1.6687  1.6314 -0.3741
  106OSM   C12S10821   1.414   2.026   9.299  0.8091 -1.1286 -0.5609
  106OSM   H12S10822   1.481   2.114   9.307 -0.4503  0.0514 -2.3137
  106OSM   H12T10823   1.317   2.049   9.349  2.0298  1.8057  0.7097
  106OSM   C13S10824   1.411   1.993   9.145 -0.2531  0.5256  0.6448
  106OSM   H13S10825   1.380   1.888   9.132  2.6659 -0.2885 -0.6200
  106OSM   H13T10826   1.517   1.989   9.111  0.1864 -3.2906  1.9983
  106OSM   C14S10827   1.339   2.099   9.057  0.7951  0.0137  0.8442
  106OSM   H14S10828   1.385   2.199   9.072  2.1741 -0.6698  1.3217
  106OSM   H14T10829   1.236   2.118   9.096  1.3797  4.6670  0.7217
  106OSM   C15S10830   1.329   2.060   8.905  0.3993  0.3418 -0.1201
  106OSM   H15S10831   1.251   2.126   8.861 -0.6017  0.2390  1.4245
  106OSM   H15T10832   1.287   1.957   8.912  0.6255  0.3269  1.3829
  106OSM   C16S10833   1.460   2.072   8.828 -0.1946 -0.1653 -0.4142
  106OSM   H16S10834   1.537   2.011   8.881  0.2429  0.5516 -0.2096
  106OSM   H16T10835   1.484   2.181   8.831 -1.5531  0.2095 -1.9152
  106OSM   C17S10836   1.445   2.016   8.687 -0.1861 -0.5580 -0.9301
  106OSM   H17S10837   1.400   1.915   8.698 -0.3214 -0.5459 -1.3433
  106OSM   H17T10838   1.545   2.004   8.640 -0.1718  0.7979 -1.2624
  106OSM   C18S10839   1.356   2.108   8.601  0.1565  0.4936  0.0065
  106OSM   H18S10840   1.323   2.060   8.506  1.5315  0.0346 -0.2762
  106OSM   H18T10841   1.428   2.190   8.580  0.5823  0.3488  0.8550
  106OSM   H18U10842   1.274   2.145   8.665  0.0340  3.0388 -1.4588
  106OSM    C1F10843   1.053   1.447  10.199  0.1251  0.2704  0.7075
  106OSM     OF10844   0.943   1.487  10.226 -0.1427 -0.1166  0.2580
  106OSM    C2F10845   1.081   1.317  10.128 -0.7959  0.0934  0.4772
  106OSM    H2F10846   1.048   1.234  10.194 -1.0684 -0.3107 -0.1488
  106OSM    H2G10847   1.191   1.313  10.140 -0.6879  1.9988  0.3002
  106OSM    C3F10848   1.035   1.300   9.982  0.2262  0.0393 -0.3082
  106OSM    H3F10849   1.060   1.391   9.922  0.3976 -0.7399 -1.4619
  106OSM    H3G10850   0.924   1.302   9.976  0.2357 -1.7642 -2.2535
  106OSM    C4F10851   1.086   1.169   9.922 -0.6936  0.2615 -0.1930
  106OSM    H4F10852   1.026   1.084   9.960 -1.1811  1.0960  0.9569
  106OSM    H4G10853   1.195   1.158   9.941 -1.0845 -0.9790  1.4946
  106OSM    C5F10854   1.066   1.154   9.768  0.0809 -0.2487  0.3919
  106OSM    H5F10855   1.110   1.058   9.735 -0.4470 -1.0428  1.9184
  106OSM    H5G10856   1.116   1.242   9.722 -3.6272  2.2688  0.7377
  106OSM    C6F10857   0.918   1.155   9.730 -0.1401  0.3419 -0.2094
  106OSM    H6F10858   0.886   1.260   9.712 -2.0730  0.3689  2.6632
  106OSM    H6G10859   0.857   1.119   9.816  1.8966 -0.8346  0.8221
  106OSM    C7F10860   0.892   1.071   9.607  0.3065 -1.0154  0.2037
  106OSM    H7F10861   0.784   1.046   9.598  0.7206 -2.3510 -1.6627
  106OSM    H7G10862   0.944   0.973   9.615  1.8860 -0.1207  1.4411
  106OSM    C8F10863   0.944   1.134   9.479 -0.4155 -0.1982  0.0149
  106OSM    H8F10864   0.944   1.054   9.403 -1.4674 -0.5837  0.3976
  106OSM    H8G10865   1.053   1.155   9.481 -0.2203 -1.1890  0.0345
  106OSM    C9F10866   0.850   1.242   9.432  0.7105  0.5904 -0.1467
  106OSM    H9F10867   0.817   1.313   9.509  1.0687  0.5271  0.0677
  106OSM   C10F10868   0.796   1.263   9.314  0.3428  0.2212 -0.7866
  106OSM   H10F10869   0.727   1.347   9.299  0.1436  0.1190 -0.4461
  106OSM   C11F10870   0.826   1.188   9.188  0.5062 -0.0585  0.9278
  106OSM   H11F10871   0.739   1.132   9.147  0.8930  0.0273 -0.0441
  106OSM   H11G10872   0.904   1.113   9.215 -0.5136 -1.3987  0.2631
  106OSM   C12F10873   0.897   1.266   9.083 -0.0015 -0.5045  0.1018
  106OSM   H12F10874   1.008   1.275   9.091  0.2026 -0.7447 -1.8881
  106OSM   H12G10875   0.860   1.368   9.062  0.9092 -0.4469 -1.4356
  106OSM   C13F10876   0.886   1.194   8.943 -0.0338 -0.7470  0.1243
  106OSM   H13F10877   0.905   1.085   8.952  4.1517 -0.3038 -1.2364
  106OSM   H13G10878   0.966   1.241   8.882  0.6332 -1.3157  0.5539
  106OSM   C14F10879   0.755   1.227   8.860  0.8044 -0.2451 -0.3240
  106OSM   H14F10880   0.746   1.337   8.845 -3.0223 -0.5117 -0.9718
  106OSM   H14G10881   0.664   1.200   8.918 -0.1134 -1.5903 -2.2928
  106OSM   C15F10882   0.747   1.176   8.722  0.2145  0.1311  0.3841
  106OSM   H15F10883   0.732   1.067   8.733 -2.1901  0.5380  1.8284
  106OSM   H15G10884   0.845   1.177   8.669  0.1808 -0.6807  0.2949
  106OSM   C16F10885   0.643   1.232   8.630  0.2474 -0.6979  0.1160
  106OSM   H16F10886   0.680   1.327   8.587 -0.2983 -0.2691  0.5857
  106OSM   H16G10887   0.550   1.262   8.683 -1.3562 -0.9553 -2.3701
  106OSM   C17F10888   0.583   1.136   8.527 -0.0959 -0.1085  0.3451
  106OSM   H17F10889   0.495   1.187   8.482 -0.5283 -0.1103  1.1701
  106OSM   H17G10890   0.548   1.047   8.582 -0.2199  0.0623  0.5442
  106OSM   C18F10891   0.674   1.103   8.410  0.3240 -0.0053 -0.3344
  106OSM   H18F10892   0.634   1.020   8.349  1.2120  0.1273 -1.1159
  106OSM   H18G10893   0.768   1.055   8.445  0.0882 -1.3156 -1.4280
  106OSM   H18H10894   0.676   1.193   8.345 -1.7576  2.3517  2.5567
  107OSM      N10895   3.463   6.366  10.920  0.1369 -0.3296  0.5713
  107OSM    C1510896   3.423   6.498  10.989  0.9500  0.2327  0.5104
  107OSM   H15A10897   3.489   6.578  10.956  0.5916 -0.3394 -1.7690
  107OSM   H15B10898   3.424   6.490  11.096  3.8240  0.1018  0.5498
  107OSM   H15C10899   3.328   6.528  10.946  1.6095  1.7381  0.0234
  107OSM    C1410900   3.354   6.267  10.955 -0.1902  0.2460  0.0033
  107OSM   H14A10901   3.353   6.175  10.899 -1.6400 -0.0414  0.4570
  107OSM   H14B10902   3.258   6.313  10.935  0.1194  0.5701 -0.7977
  107OSM   H14C10903   3.353   6.232  11.057  1.9738 -2.7238 -0.8429
  107OSM    C1310904   3.466   6.385  10.771  0.0939  0.0282  0.7936
  107OSM   H13A10905   3.491   6.292  10.722 -0.4253  0.7335 -0.8935
  107OSM   H13B10906   3.540   6.460  10.750  0.5188 -0.2352  1.3310
  107OSM   H13C10907   3.368   6.417  10.737 -1.3935 -3.3213  1.4531
  107OSM    C1210908   3.584   6.318  10.990  1.1794  0.1210 -0.0310
  107OSM   H12A10909   3.595   6.213  10.971  0.2080 -0.3091  1.5458
  107OSM   H12B10910   3.566   6.340  11.095 -3.7919  0.4665 -0.6863
  107OSM    C1110911   3.721   6.385  10.953 -0.2954  0.1421  0.1234
  107OSM   H11A10912   3.756   6.374  10.848  1.3567 -2.9599  0.8805
  107OSM   H11B10913   3.793   6.322  11.009  0.3355  2.0497  1.5863
  107OSM      P10914   3.730   6.650  10.902 -0.1029 -0.0625  0.5447
  107OSM    O1310915   3.608   6.725  10.901  0.3955  0.0845  0.1056
  107OSM    O1410916   3.860   6.718  10.923  0.0005  0.3693 -0.1229
  107OSM    O1110917   3.742   6.589  10.753  0.4325  0.6264  0.5402
  107OSM    O1210918   3.718   6.522  11.003  0.0416 -0.0976  0.1097
  107OSM    C1S10919   3.713   6.661  10.634 -0.3216  0.5951 -0.4080
  107OSM    H1S10920   3.741   6.768  10.645 -1.6596  1.0070 -0.8543
  107OSM    H1T10921   3.603   6.669  10.620 -0.1531  1.4354 -1.3138
  107OSM     NF10922   3.764   6.694  10.393  0.2260  0.3459 -0.2543
  107OSM    HNF10923   3.691   6.679  10.327 -0.4519 -1.0452  0.7435
  107OSM    C2S10924   3.776   6.599  10.509 -0.5463  0.3890  0.3309
  107OSM    H2S10925   3.885   6.581  10.510  0.0302  1.7672 -5.4330
  107OSM    C3S10926   3.715   6.460  10.470  0.8812  0.6029  0.1792
  107OSM    H3S10927   3.609   6.464  10.436  0.8114  0.8654  0.4288
  107OSM     O310928   3.705   6.366  10.574 -0.1525  0.6665 -0.3255
  107OSM    HO310929   3.728   6.415  10.653  2.1912 -2.0199  0.8354
  107OSM    C4S10930   3.791   6.390  10.361 -0.3682  0.1414  0.0111
  107OSM    H4S10931   3.898   6.414  10.374 -0.9480  3.9096 -0.7519
  107OSM    C5S10932   3.747   6.327  10.247  0.0686 -0.0107  0.5512
  107OSM    H5S10933   3.640   6.320  10.227  0.2544  1.5901 -1.3241
  107OSM    C6S10934   3.834   6.275  10.140  0.1398  0.1532 -0.0867
  107OSM    H6S10935   3.828   6.164  10.134  1.4663  0.1235 -1.7455
  107OSM    H6T10936   3.940   6.297  10.162  0.8971 -3.5158  0.5987
  107OSM    C7S10937   3.793   6.325  10.004 -0.2395  0.6968 -0.0458
  107OSM    H7S10938   3.801   6.436   9.998  1.1022  0.5425 -2.1342
  107OSM    H7T10939   3.687   6.296   9.988  0.1207 -0.9482  0.3913
  107OSM    C8S10940   3.875   6.262   9.892 -0.0871 -0.2259 -0.1022
  107OSM    H8S10941   3.858   6.153   9.885 -0.0298 -0.1478 -1.9889
  107OSM    H8T10942   3.984   6.282   9.901 -0.0447 -1.0957  1.7234
  107OSM    C9S10943   3.826   6.304   9.750 -0.3161  0.1862 -0.8999
  107OSM    H9S10944   3.838   6.415   9.751  0.5391  0.1386  1.6694
  107OSM    H9T10945   3.721   6.267   9.745 -0.1206 -0.5837  0.2774
  107OSM   C10S10946   3.904   6.243   9.628  0.0705 -1.0780 -0.5572
  107OSM   H10S10947   3.899   6.132   9.630 -1.0220 -1.0555  1.6955
  107OSM   H10T10948   4.011   6.272   9.634 -0.4591  0.8240  0.5034
  107OSM   C11S10949   3.846   6.290   9.490 -0.3968  0.3520 -0.2221
  107OSM   H11S10950   3.832   6.399   9.509 -0.2794  0.2213  0.6223
  107OSM   H11T10951   3.746   6.241   9.481 -0.2498 -1.0037  3.7528
  107OSM   C12S10952   3.946   6.261   9.374  0.5306 -0.3860 -0.3698
  107OSM   H12S10953   3.940   6.154   9.346  1.0039 -0.7832  0.9946
  107OSM   H12T10954   4.048   6.293   9.402  0.5940 -0.3387 -0.6544
  107OSM   C13S10955   3.922   6.354   9.249  0.7414 -0.3088 -0.3354
  107OSM   H13S10956   3.922   6.456   9.293 -1.0249 -1.0290  1.5028
  107OSM   H13T10957   3.820   6.320   9.218  0.3310  1.0002 -0.4729
  107OSM   C14S10958   4.029   6.336   9.147  0.1394  0.8686  0.3330
  107OSM   H14S10959   4.039   6.230   9.114 -0.0864  0.8283  0.3919
  107OSM   H14T10960   4.120   6.366   9.204 -1.0287  1.6930  1.8354
  107OSM   C15S10961   4.002   6.434   9.025  0.9016  0.0809 -0.7198
  107OSM   H15S10962   3.895   6.418   9.000  0.7863  1.7723 -1.4648
  107OSM   H15T10963   4.072   6.406   8.943  1.8639 -0.8529  0.3814
  107OSM   C16S10964   4.021   6.580   9.059  1.0358 -0.3965 -0.1363
  107OSM   H16S10965   4.126   6.602   9.085  1.3216  0.0197 -1.5689
  107OSM   H16T10966   3.955   6.610   9.144  0.3513 -1.1498 -0.3877
  107OSM   C17S10967   3.997   6.672   8.942  0.1436  0.4574 -0.4071
  107OSM   H17S10968   4.071   6.640   8.865  0.1973  1.1153 -0.6359
  107OSM   H17T10969   4.014   6.777   8.976  0.3910  0.8354 -1.6530
  107OSM   C18S10970   3.858   6.666   8.874 -0.7798  0.7473  0.1909
  107OSM   H18S10971   3.783   6.719   8.938 -0.5267  2.4565 -0.8574
  107OSM   H18T10972   3.836   6.562   8.844 -1.4856  0.9467 -0.0099
  107OSM   H18U10973   3.857   6.724   8.779 -0.1150  0.8253  0.2238
  107OSM    C1F10974   3.841   6.802  10.390 -0.8453 -0.1134 -0.1569
  107OSM     OF10975   3.912   6.828  10.489 -0.0294  0.5295 -0.0166
  107OSM    C2F10976   3.837   6.898  10.274  0.1715 -0.5789 -0.1430
  107OSM    H2F10977   3.749   6.960  10.302 -1.3696 -1.9291 -1.7782
  107OSM    H2G10978   3.823   6.851  10.174 -2.4268  2.0199 -1.1574
  107OSM    C3F10979   3.964   6.984  10.261  0.1664  0.2231 -0.0588
  107OSM    H3F10980   4.049   6.913  10.255 -1.9425 -2.4202 -0.5799
  107OSM    H3G10981   3.970   7.044  10.354 -2.4181  0.3438  0.1179
  107OSM    C4F10982   3.964   7.079  10.137  0.2358 -0.7310 -0.8894
  107OSM    H4F10983   4.046   7.148  10.167  0.1557 -1.5796  1.5017
  107OSM    H4G10984   3.865   7.131  10.141 -0.0192 -1.1626 -1.5067
  107OSM    C5F10985   3.983   7.011   9.998 -0.4433 -0.4851 -0.1291
  107OSM    H5F10986   3.903   6.936   9.977 -0.2179 -1.8153  3.2172
  107OSM    H5G10987   4.076   6.950  10.003  0.0782 -0.1975 -3.6491
  107OSM    C6F10988   3.985   7.113   9.894  0.1891  0.1247 -0.0434
  107OSM    H6F10989   4.066   7.180   9.928  1.2242 -1.1592  0.0790
  107OSM    H6G10990   3.881   7.154   9.890  1.0300  2.3442 -2.1284
  107OSM    C7F10991   4.012   7.046   9.757 -0.0769  0.4136 -0.0154
  107OSM    H7F10992   3.944   6.961   9.734  0.3830 -0.0803  0.4516
  107OSM    H7G10993   4.111   6.997   9.764  0.8547  1.7818 -2.3870
  107OSM    C8F10994   4.012   7.145   9.644  0.5524 -0.5309 -0.7414
  107OSM    H8F10995   4.075   7.235   9.663  1.0313 -1.0280  0.0653
  107OSM    H8G10996   3.908   7.182   9.636  0.9423  0.7050 -0.2321
  107OSM    C9F10997   4.053   7.069   9.516  0.1060 -0.1369 -0.7739
  107OSM    H9F10998   4.025   6.963   9.505 -1.2863  0.1882 -0.5879
  107OSM   C10F10999   4.128   7.125   9.421  0.2918  0.3813  0.1562
  107OSM   H10F11000   4.167   7.059   9.343  1.5194  1.1366  0.0953
  107OSM   C11F11001   4.174   7.273   9.417 -0.3146 -0.1223  0.3575
  107OSM   H11F11002   4.281   7.278   9.446 -0.6038 -1.5520  1.8334
  107OSM   H11G11003   4.112   7.335   9.486  0.5241  2.0278 -0.7266
  107OSM   C12F11004   4.145   7.328   9.273  0.1357 -0.3528 -0.0762
  107OSM   H12F11005   4.151   7.439   9.273  1.0093 -0.3775 -1.2676
  107OSM   H12G11006   4.041   7.297   9.250 -0.8614  1.6580  1.4086
  107OSM   C13F11007   4.244   7.283   9.171  0.0055 -0.0270  0.2100
  107OSM   H13F11008   4.264   7.174   9.171  2.5536  0.3438 -2.0308
  107OSM   H13G11009   4.345   7.324   9.190  0.5485 -0.8743 -0.7942
  107OSM   C14F11010   4.193   7.318   9.029 -0.1074  0.7117  0.5587
  107OSM   H14F11011   4.149   7.420   9.024 -0.8166  0.4294  0.9814
  107OSM   H14G11012   4.115   7.244   9.005  1.7818 -1.2191  0.0184
  107OSM   C15F11013   4.297   7.292   8.922  1.2029  0.6173  0.3675
  107OSM   H15F11014   4.395   7.324   8.962  1.3944 -1.5530  1.7973
  107OSM   H15G11015   4.275   7.357   8.834  0.1473 -0.8421 -0.5000
  107OSM   C16F11016   4.308   7.145   8.864  0.1259 -0.4082  0.1276
  107OSM   H16F11017   4.204   7.107   8.856 -0.6539  1.2839  1.5613
  107OSM   H16G11018   4.353   7.075   8.937  2.1479 -0.9306 -1.5184
  107OSM   C17F11019   4.381   7.138   8.723 -0.1614  0.7498  0.2732
  107OSM   H17F11020   4.475   7.196   8.716 -0.6596  1.4508 -1.1471
  107OSM   H17G11021   4.312   7.179   8.646 -0.2281 -1.1634 -0.7459
  107OSM   C18F11022   4.408   7.001   8.660 -0.0739  0.4359 -0.3829
  107OSM   H18F11023   4.310   6.956   8.633 -0.3651  0.3056  0.8213
  107OSM   H18G11024   4.467   6.939   8.730 -1.6699  0.6847  1.2843
  107OSM   H18H11025   4.469   7.008   8.568  0.3871 -0.7516 -0.1801
  108OSM      N11026   0.279   0.970  10.688  0.6577  0.8703 -0.7699
  108OSM    C1511027   0.298   1.004  10.837 -0.4516 -0.3723  0.1054
  108OSM   H15A11028   0.269   1.105  10.862  2.6311  0.2030  1.9109
  108OSM   H15B11029   0.405   0.999  10.851 -0.1813  2.3271 -0.4359
  108OSM   H15C11030   0.257   0.932  10.906  1.0015  0.1239  1.5585
  108OSM    C1411031   0.130   0.966  10.662 -0.9164  0.1896 -0.2762
  108OSM   H14A11032   0.115   0.946  10.557 -0.7087 -1.0435 -0.0799
  108OSM   H14B11033   0.085   1.063  10.676 -0.2984  0.4740 -0.2220
  108OSM   H14C11034   0.089   0.886  10.720 -0.9269 -0.4882 -1.1970
  108OSM    C1311035   0.332   1.080  10.601 -0.7432 -0.9217  0.0334
  108OSM   H13A11036   0.287   1.173  10.633 -0.5151 -0.5761 -0.6283
  108OSM   H13B11037   0.311   1.061  10.497 -0.7647  0.8821 -0.3214
  108OSM   H13C11038   0.439   1.079  10.612 -0.6551  1.2293 -0.1683
  108OSM    C1211039   0.353   0.839  10.654  0.5965 -0.4108  0.6980
  108OSM   H12A11040   0.334   0.757  10.722 -0.6724 -0.7063  0.0326
  108OSM   H12B11041   0.460   0.856  10.654  0.9121 -2.0995 -0.5693
  108OSM    C1111042   0.325   0.780  10.512  0.3384 -0.1294  0.1832
  108OSM   H11A11043   0.389   0.691  10.492 -0.1135 -0.2160 -0.9220
  108OSM   H11B11044   0.360   0.842  10.427  2.1841  0.5272  1.3644
  108OSM      P11045   0.136   0.615  10.564  0.3279  0.5589 -0.0301
  108OSM    O1311046   0.243   0.520  10.592 -0.3063  0.3988 -0.3502
  108OSM    O1411047   0.051   0.644  10.676 -0.2210  0.0577 -0.3683
  108OSM    O1111048   0.047   0.551  10.447  0.2490 -0.3486 -0.6643
  108OSM    O1211049   0.183   0.749  10.498 -0.1599 -0.3891 -0.2522
  108OSM    C1S11050  -0.055   0.624  10.393  0.3205  0.4913 -0.0563
  108OSM    H1S11051  -0.033   0.732  10.402  0.7762  0.3017  1.4225
  108OSM    H1T11052  -0.151   0.615  10.449 -0.4695 -2.7548 -1.6630
  108OSM     NF11053  -0.155   0.693  10.187 -0.0466  0.4303  0.7775
  108OSM    HNF11054  -0.254   0.689  10.195 -0.0497  0.5621  0.8063
  108OSM    C2S11055  -0.090   0.581  10.250  0.1165 -0.4834 -0.4141
  108OSM    H2S11056   0.006   0.561  10.196  0.7838  0.4480  0.3923
  108OSM    C3S11057  -0.172   0.449  10.258 -0.4556  0.4587  0.0959
  108OSM    H3S11058  -0.266   0.478  10.309 -0.4820  1.2102 -0.3519
  108OSM     O311059  -0.114   0.349  10.347  0.6403  0.1977  0.1909
  108OSM    HO311060  -0.058   0.406  10.401  2.9691 -1.9988  0.2712
  108OSM    C4S11061  -0.208   0.387  10.122  0.2925  1.0120  0.6565
  108OSM    H4S11062  -0.122   0.378  10.054 -0.9168 -1.2663 -0.6755
  108OSM    C5S11063  -0.319   0.324  10.091 -0.0526  0.4699 -0.2306
  108OSM    H5S11064  -0.409   0.331  10.154  1.5232  0.9199  2.1147
  108OSM    C6S11065  -0.345   0.253   9.961  0.8395  0.3959 -0.9165
  108OSM    H6S11066  -0.418   0.310   9.900  0.1253 -0.2062 -0.6362
  108OSM    H6T11067  -0.393   0.160   9.999 -0.2347  1.5386  0.6443
  108OSM    C7S11068  -0.222   0.214   9.880 -0.1914  0.2941  0.1199
  108OSM    H7S11069  -0.152   0.152   9.940 -1.1886 -0.4033  0.5820
  108OSM    H7T11070  -0.157   0.300   9.853 -2.7940  2.1425 -0.6130
  108OSM    C8S11071  -0.255   0.118   9.760  0.7346  0.9346 -0.0887
  108OSM    H8S11072  -0.289   0.024   9.810  2.4391  0.0775 -0.4690
  108OSM    H8T11073  -0.164   0.085   9.707 -0.5685 -0.4881 -1.5690
  108OSM    C9S11074  -0.341   0.184   9.656 -0.8210 -0.0266  0.0365
  108OSM    H9S11075  -0.311   0.291   9.658  0.8934 -0.4772 -0.1968
  108OSM    H9T11076  -0.450   0.183   9.677 -0.8454 -0.5721 -0.1060
  108OSM   C10S11077  -0.310   0.123   9.513  0.2217 -0.0347  0.3426
  108OSM   H10S11078  -0.328   0.014   9.503  1.5195 -0.2254 -0.1565
  108OSM   H10T11079  -0.198   0.124   9.512  0.2707 -1.4968  1.4015
  108OSM   C11S11080  -0.375   0.192   9.396  0.1629 -0.3254 -0.1148
  108OSM   H11S11081  -0.326   0.174   9.298  1.7122  1.8449  0.1780
  108OSM   H11T11082  -0.380   0.303   9.408 -1.1386 -0.4700  0.9015
  108OSM   C12S11083  -0.523   0.145   9.382  0.8033 -0.5759 -0.6163
  108OSM   H12S11084  -0.587   0.198   9.456 -0.0018  0.4590 -1.9966
  108OSM   H12T11085  -0.537   0.039   9.410  0.8155 -0.3045  0.4312
  108OSM   C13S11086  -0.570   0.158   9.240 -0.6264  0.1530 -0.6519
  108OSM   H13S11087  -0.505   0.086   9.185  0.6937 -1.8618  3.1707
  108OSM   H13T11088  -0.545   0.264   9.218  0.4144 -0.0151 -0.3528
  108OSM   C14S11089  -0.715   0.130   9.202 -0.0326  0.0430 -0.1970
  108OSM   H14S11090  -0.777   0.216   9.237  0.5847 -0.0388  1.1767
  108OSM   H14T11091  -0.752   0.038   9.254  0.1941 -0.1309 -0.3411
  108OSM   C15S11092  -0.732   0.108   9.055  0.0172 -0.8554  0.4838
  108OSM   H15S11093  -0.693   0.196   9.001 -2.3102 -0.8052 -1.2434
  108OSM   H15T11094  -0.842   0.118   9.040  0.3641  2.4013 -0.6147
  108OSM   C16S11095  -0.673  -0.020   8.996  0.1563  0.4871  0.1726
  108OSM   H16S11096  -0.719  -0.099   9.059 -0.4264 -0.0316 -0.8782
  108OSM   H16T11097  -0.563  -0.009   9.006  0.0020  2.4079  0.0652
  108OSM   C17S11098  -0.710  -0.048   8.853  0.8710  0.1479  0.6088
  108OSM   H17S11099  -0.819  -0.039   8.830  1.3821  1.3932 -1.5903
  108OSM   H17T11100  -0.701  -0.156   8.828 -1.0164 -0.7802  3.3667
  108OSM   C18S11101  -0.637   0.044   8.746  0.2466  0.4348 -0.5836
  108OSM   H18S11102  -0.663   0.152   8.751 -2.2072 -0.1081 -0.5530
  108OSM   H18T11103  -0.661   0.003   8.646 -1.1297  1.0691 -0.5304
  108OSM   H18U11104  -0.529   0.026   8.764  0.2694 -0.5355 -1.6191
  108OSM    C1F11105  -0.088   0.807  10.160  0.1387  0.5520 -0.6689
  108OSM     OF11106   0.034   0.796  10.139  0.1995 -0.2201  0.6600
  108OSM    C2F11107  -0.168   0.935  10.165 -0.5086  0.4301  0.1752
  108OSM    H2F11108  -0.139   0.993  10.255  0.4477  0.1002  0.0851
  108OSM    H2G11109  -0.277   0.913  10.171 -0.7649  1.9221  1.7982
  108OSM    C3F11110  -0.142   1.028  10.043  0.3305  0.7160  0.9851
  108OSM    H3F11111  -0.032   1.017  10.028  0.2530 -2.4629  2.0931
  108OSM    H3G11112  -0.159   1.135  10.068 -0.5719  0.6411  0.7190
  108OSM    C4F11113  -0.216   0.982   9.915 -0.0500 -0.3426 -0.7314
  108OSM    H4F11114  -0.324   1.006   9.929 -0.4410 -2.7370  1.2300
  108OSM    H4G11115  -0.208   0.873   9.895 -0.3586 -0.4572 -0.2522
  108OSM    C5F11116  -0.156   1.049   9.792 -0.1657 -0.2671  0.0929
  108OSM    H5F11117  -0.045   1.042   9.788 -0.0721  0.9991  0.1835
  108OSM    H5G11118  -0.187   1.155   9.785 -2.6996 -1.0260 -2.8677
  108OSM    C6F11119  -0.226   0.985   9.671 -0.3648 -0.0775  0.2618
  108OSM    H6F11120  -0.336   1.003   9.673 -0.0945  1.7466  0.2348
  108OSM    H6G11121  -0.216   0.874   9.665 -1.6662 -0.1257 -2.3251
  108OSM    C7F11122  -0.177   1.052   9.549 -0.3283  0.2628 -0.1987
  108OSM    H7F11123  -0.074   1.092   9.562 -0.8071  1.1722  0.8380
  108OSM    H7G11124  -0.238   1.143   9.534  0.3660  0.5102 -1.7909
  108OSM    C8F11125  -0.189   0.965   9.428  0.3654 -0.3739  0.0209
  108OSM    H8F11126  -0.139   0.868   9.448 -0.2997 -0.5088  1.1178
  108OSM    H8G11127  -0.139   1.011   9.340  1.0909  1.2311  1.2235
  108OSM    C9F11128  -0.336   0.930   9.400  0.1202  0.1297  0.4471
  108OSM    H9F11129  -0.386   0.875   9.481  2.2603 -0.4094  1.4706
  108OSM   C10F11130  -0.407   0.940   9.287  0.0212  0.1658 -0.1501
  108OSM   H10F11131  -0.514   0.918   9.294 -0.5186  2.0433 -1.6667
  108OSM   C11F11132  -0.366   1.001   9.159 -0.0327  0.6123 -0.6674
  108OSM   H11F11133  -0.281   1.071   9.170  0.0164  0.2327  1.8556
  108OSM   H11G11134  -0.453   1.066   9.135 -1.1439 -1.3301 -2.1783
  108OSM   C12F11135  -0.338   0.903   9.046 -0.5830 -0.1904  1.1102
  108OSM   H12F11136  -0.422   0.833   9.028 -0.7568  0.1977  0.3580
  108OSM   H12G11137  -0.243   0.852   9.072  1.1200  1.6698 -1.0568
  108OSM   C13F11138  -0.309   0.971   8.907  0.0285 -0.5786  0.0013
  108OSM   H13F11139  -0.238   1.055   8.923 -0.4391 -0.3612  0.9502
  108OSM   H13G11140  -0.401   1.007   8.857 -0.5537 -1.3687  0.4936
  108OSM   C14F11141  -0.265   0.872   8.795  0.2270  0.0312 -1.4210
  108OSM   H14F11142  -0.342   0.795   8.773  0.1361  0.3205 -2.1372
  108OSM   H14G11143  -0.174   0.821   8.831 -1.6260 -2.8605 -0.4389
  108OSM   C15F11144  -0.240   0.934   8.655 -0.2084 -0.1796  0.5105
  108OSM   H15F11145  -0.179   1.027   8.658 -0.7423  0.1707  0.6092
  108OSM   H15G11146  -0.342   0.944   8.615 -0.6454  0.9156  1.8322
  108OSM   C16F11147  -0.158   0.829   8.568 -0.2874 -0.4603 -0.6558
  108OSM   H16F11148  -0.081   0.781   8.631  0.3710 -2.0461 -2.5814
  108OSM   H16G11149  -0.107   0.888   8.489 -0.8875  1.3228  0.2312
  108OSM   C17F11150  -0.244   0.724   8.511  0.4954 -0.3393 -0.1268
  108OSM   H17F11151  -0.325   0.767   8.448 -0.2817 -2.3458 -0.5691
  108OSM   H17G11152  -0.293   0.658   8.586 -0.8266  2.3559  1.5532
  108OSM   C18F11153  -0.169   0.648   8.397 -0.1626 -0.0027 -0.2429
  108OSM   H18F11154  -0.236   0.593   8.328 -0.2872  1.0719 -1.0009
  108OSM   H18G11155  -0.082   0.594   8.442 -0.3595  0.6243  0.9397
  108OSM   H18H11156  -0.118   0.723   8.333 -3.5322  3.8710  1.1484
  109OSM      N11157   6.273   6.320  11.007  0.0272 -0.9761  0.5426
  109OSM    C1511158   6.249   6.211  11.115  0.3715 -0.6806  0.3198
  109OSM   H15A11159   6.171   6.255  11.177 -0.7239 -0.5810 -1.0714
  109OSM   H15B11160   6.340   6.202  11.172  0.3997  1.6756  0.7795
  109OSM   H15C11161   6.213   6.113  11.088 -0.1792 -0.6850  1.0159
  109OSM    C1411162   6.321   6.438  11.070 -0.4394 -0.4466  0.0856
  109OSM   H14A11163   6.251   6.464  11.149 -1.5268  2.1783 -1.6118
  109OSM   H14B11164   6.341   6.526  11.011 -0.4067  0.7301  1.7657
  109OSM   H14C11165   6.405   6.409  11.132 -0.7721 -2.7209 -0.4345
  109OSM    C1311166   6.388   6.276  10.923 -0.0088  0.2598 -0.3600
  109OSM   H13A11167   6.373   6.181  10.873 -1.6338  0.4150 -0.2286
  109OSM   H13B11168   6.482   6.284  10.975 -1.1391  0.2396  1.8114
  109OSM   H13C11169   6.394   6.350  10.845  0.6561 -1.0105 -1.5534
  109OSM    C1211170   6.137   6.341  10.936 -0.3999  0.6353  0.1802
  109OSM   H12A11171   6.064   6.382  11.004  0.0276 -1.0915  1.7618
  109OSM   H12B11172   6.092   6.247  10.909  0.1571 -0.9007  4.0622
  109OSM    C1111173   6.127   6.430  10.804 -0.5975 -0.3685 -0.5728
  109OSM   H11A11174   6.022   6.435  10.766 -1.4023  0.6391  1.5955
  109OSM   H11B11175   6.193   6.375  10.735  0.1404 -2.0092  1.3254
  109OSM      P11176   6.093   6.683  10.870  0.3113  0.3869 -0.1519
  109OSM    O1311177   5.982   6.633  10.953 -0.1369 -0.0041  0.0484
  109OSM    O1411178   6.177   6.777  10.944  0.1914  0.2603 -0.3069
  109OSM    O1111179   6.036   6.750  10.739 -0.0848  0.0126 -0.2371
  109OSM    O1211180   6.186   6.561  10.822 -0.9841 -0.5463  0.0583
  109OSM    C1S11181   6.125   6.801  10.635  0.0818  0.1465 -0.2015
  109OSM    H1S11182   6.231   6.784  10.661  0.3834 -1.4014 -2.2073
  109OSM    H1T11183   6.091   6.906  10.621 -1.9558 -0.4157  0.1935
  109OSM     NF11184   6.211   6.794  10.405 -0.4387  0.2136 -0.3136
  109OSM    HNF11185   6.174   6.881  10.376 -1.5676 -0.1510 -0.0148
  109OSM    C2S11186   6.117   6.721  10.490  0.7489 -1.2528 -0.4181
  109OSM    H2S11187   6.143   6.616  10.513  1.4899 -0.7871  0.9953
  109OSM    C3S11188   5.962   6.726  10.442 -0.7179 -0.0743 -0.3129
  109OSM    H3S11189   5.922   6.830  10.444  3.5974  1.8057 -0.5681
  109OSM     O311190   5.877   6.643  10.519  0.3630 -0.1378  0.6564
  109OSM    HO311191   5.925   6.609  10.596 -1.7180 -0.9476  1.6922
  109OSM    C4S11192   5.946   6.687  10.295 -1.5685  0.0065  0.0358
  109OSM    H4S11193   5.911   6.764  10.225  0.8116  1.7176  0.6027
  109OSM    C5S11194   5.965   6.559  10.252 -0.7569 -0.4714  0.5753
  109OSM    H5S11195   6.000   6.486  10.327  0.6642  0.5746  0.9659
  109OSM    C6S11196   5.938   6.516  10.109  0.4796  0.2189 -0.2031
  109OSM    H6S11197   5.843   6.559  10.070 -0.7439  0.6458  2.9424
  109OSM    H6T11198   5.927   6.405  10.107 -3.0116  0.4672 -0.0898
  109OSM    C7S11199   6.053   6.550  10.012  0.6230  0.1824 -0.1961
  109OSM    H7S11200   6.139   6.485  10.037  0.5519  0.8988  2.1426
  109OSM    H7T11201   6.081   6.656  10.026 -0.4612  0.6346 -1.2582
  109OSM    C8S11202   6.011   6.535   9.860 -0.0780  0.3881 -0.2738
  109OSM    H8S11203   5.925   6.603   9.841 -0.3009 -0.0509 -0.8456
  109OSM    H8T11204   5.983   6.429   9.841  4.0834 -1.0055  0.2301
  109OSM    C9S11205   6.128   6.580   9.773 -0.0654 -0.1585  0.0439
  109OSM    H9S11206   6.225   6.537   9.804 -0.1070 -0.9990 -0.9493
  109OSM    H9T11207   6.143   6.687   9.802  0.8410 -0.3494  0.3092
  109OSM   C10S11208   6.102   6.560   9.623  0.5570 -0.2966 -0.6202
  109OSM   H10S11209   6.004   6.607   9.596  0.4233  0.9178  1.7116
  109OSM   H10T11210   6.092   6.450   9.617  1.1520 -0.5141  1.5283
  109OSM   C11S11211   6.208   6.614   9.525  0.1753  0.5892 -0.2616
  109OSM   H11S11212   6.305   6.582   9.567 -0.2142 -2.5654 -1.4349
  109OSM   H11T11213   6.199   6.724   9.510  0.0422  0.8934  1.7935
  109OSM   C12S11214   6.202   6.561   9.384 -0.8961 -0.0627  0.6292
  109OSM   H12S11215   6.259   6.622   9.310 -2.0067 -0.0082 -0.2029
  109OSM   H12T11216   6.097   6.566   9.350 -0.5947  0.3090 -0.2835
  109OSM   C13S11217   6.257   6.419   9.363 -0.1662  0.2731  0.6326
  109OSM   H13S11218   6.209   6.342   9.427  0.4280  0.4735  1.3329
  109OSM   H13T11219   6.367   6.415   9.380 -0.2891  0.0549  1.4274
  109OSM   C14S11220   6.232   6.373   9.216  0.2393 -0.2336 -0.2799
  109OSM   H14S11221   6.125   6.378   9.186  0.0373  0.2720  0.4902
  109OSM   H14T11222   6.272   6.270   9.215  1.1527  0.0474 -3.1141
  109OSM   C15S11223   6.324   6.444   9.107  0.0422  0.3537  0.1798
  109OSM   H15S11224   6.430   6.424   9.133  0.8806  3.2806 -0.6227
  109OSM   H15T11225   6.312   6.553   9.129 -2.3218  0.0925  0.4569
  109OSM   C16S11226   6.292   6.407   8.966 -0.3556  0.2716  0.1680
  109OSM   H16S11227   6.183   6.428   8.954 -1.1248 -2.3966  1.7362
  109OSM   H16T11228   6.313   6.304   8.933 -2.2909  0.2586 -1.2058
  109OSM   C17S11229   6.363   6.485   8.858  0.2353  0.2732  0.1579
  109OSM   H17S11230   6.469   6.453   8.850  0.1255 -0.2224  0.6010
  109OSM   H17T11231   6.359   6.590   8.895  1.1012  0.9849 -1.6400
  109OSM   C18S11232   6.303   6.474   8.720  0.2980  0.4741 -0.3376
  109OSM   H18S11233   6.197   6.506   8.725  0.7445  2.0049 -0.2139
  109OSM   H18T11234   6.306   6.371   8.677 -0.9580 -0.6976  2.1615
  109OSM   H18U11235   6.364   6.548   8.664  1.2744  0.5817  0.8106
  109OSM    C1F11236   6.346   6.778  10.409  1.0058  0.9014  0.2748
  109OSM     OF11237   6.404   6.693  10.475 -0.0227  0.7295 -0.3580
  109OSM    C2F11238   6.417   6.887  10.334 -0.0178 -0.3543 -0.2266
  109OSM    H2F11239   6.414   6.972  10.406  0.4437  0.3190 -0.9878
  109OSM    H2G11240   6.360   6.904  10.240  0.3700 -1.3069 -0.6452
  109OSM    C3F11241   6.554   6.846  10.298 -0.4827 -0.8097  0.0669
  109OSM    H3F11242   6.623   6.832  10.384 -0.3517  1.1119  0.3169
  109OSM    H3G11243   6.598   6.917  10.225  0.7051 -2.1064 -0.5240
  109OSM    C4F11244   6.559   6.711  10.217 -0.1558 -0.2867 -0.0483
  109OSM    H4F11245   6.554   6.627  10.290 -0.8602 -1.0518 -0.9483
  109OSM    H4G11246   6.653   6.706  10.158 -1.3290 -1.6639 -1.9349
  109OSM    C5F11247   6.455   6.687  10.107  0.8039 -0.1181  0.0752
  109OSM    H5F11248   6.471   6.776  10.041  3.1431 -0.8591 -0.4415
  109OSM    H5G11249   6.352   6.693  10.149  0.8905  2.3129  0.0942
  109OSM    C6F11250   6.485   6.566  10.020  0.2943  0.3154 -0.3886
  109OSM    H6F11251   6.584   6.586   9.974  0.8926 -0.4633  0.5161
  109OSM    H6G11252   6.410   6.564   9.938  1.2425 -0.8388 -1.2640
  109OSM    C7F11253   6.487   6.432  10.100  0.5430 -0.0501  0.9276
  109OSM    H7F11254   6.388   6.419  10.149 -1.4704 -0.7832 -2.9490
  109OSM    H7G11255   6.565   6.435  10.178  0.8263 -1.1356  0.6975
  109OSM    C8F11256   6.502   6.321   9.996 -0.7217  0.7236 -0.0081
  109OSM    H8F11257   6.540   6.231  10.050  2.6983  1.4352 -1.0015
  109OSM    H8G11258   6.583   6.349   9.925 -2.2665  0.6877 -1.8761
  109OSM    C9F11259   6.379   6.274   9.918 -0.4638  0.4130  0.0349
  109OSM    H9F11260   6.286   6.262   9.975  0.9579  0.9551  2.6072
  109OSM   C10F11261   6.374   6.247   9.786  0.3770 -0.0454 -0.0409
  109OSM   H10F11262   6.282   6.203   9.743  0.5603  0.1973 -0.6827
  109OSM   C11F11263   6.479   6.259   9.689  0.4648 -0.6156 -0.0352
  109OSM   H11F11264   6.577   6.255   9.741 -0.0564 -1.2350  0.9278
  109OSM   H11G11265   6.461   6.358   9.644 -0.1161 -1.1833 -1.0848
  109OSM   C12F11266   6.483   6.158   9.574  0.4396 -0.0557  0.6369
  109OSM   H12F11267   6.378   6.147   9.540 -0.2228 -1.1000  2.8052
  109OSM   H12G11268   6.493   6.061   9.628  1.7302 -0.3695 -0.1264
  109OSM   C13F11269   6.586   6.177   9.464 -0.3651  0.0703  0.3219
  109OSM   H13F11270   6.690   6.163   9.499 -0.4410 -0.8341  0.2024
  109OSM   H13G11271   6.578   6.281   9.426 -1.1173  0.2820  1.0228
  109OSM   C14F11272   6.562   6.092   9.334 -0.5369  0.3157  0.6860
  109OSM   H14F11273   6.454   6.100   9.310 -0.9541 -1.2711  1.9057
  109OSM   H14G11274   6.586   5.985   9.354  0.5399  0.4868  0.4001
  109OSM   C15F11275   6.647   6.144   9.224  0.2407 -0.0096 -0.0460
  109OSM   H15F11276   6.744   6.096   9.248 -0.2569 -0.0175  2.0967
  109OSM   H15G11277   6.644   6.255   9.226  2.6400  0.1605 -1.4305
  109OSM   C16F11278   6.599   6.105   9.080 -0.0269  0.1556 -0.7971
  109OSM   H16F11279   6.493   6.125   9.056 -0.3928 -1.4687 -0.6586
  109OSM   H16G11280   6.616   5.995   9.072  1.9739  0.3907 -0.4901
  109OSM   C17F11281   6.691   6.163   8.972  0.3981  0.8153  0.4001
  109OSM   H17F11282   6.796   6.134   8.992  0.4051 -0.3438 -1.1184
  109OSM   H17G11283   6.697   6.274   8.973  1.1482  0.8744 -2.6500
  109OSM   C18F11284   6.649   6.115   8.829 -0.1434 -0.6198 -0.5351
  109OSM   H18F11285   6.547   6.151   8.804 -1.6827 -3.5897  0.9151
  109OSM   H18G11286   6.647   6.005   8.843  0.5163 -0.3198  2.6556
  109OSM   H18H11287   6.719   6.142   8.747 -0.6676 -0.3573 -0.9048
  110OSM      N11288   0.582   4.490  11.194 -0.0119  0.6517  0.0704
  110OSM    C1511289   0.609   4.583  11.308 -0.4044 -0.4331 -0.3063
  110OSM   H15A11290   0.703   4.635  11.306 -1.0709  0.8293 -0.0930
  110OSM   H15B11291   0.614   4.536  11.405  1.8666  1.3943  0.5530
  110OSM   H15C11292   0.531   4.658  11.309  1.7059  1.9136 -0.6503
  110OSM    C1411293   0.691   4.392  11.197  0.4683 -0.0536 -0.2748
  110OSM   H14A11294   0.789   4.434  11.177  0.7525 -1.2263 -1.5723
  110OSM   H14B11295   0.682   4.318  11.118 -0.0176 -2.2244  1.7119
  110OSM   H14C11296   0.685   4.328  11.284  1.3617  1.6038  1.0651
  110OSM    C1311297   0.450   4.415  11.207 -0.2167  0.1390  0.1353
  110OSM   H13A11298   0.370   4.485  11.225 -0.4732  0.0003 -0.4463
  110OSM   H13B11299   0.464   4.361  11.300  3.7410 -1.0979 -0.9655
  110OSM   H13C11300   0.424   4.349  11.126  0.6204  2.3625 -2.0439
  110OSM    C1211301   0.583   4.566  11.056 -0.0307 -0.4697 -1.0578
  110OSM   H12A11302   0.490   4.614  11.031 -0.3532 -0.7531 -0.4063
  110OSM   H12B11303   0.592   4.489  10.981  0.2761 -3.3395  1.7237
  110OSM    C1111304   0.711   4.657  11.035 -0.1655  0.5333 -0.0817
  110OSM   H11A11305   0.711   4.750  11.095 -0.6009  0.0222  0.7383
  110OSM   H11B11306   0.706   4.683  10.927  0.3376 -2.4282 -0.9264
  110OSM      P11307   0.969   4.646  11.037  0.0003  0.0618 -0.4195
  110OSM    O1311308   0.979   4.746  11.145  0.8931 -0.5202 -0.1223
  110OSM    O1411309   1.086   4.549  11.039  0.3583  0.2924  0.0019
  110OSM    O1111310   0.965   4.717  10.903 -0.2958 -0.7858  0.5373
  110OSM    O1211311   0.827   4.572  11.035 -0.0993  0.4662  0.1856
  110OSM    C1S11312   1.086   4.743  10.824 -0.0816  0.3340  0.6408
  110OSM    H1S11313   1.161   4.662  10.833  0.4758  0.5230 -1.5692
  110OSM    H1T11314   1.129   4.838  10.862  1.7593 -0.6035  0.9979
  110OSM     NF11315   1.186   4.770  10.604  0.5033 -0.1338 -0.3679
  110OSM    HNF11316   1.198   4.854  10.551 -0.0500  0.1481 -0.0525
  110OSM    C2S11317   1.061   4.751  10.664  0.6864  0.6259 -0.4040
  110OSM    H2S11318   1.027   4.649  10.633  0.1522  0.3789  0.8830
  110OSM    C3S11319   0.956   4.860  10.631  0.6234  0.4640 -0.2628
  110OSM    H3S11320   1.009   4.957  10.644  1.2024  0.2169 -0.7416
  110OSM     O311321   0.841   4.862  10.715 -0.2006 -0.0313 -0.6763
  110OSM    HO311322   0.876   4.801  10.780 -0.1594  0.3021 -0.3790
  110OSM    C4S11323   0.912   4.850  10.485 -0.2371 -0.0317 -0.6727
  110OSM    H4S11324   0.958   4.930  10.426  0.1765  0.1341 -0.1368
  110OSM    C5S11325   0.809   4.783  10.424  0.8496  0.8364 -0.0896
  110OSM    H5S11326   0.748   4.721  10.491  0.7639  1.8349  0.7805
  110OSM    C6S11327   0.765   4.786  10.279  0.3546  0.3371 -0.0795
  110OSM    H6S11328   0.672   4.845  10.266 -0.0658  0.0348  1.4482
  110OSM    H6T11329   0.742   4.684  10.242 -2.7367  1.5852 -2.0184
  110OSM    C7S11330   0.864   4.837  10.180 -0.2288 -0.8890  0.3238
  110OSM    H7S11331   0.961   4.784  10.194  0.9435  0.3045 -2.4622
  110OSM    H7T11332   0.887   4.942  10.207  0.0838 -0.8903  0.0765
  110OSM    C8S11333   0.818   4.824  10.031  0.2755 -0.4079  0.1860
  110OSM    H8S11334   0.719   4.873  10.020  1.0000  0.9413 -0.6205
  110OSM    H8T11335   0.807   4.716  10.012  0.5626 -0.3846 -0.1209
  110OSM    C9S11336   0.919   4.880   9.930 -0.0908 -0.0486  0.4303
  110OSM    H9S11337   1.017   4.828   9.925 -0.4667 -0.8973  1.4550
  110OSM    H9T11338   0.942   4.984   9.959  3.3211  0.9571 -4.5553
  110OSM   C10S11339   0.867   4.867   9.784  0.0619  0.6211 -0.1205
  110OSM   H10S11340   0.772   4.925   9.777  0.1685  0.8750  0.4337
  110OSM   H10T11341   0.853   4.759   9.763  1.5793  0.2984  0.3665
  110OSM   C11S11342   0.972   4.918   9.684  0.6534  0.1649  0.2380
  110OSM   H11S11343   1.071   4.908   9.733  1.4202 -1.9916 -1.5540
  110OSM   H11T11344   0.988   5.024   9.655 -0.9152 -0.5460 -4.0040
  110OSM   C12S11345   0.952   4.843   9.549 -0.4578  0.1973  0.1881
  110OSM   H12S11346   0.845   4.840   9.520 -1.1481  0.5536  2.4909
  110OSM   H12T11347   0.976   4.738   9.576 -2.7623 -0.1743  0.9637
  110OSM   C13S11348   1.047   4.894   9.436  0.1978 -0.4269  0.0112
  110OSM   H13S11349   1.013   4.992   9.397  0.6062 -1.0387 -2.0075
  110OSM   H13T11350   1.036   4.822   9.352  1.8992 -0.4900 -0.1781
  110OSM   C14S11351   1.192   4.895   9.476  0.0027 -0.5447  0.1136
  110OSM   H14S11352   1.227   4.793   9.503  1.9504  0.1908  0.5068
  110OSM   H14T11353   1.204   4.946   9.574  0.7134 -0.1629 -0.1686
  110OSM   C15S11354   1.282   4.956   9.362  0.1161 -0.1098  0.0504
  110OSM   H15S11355   1.243   5.056   9.336  1.0402  0.0354 -0.8713
  110OSM   H15T11356   1.267   4.892   9.272 -1.5377 -0.0080  0.2182
  110OSM   C16S11357   1.426   4.983   9.404 -0.2759  0.5614 -0.6567
  110OSM   H16S11358   1.432   5.070   9.473 -0.2465 -1.2659  1.7945
  110OSM   H16T11359   1.493   4.992   9.316 -0.5943  1.0838 -0.8474
  110OSM   C17S11360   1.490   4.872   9.499 -0.5105 -0.0781  0.4404
  110OSM   H17S11361   1.484   4.779   9.439 -0.4689  0.7988 -0.9566
  110OSM   H17T11362   1.436   4.866   9.596 -1.5854  1.0391 -0.0641
  110OSM   C18S11363   1.639   4.905   9.520 -0.2303 -0.4541 -0.1355
  110OSM   H18S11364   1.667   4.968   9.433  1.3542 -0.7583  0.1245
  110OSM   H18T11365   1.701   4.814   9.508  2.5955  1.5197 -1.7631
  110OSM   H18U11366   1.663   4.953   9.617  0.2015  0.1471 -0.5317
  110OSM    C1F11367   1.287   4.688  10.600  0.6796  0.3476 -0.2495
  110OSM     OF11368   1.270   4.579  10.651  0.3400  0.2603 -0.3551
  110OSM    C2F11369   1.415   4.734  10.534 -0.1043  0.2223  0.3946
  110OSM    H2F11370   1.479   4.775  10.616  0.9171  0.4896 -0.5052
  110OSM    H2G11371   1.389   4.805  10.453  0.9149  0.5430  0.3277
  110OSM    C3F11372   1.479   4.613  10.456 -0.3952  0.2080 -0.1206
  110OSM    H3F11373   1.410   4.588  10.372  2.0486 -2.5356 -1.5264
  110OSM    H3G11374   1.497   4.525  10.521 -2.9826  0.6677  1.3375
  110OSM    C4F11375   1.612   4.655  10.388  0.3442 -0.6084  0.2720
  110OSM    H4F11376   1.664   4.701  10.475 -1.1244 -1.2008  1.5027
  110OSM    H4G11377   1.593   4.735  10.314 -0.3765 -1.4909 -0.5304
  110OSM    C5F11378   1.691   4.542  10.319 -0.6566 -0.6438 -0.3247
  110OSM    H5F11379   1.629   4.489  10.244 -0.0447 -2.4278  0.3708
  110OSM    H5G11380   1.709   4.463  10.395 -2.4697 -1.0063 -0.2287
  110OSM    C6F11381   1.833   4.597  10.264  0.2975 -0.4260  0.0383
  110OSM    H6F11382   1.809   4.696  10.220  1.6239  0.9771  2.2789
  110OSM    H6G11383   1.874   4.527  10.188 -1.9244 -0.7804 -0.9178
  110OSM    C7F11384   1.939   4.620  10.373 -0.8556  0.1838 -0.0023
  110OSM    H7F11385   1.970   4.521  10.413  1.9777  1.3119  0.8225
  110OSM    H7G11386   1.901   4.687  10.453  0.0031 -0.2252  0.7683
  110OSM    C8F11387   2.081   4.664  10.306  0.0725  0.0804 -0.0133
  110OSM    H8F11388   2.114   4.589  10.231  0.5105 -0.0448  0.3012
  110OSM    H8G11389   2.149   4.661  10.394 -1.9223  2.8394  1.7963
  110OSM    C9F11390   2.094   4.802  10.255  0.1337 -0.0687  0.3825
  110OSM    H9F11391   2.123   4.882  10.325  1.8790 -1.6617  1.6041
  110OSM   C10F11392   2.097   4.836  10.121  0.2301  0.3735 -0.3943
  110OSM   H10F11393   2.116   4.941  10.093  1.0210  0.3281 -0.0503
  110OSM   C11F11394   2.075   4.731  10.011  0.1112 -0.3347 -0.1546
  110OSM   H11F11395   1.989   4.665  10.034  0.5153 -1.1607 -0.9471
  110OSM   H11G11396   2.165   4.669   9.992  0.5856  0.9688 -2.5985
  110OSM   C12F11397   2.046   4.801   9.872  0.5246 -0.4762  0.3898
  110OSM   H12F11398   2.064   4.727   9.790  0.2803  0.6593 -0.7277
  110OSM   H12G11399   2.118   4.880   9.841  0.7857 -0.7398  0.3138
  110OSM   C13F11400   1.903   4.865   9.867 -0.1569  0.0561 -0.5961
  110OSM   H13F11401   1.908   4.930   9.777  3.4243 -1.7193 -1.8847
  110OSM   H13G11402   1.879   4.937   9.947 -1.6603  0.5887 -1.4813
  110OSM   C14F11403   1.786   4.774   9.849  0.4546 -0.2869 -0.0103
  110OSM   H14F11404   1.796   4.679   9.906 -0.7075  0.1133  0.9045
  110OSM   H14G11405   1.786   4.744   9.742 -1.6426 -1.6502  0.3119
  110OSM   C15F11406   1.648   4.839   9.891  0.4303 -0.5176  0.4425
  110OSM   H15F11407   1.622   4.922   9.822 -2.6481 -2.6885 -1.2404
  110OSM   H15G11408   1.663   4.861   9.999 -1.1037  0.1466  0.5516
  110OSM   C16F11409   1.526   4.743   9.878  0.2222  0.0397  0.2926
  110OSM   H16F11410   1.547   4.648   9.930  0.8445 -1.1006 -1.9137
  110OSM   H16G11411   1.508   4.719   9.771 -1.7018 -0.9475  0.7982
  110OSM   C17F11412   1.403   4.827   9.921 -0.8044  0.2980 -0.0950
  110OSM   H17F11413   1.312   4.769   9.894 -0.1973 -2.4227  3.0347
  110OSM   H17G11414   1.399   4.926   9.871 -0.8085  1.3309  1.8269
  110OSM   C18F11415   1.390   4.842  10.078  0.0754  0.2562  0.1632
  110OSM   H18F11416   1.295   4.895  10.102  0.0876 -0.4732  1.9520
  110OSM   H18G11417   1.481   4.893  10.116 -0.1712  0.2885  0.7172
  110OSM   H18H11418   1.387   4.739  10.119  0.1019  0.8743  1.7711
  111OSM      N11419   1.799   2.898  10.648  0.3810  0.4003  0.4643
  111OSM    C1511420   1.897   2.818  10.561  0.8227  0.1745  0.3476
  111OSM   H15A11421   1.967   2.778  10.632 -0.1646  0.5490  1.5814
  111OSM   H15B11422   1.947   2.880  10.488 -0.7547  1.7144  0.5089
  111OSM   H15C11423   1.843   2.740  10.508 -2.4294 -0.0327  3.5137
  111OSM    C1411424   1.729   2.801  10.743 -0.6654  0.0772 -0.1404
  111OSM   H14A11425   1.665   2.853  10.813  0.1900  0.0688  0.6518
  111OSM   H14B11426   1.794   2.738  10.801  0.1609 -0.4678 -1.6099
  111OSM   H14C11427   1.673   2.730  10.685 -0.4709 -0.6350  0.5381
  111OSM    C1311428   1.880   2.998  10.723 -0.3837 -0.5247  0.1803
  111OSM   H13A11429   1.819   3.042  10.802 -1.0233  0.4654 -0.8351
  111OSM   H13B11430   1.896   3.078  10.652  1.4102 -1.5426 -0.5965
  111OSM   H13C11431   1.971   2.959  10.765 -0.1654 -0.0335  0.1787
  111OSM    C1211432   1.693   2.965  10.567 -0.3568  0.2471 -0.4016
  111OSM   H12A11433   1.621   3.016  10.629  1.0306  1.2240  0.4592
  111OSM   H12B11434   1.632   2.888  10.520  0.1632 -0.2038 -0.3416
  111OSM    C1111435   1.731   3.066  10.457  0.2397 -0.1499 -0.0798
  111OSM   H11A11436   1.640   3.072  10.393  0.9538  1.5874 -1.0191
  111OSM   H11B11437   1.811   3.015  10.399  4.5697 -0.4037  5.3760
  111OSM      P11438   1.681   3.316  10.539 -0.6541 -0.3286  0.2003
  111OSM    O1311439   1.577   3.254  10.622  0.5694 -0.3617  0.0428
  111OSM    O1411440   1.757   3.424  10.598  0.7426 -0.4965 -0.1002
  111OSM    O1111441   1.616   3.370  10.410 -0.2382 -0.6727  1.1692
  111OSM    O1211442   1.774   3.193  10.497 -0.7946 -0.2133 -0.1920
  111OSM    C1S11443   1.682   3.411  10.295 -0.6433 -0.4929 -0.2175
  111OSM    H1S11444   1.789   3.404  10.324 -0.1762  0.2050 -1.6581
  111OSM    H1T11445   1.643   3.511  10.268 -0.1334  0.2602  1.6441
  111OSM     NF11446   1.744   3.368  10.061 -0.1502 -0.1127  0.5411
  111OSM    HNF11447   1.688   3.384   9.980 -1.3693 -0.6285  1.2556
  111OSM    C2S11448   1.671   3.320  10.171 -0.3571  0.0579 -0.7213
  111OSM    H2S11449   1.707   3.219  10.201 -0.2993 -0.0445 -1.1388
  111OSM    C3S11450   1.519   3.303  10.141 -0.2703 -0.1171 -0.4808
  111OSM    H3S11451   1.481   3.403  10.112 -1.2258  0.1276  1.4623
  111OSM     O311452   1.445   3.253  10.244  0.2223  0.4091  0.5710
  111OSM    HO311453   1.476   3.301  10.321  0.2101  0.3036  0.6427
  111OSM    C4S11454   1.497   3.218  10.024 -0.2522  0.4964 -0.1511
  111OSM    H4S11455   1.527   3.115  10.045 -2.0176  0.2320  1.2697
  111OSM    C5S11456   1.421   3.241   9.914  0.3194  0.0296 -0.1770
  111OSM    H5S11457   1.358   3.331   9.911  1.2199  0.7133  0.7415
  111OSM    C6S11458   1.385   3.136   9.808  0.0648 -0.2495  0.3022
  111OSM    H6S11459   1.274   3.132   9.814  0.0924  0.7700  2.4514
  111OSM    H6T11460   1.425   3.035   9.832  0.0295 -0.0358  1.2826
  111OSM    C7S11461   1.436   3.187   9.667  0.2390  0.8068 -0.0749
  111OSM    H7S11462   1.411   3.110   9.591  0.7559  0.4614  0.1021
  111OSM    H7T11463   1.547   3.193   9.673  0.3305  0.6943 -1.3279
  111OSM    C8S11464   1.367   3.316   9.633 -0.2706 -0.2389  0.4366
  111OSM    H8S11465   1.437   3.393   9.673  0.3506 -0.0962 -0.8619
  111OSM    H8T11466   1.269   3.325   9.684 -2.2830 -0.9244 -3.0172
  111OSM    C9S11467   1.342   3.356   9.483  0.2211  0.0424 -0.1202
  111OSM    H9S11468   1.344   3.466   9.495  0.3955 -0.0538  0.8442
  111OSM    H9T11469   1.239   3.334   9.449 -0.9569 -2.2796  4.1289
  111OSM   C10S11470   1.466   3.322   9.390 -0.7671 -0.5303  0.0212
  111OSM   H10S11471   1.465   3.213   9.370 -0.0309 -0.3476 -1.0723
  111OSM   H10T11472   1.565   3.351   9.430 -1.1190  1.2996 -0.3289
  111OSM   C11S11473   1.448   3.401   9.259  0.2409 -0.6565 -0.0039
  111OSM   H11S11474   1.454   3.508   9.287 -0.8078 -0.6105  0.0614
  111OSM   H11T11475   1.348   3.374   9.219 -0.0847  0.2646  0.1727
  111OSM   C12S11476   1.566   3.367   9.167 -0.2965  0.2177 -0.2591
  111OSM   H12S11477   1.554   3.264   9.129  0.5092  0.8093 -2.2546
  111OSM   H12T11478   1.663   3.372   9.222 -0.3434  1.8798 -0.2800
  111OSM   C13S11479   1.586   3.458   9.040 -0.3529  0.5796 -0.6224
  111OSM   H13S11480   1.552   3.561   9.063 -0.1318  0.1650  1.9021
  111OSM   H13T11481   1.527   3.408   8.961  0.5699 -4.0779  1.3253
  111OSM   C14S11482   1.736   3.468   8.996 -0.1596 -0.1450  0.6584
  111OSM   H14S11483   1.791   3.372   8.991 -1.3403 -0.8131 -0.4070
  111OSM   H14T11484   1.786   3.523   9.078 -2.4309 -0.9296  2.7007
  111OSM   C15S11485   1.756   3.548   8.870  0.7302 -0.4496  0.0379
  111OSM   H15S11486   1.718   3.650   8.892  1.4935 -0.0501 -0.4768
  111OSM   H15T11487   1.702   3.513   8.779 -0.8632 -0.2525  0.8659
  111OSM   C16S11488   1.904   3.570   8.827  0.1296  0.8127 -0.5463
  111OSM   H16S11489   1.935   3.486   8.762 -0.6401  0.6955 -0.7715
  111OSM   H16T11490   1.973   3.581   8.913  1.0206  0.8396 -1.2543
  111OSM   C17S11491   1.922   3.708   8.765  0.4471  0.2739 -0.3136
  111OSM   H17S11492   1.870   3.786   8.824 -0.0539 -0.7892  0.6988
  111OSM   H17T11493   1.878   3.710   8.663  0.1210 -0.7346 -0.2081
  111OSM   C18S11494   2.069   3.757   8.767 -0.2090  0.5909 -0.1973
  111OSM   H18S11495   2.128   3.693   8.697  0.1551 -1.4348  1.8270
  111OSM   H18T11496   2.107   3.740   8.870 -3.7780 -3.1726  0.7726
  111OSM   H18U11497   2.087   3.863   8.742  0.3468  0.2536 -1.3368
  111OSM    C1F11498   1.874   3.376  10.057  0.1165  0.4050  0.7709
  111OSM     OF11499   1.947   3.333  10.145  0.5229  0.1369 -0.1789
  111OSM    C2F11500   1.931   3.438   9.931 -0.0089  0.3402  0.7720
  111OSM    H2F11501   1.998   3.362   9.885 -1.0748  1.0479 -2.1607
  111OSM    H2G11502   2.000   3.519   9.963 -0.6246  0.9038  0.6973
  111OSM    C3F11503   1.835   3.485   9.829 -0.1589 -0.2319  0.6153
  111OSM    H3F11504   1.773   3.566   9.871  2.2602  1.5797  0.8943
  111OSM    H3G11505   1.770   3.406   9.785 -0.7881  1.8492 -2.5317
  111OSM    C4F11506   1.908   3.571   9.725 -0.0553  0.6308  0.3471
  111OSM    H4F11507   1.989   3.509   9.682  0.6973  0.3353  2.0962
  111OSM    H4G11508   1.952   3.661   9.774  2.1485  0.5674 -1.3542
  111OSM    C5F11509   1.816   3.625   9.618 -0.1139 -0.3596  0.0979
  111OSM    H5F11510   1.749   3.704   9.657 -0.3561 -0.7498  0.4830
  111OSM    H5G11511   1.757   3.539   9.579 -1.9884  0.3602  1.2335
  111OSM    C6F11512   1.884   3.669   9.486 -0.2303  0.1447  0.6671
  111OSM    H6F11513   1.834   3.616   9.402  1.5009  1.1170 -1.0526
  111OSM    H6G11514   1.986   3.625   9.486  0.0940  0.8897  0.7023
  111OSM    C7F11515   1.894   3.815   9.464 -0.2566  0.3587 -0.3577
  111OSM    H7F11516   1.939   3.847   9.560  0.5569 -1.3286 -0.1368
  111OSM    H7G11517   1.792   3.858   9.450  0.3309  1.5992 -1.0014
  111OSM    C8F11518   1.987   3.851   9.344  0.0426 -0.2001  0.1276
  111OSM    H8F11519   2.077   3.788   9.367 -0.7893 -0.9455  1.5026
  111OSM    H8G11520   2.023   3.956   9.352 -2.3713  0.8107 -1.2367
  111OSM    C9F11521   1.929   3.830   9.207 -0.2327  0.0181 -0.2385
  111OSM    H9F11522   1.900   3.729   9.171  1.4704 -0.3247 -0.7447
  111OSM   C10F11523   1.912   3.934   9.123  0.2242 -0.3314  0.2547
  111OSM   H10F11524   1.862   3.921   9.026  2.3540 -0.4553 -0.8876
  111OSM   C11F11525   1.956   4.081   9.139 -0.0013  0.2390 -0.5599
  111OSM   H11F11526   2.036   4.096   9.214 -0.5342 -1.5295  0.4259
  111OSM   H11G11527   1.870   4.146   9.167  0.3537  0.0005  1.2080
  111OSM   C12F11528   2.032   4.134   9.017  0.1158 -0.5364 -0.8341
  111OSM   H12F11529   2.120   4.067   9.016 -1.0051 -2.0375 -1.7850
  111OSM   H12G11530   2.066   4.236   9.048 -1.0562  0.2910 -2.1585
  111OSM   C13F11531   1.956   4.134   8.883 -0.8893 -0.0567 -0.5859
  111OSM   H13F11532   1.856   4.180   8.901 -0.3261  1.9825 -2.3074
  111OSM   H13G11533   1.940   4.029   8.849  0.8226 -0.9185  1.0888
  111OSM   C14F11534   2.023   4.194   8.758  0.3124 -0.0530 -0.0789
  111OSM   H14F11535   2.112   4.133   8.732  0.8780  1.1877 -1.1580
  111OSM   H14G11536   2.080   4.288   8.778  1.5785 -0.4265 -1.7246
  111OSM   C15F11537   1.931   4.211   8.644  0.8539  0.2369  0.5599
  111OSM   H15F11538   1.870   4.119   8.631 -0.2600  0.6906  2.2329
  111OSM   H15G11539   1.990   4.220   8.550  3.0433 -2.3949  1.5680
  111OSM   C16F11540   1.832   4.321   8.666 -0.1949  0.5470 -0.1481
  111OSM   H16F11541   1.896   4.412   8.669 -2.1762  2.1859 -2.8817
  111OSM   H16G11542   1.774   4.318   8.761  1.5924 -1.3106  0.9532
  111OSM   C17F11543   1.723   4.342   8.557  0.4887 -0.4293 -0.3915
  111OSM   H17F11544   1.666   4.248   8.541  0.5405 -0.8544  1.6898
  111OSM   H17G11545   1.771   4.370   8.461  1.7056  0.0033  0.3186
  111OSM   C18F11546   1.626   4.458   8.590  0.5648 -0.1309 -0.3735
  111OSM   H18F11547   1.537   4.449   8.526 -1.0422 -1.6295  1.9261
  111OSM   H18G11548   1.675   4.558   8.597 -2.1411  1.3105 -0.4638
  111OSM   H18H11549   1.589   4.438   8.693  1.9903  0.2365  0.2447
  112OSM      N11550   6.649   0.268  10.728  0.2829  0.0653 -0.0823
  112OSM    C1511551   6.557   0.189  10.807 -0.4631  0.2819 -0.6257
  112OSM   H15A11552   6.456   0.208  10.776 -1.0358 -0.1314  0.8699
  112OSM   H15B11553   6.562   0.212  10.913 -0.9890 -1.4492 -0.1923
  112OSM   H15C11554   6.579   0.085  10.787  2.2197  0.5389  0.5009
  112OSM    C1411555   6.673   0.405  10.786 -0.0537 -0.1164  0.0766
  112OSM   H14A11556   6.688   0.395  10.893  0.8488 -2.6085 -0.2051
  112OSM   H14B11557   6.592   0.470  10.758 -1.0252 -1.2534  0.1712
  112OSM   H14C11558   6.757   0.460  10.745  0.6890 -1.3452 -0.1179
  112OSM    C1311559   6.779   0.195  10.732  0.4527 -0.4625  0.0445
  112OSM   H13A11560   6.768   0.088  10.734  1.0416 -0.5509 -0.7151
  112OSM   H13B11561   6.827   0.212  10.827  0.2966  1.1209 -0.1265
  112OSM   H13C11562   6.833   0.241  10.650 -1.1123  1.5832  0.0715
  112OSM    C1211563   6.600   0.271  10.587 -0.1862  0.2889  0.4878
  112OSM   H12A11564   6.583   0.171  10.549  0.6857 -0.3641  1.7479
  112OSM   H12B11565   6.677   0.312  10.523 -2.4245  3.7689 -0.2638
  112OSM    C1111566   6.465   0.351  10.554  0.4293  0.3270 -0.1258
  112OSM   H11A11567   6.461   0.356  10.443 -0.2166  0.6129 -0.0934
  112OSM   H11B11568   6.483   0.455  10.588  0.4958  0.2666  0.0209
  112OSM      P11569   6.234   0.381  10.677 -0.1624  0.1069 -0.3282
  112OSM    O1311570   6.154   0.301  10.767 -0.2451  0.2912 -0.2081
  112OSM    O1411571   6.298   0.504  10.725  0.2085 -0.1556  0.1778
  112OSM    O1111572   6.146   0.405  10.557  0.1804  0.3711 -0.1478
  112OSM    O1211573   6.349   0.290  10.607  0.0612  0.4968  0.3187
  112OSM    C1S11574   6.137   0.516  10.468 -0.1166  0.4289 -0.0626
  112OSM    H1S11575   6.219   0.587  10.491  0.5791  1.3765 -4.5157
  112OSM    H1T11576   6.044   0.577  10.470 -0.3714  0.1139 -1.3395
  112OSM     NF11577   6.160   0.602  10.238  0.6872  1.0065  0.1858
  112OSM    HNF11578   6.072   0.610  10.193 -0.0886  2.4219  1.8517
  112OSM    C2S11579   6.167   0.480  10.315 -0.1197  0.0821 -0.5100
  112OSM    H2S11580   6.273   0.447  10.318 -0.7136 -1.8981  0.7002
  112OSM    C3S11581   6.078   0.356  10.270 -0.6004 -0.3379 -0.3693
  112OSM    H3S11582   5.972   0.365  10.301 -0.4713 -0.7065  0.1903
  112OSM     O311583   6.114   0.236  10.334  0.0857  0.2136  0.0085
  112OSM    HO311584   6.146   0.279  10.414 -0.8337 -0.9496  1.0399
  112OSM    C4S11585   6.100   0.330  10.131 -0.5562 -0.0094 -0.1214
  112OSM    H4S11586   6.199   0.287  10.113 -0.4409  0.7245 -1.3930
  112OSM    C5S11587   6.004   0.350  10.040  1.1230  0.7298  0.1898
  112OSM    H5S11588   5.910   0.387  10.084  0.4752  0.0091 -0.5581
  112OSM    C6S11589   6.014   0.319   9.889 -0.8733 -0.0276 -0.2444
  112OSM    H6S11590   6.047   0.405   9.827 -1.0166 -0.9098 -1.5961
  112OSM    H6T11591   5.906   0.314   9.861 -1.8867 -2.3171  3.3896
  112OSM    C7S11592   6.089   0.192   9.852 -0.0863 -0.4094 -0.0673
  112OSM    H7S11593   6.049   0.105   9.907 -1.6229  1.0225  1.1875
  112OSM    H7T11594   6.194   0.212   9.882 -0.5413  0.6611  0.8817
  112OSM    C8S11595   6.075   0.162   9.707  0.2489  0.2523  0.0119
  112OSM    H8S11596   6.139   0.074   9.684  0.8360  0.7452 -0.2584
  112OSM    H8T11597   6.115   0.240   9.639 -1.4289 -1.4108 -3.0863
  112OSM    C9S11598   5.926   0.135   9.662  0.0715  0.2696  0.6418
  112OSM    H9S11599   5.893   0.239   9.642  1.8453  0.8408  0.4849
  112OSM    H9T11600   5.865   0.078   9.735 -0.6441  1.2735  0.8519
  112OSM   C10S11601   5.924   0.075   9.515  0.1191  0.4071  0.5527
  112OSM   H10S11602   5.988  -0.015   9.506  0.4834  0.6272  0.8869
  112OSM   H10T11603   5.969   0.154   9.452 -0.5757 -0.3170 -0.9100
  112OSM   C11S11604   5.779   0.053   9.459  0.3995 -0.2604  0.5148
  112OSM   H11S11605   5.745   0.158   9.452 -0.2161 -0.4472  0.6875
  112OSM   H11T11606   5.718  -0.004   9.532 -2.8422 -0.2058 -1.9495
  112OSM   C12S11607   5.782  -0.007   9.310 -0.3129 -0.0430 -1.3572
  112OSM   H12S11608   5.809  -0.115   9.311 -0.9656 -0.2044 -0.7501
  112OSM   H12T11609   5.861   0.048   9.254  0.9902 -1.1877 -0.7008
  112OSM   C13S11610   5.649  -0.003   9.230  0.3529 -0.4641  0.1296
  112OSM   H13S11611   5.626   0.104   9.212 -0.5724 -0.0859  3.0831
  112OSM   H13T11612   5.564  -0.034   9.294  1.2486  2.4312  2.9519
  112OSM   C14S11613   5.661  -0.067   9.087 -0.2098  0.0091 -0.5934
  112OSM   H14S11614   5.687  -0.175   9.094 -0.5301  0.0023  0.7980
  112OSM   H14T11615   5.738  -0.014   9.027  1.3715 -1.3257  0.1849
  112OSM   C15S11616   5.521  -0.061   9.012 -0.5105 -1.1062  0.3332
  112OSM   H15S11617   5.454  -0.139   9.055 -1.9685 -0.0069  0.1353
  112OSM   H15T11618   5.547  -0.086   8.907 -0.8721  0.1960 -0.0928
  112OSM   C16S11619   5.459   0.080   9.016 -0.1398  0.3610  0.2259
  112OSM   H16S11620   5.538   0.158   9.023 -0.4885  0.5885  1.8978
  112OSM   H16T11621   5.400   0.081   9.110 -0.3060  1.2506  0.1205
  112OSM   C17S11622   5.371   0.110   8.893 -0.6532 -0.0251  0.0195
  112OSM   H17S11623   5.290   0.033   8.894 -2.4664  1.7882 -0.7547
  112OSM   H17T11624   5.439   0.110   8.805  2.6021  1.0774  2.3654
  112OSM   C18S11625   5.306   0.244   8.906 -0.0288  0.6079  0.6381
  112OSM   H18S11626   5.240   0.272   8.821 -0.3887 -2.8907 -0.3713
  112OSM   H18T11627   5.379   0.327   8.922  0.2066  0.5646 -0.1867
  112OSM   H18U11628   5.230   0.240   8.987 -1.2738  0.6595 -0.4923
  112OSM    C1F11629   6.259   0.681  10.202 -0.6603 -0.1643 -0.2359
  112OSM     OF11630   6.374   0.658  10.238  0.5424 -0.1053 -0.4850
  112OSM    C2F11631   6.243   0.791  10.101 -0.3748 -0.6094  0.1017
  112OSM    H2F11632   6.253   0.888  10.155  2.9350  0.4044 -1.9905
  112OSM    H2G11633   6.140   0.803  10.061  0.2733  1.0150 -1.2105
  112OSM    C3F11634   6.348   0.772   9.985 -0.2601  0.0465 -0.0717
  112OSM    H3F11635   6.450   0.761  10.027  1.5540  0.2573 -3.9672
  112OSM    H3G11636   6.352   0.870   9.932 -0.9854  0.6103  0.8876
  112OSM    C4F11637   6.319   0.663   9.881 -0.5379  0.5972 -0.2348
  112OSM    H4F11638   6.210   0.647   9.867 -0.1960 -0.3400 -2.2510
  112OSM    H4G11639   6.344   0.568   9.932 -1.9793  0.8216  0.9290
  112OSM    C5F11640   6.396   0.675   9.751 -0.6184 -0.3466 -0.3115
  112OSM    H5F11641   6.503   0.653   9.774 -0.1924  0.1709 -1.6439
  112OSM    H5G11642   6.382   0.772   9.699 -0.2113 -0.6909 -1.0911
  112OSM    C6F11643   6.358   0.574   9.643 -1.3845 -0.8580  0.2853
  112OSM    H6F11644   6.344   0.476   9.694 -0.7788 -0.8975  0.3850
  112OSM    H6G11645   6.440   0.569   9.568 -0.3531  0.5123  1.2685
  112OSM    C7F11646   6.226   0.595   9.574 -0.5765  0.4689  0.5945
  112OSM    H7F11647   6.201   0.698   9.541 -0.5706  0.0329 -0.8912
  112OSM    H7G11648   6.153   0.579   9.655 -0.3199 -0.9930  0.5630
  112OSM    C8F11649   6.203   0.493   9.460  0.3089 -0.7422 -0.4560
  112OSM    H8F11650   6.158   0.401   9.504  0.8087  0.2380  2.3172
  112OSM    H8G11651   6.302   0.459   9.421 -0.5398 -1.5992 -1.9363
  112OSM    C9F11652   6.116   0.551   9.346  0.1040 -0.1060  0.4035
  112OSM    H9F11653   6.010   0.548   9.376  0.0690  1.6589  0.5921
  112OSM   C10F11654   6.155   0.593   9.226 -0.5394 -0.4072 -0.2059
  112OSM   H10F11655   6.090   0.641   9.151  2.7324  2.0588 -1.7355
  112OSM   C11F11656   6.300   0.590   9.172  0.3403 -0.3547  0.0394
  112OSM   H11F11657   6.369   0.538   9.241  0.9612 -0.7060 -0.8346
  112OSM   H11G11658   6.336   0.694   9.157 -0.5739 -0.3915 -3.4824
  112OSM   C12F11659   6.318   0.532   9.027  0.3998  0.2462 -0.4850
  112OSM   H12F11660   6.274   0.431   9.039  1.0963 -0.0135 -0.0612
  112OSM   H12G11661   6.427   0.519   9.010  0.3494  0.7328 -1.2041
  112OSM   C13F11662   6.244   0.601   8.912 -0.2729  0.0301 -0.2577
  112OSM   H13F11663   6.269   0.709   8.908 -0.7505  0.1167 -1.1296
  112OSM   H13G11664   6.136   0.599   8.940 -0.7635 -0.2302 -2.0504
  112OSM   C14F11665   6.267   0.534   8.771  0.3741  0.1320 -0.1986
  112OSM   H14F11666   6.290   0.426   8.782  1.0542  0.1510 -1.2736
  112OSM   H14G11667   6.345   0.589   8.714 -0.6885  1.5766 -0.3156
  112OSM   C15F11668   6.137   0.534   8.683 -0.5464  0.1779 -0.1924
  112OSM   H15F11669   6.084   0.628   8.711  0.8996  0.5690  1.3510
  112OSM   H15G11670   6.070   0.449   8.707  0.5602 -0.5163  0.5047
  112OSM   C16F11671   6.170   0.539   8.534  0.8547  0.3568  1.0199
  112OSM   H16F11672   6.246   0.621   8.529  0.0039  1.0595 -1.0953
  112OSM   H16G11673   6.071   0.560   8.489  2.1548  1.0270 -1.7126
  112OSM   C17F11674   6.224   0.415   8.465  0.3841 -0.8274 -0.7389
  112OSM   H17F11675   6.142   0.341   8.476 -1.6550  1.5379  1.0681
  112OSM   H17G11676   6.304   0.376   8.532 -0.7072 -0.8351  0.6226
  112OSM   C18F11677   6.273   0.432   8.324 -0.2480 -0.6667  0.1784
  112OSM   H18F11678   6.318   0.339   8.284  0.0388 -1.3978  2.0771
  112OSM   H18G11679   6.352   0.510   8.314 -1.2162  0.5945  1.6838
  112OSM   H18H11680   6.183   0.453   8.263 -0.2680  0.0168  0.4297
  113OSM      N11681   0.496   6.625  10.990  0.3397 -0.4623  0.1955
  113OSM    C1511682   0.514   6.770  10.985  0.0917 -0.6309 -0.6437
  113OSM   H15A11683   0.595   6.808  11.046 -0.2280 -1.0362  0.0504
  113OSM   H15B11684   0.428   6.820  11.026 -0.2619 -3.2408  2.1798
  113OSM   H15C11685   0.544   6.804  10.887  0.9530  3.1427  0.7613
  113OSM    C1411686   0.627   6.552  10.958 -0.6483 -0.3024  0.7324
  113OSM   H14A11687   0.606   6.450  10.986 -0.0735 -1.4549 -2.5689
  113OSM   H14B11688   0.705   6.594  11.020 -0.3717  0.0963  0.1273
  113OSM   H14C11689   0.659   6.551  10.855 -1.7801  0.8712  0.3426
  113OSM    C1311690   0.445   6.580  11.126 -0.3535 -0.3437 -0.2633
  113OSM   H13A11691   0.524   6.589  11.199  1.4195 -1.6624 -1.9133
  113OSM   H13B11692   0.427   6.474  11.124  0.7618 -0.5843  0.9196
  113OSM   H13C11693   0.364   6.643  11.160 -0.9607 -1.6858  0.8904
  113OSM    C1211694   0.387   6.579  10.893 -0.5468  0.4098  0.0304
  113OSM   H12A11695   0.290   6.624  10.910 -0.9371 -0.4734  0.2058
  113OSM   H12B11696   0.371   6.472  10.902 -0.2456  0.5097  2.6846
  113OSM    C1111697   0.416   6.612  10.744  0.2765 -0.3828 -0.5475
  113OSM   H11A11698   0.350   6.545  10.684  0.7095 -1.7593  0.4654
  113OSM   H11B11699   0.522   6.593  10.717  0.7305  0.9455  0.1849
  113OSM      P11700   0.259   6.817  10.732 -0.2513  0.0479  0.5470
  113OSM    O1311701   0.187   6.770  10.850  0.4528  0.2001  0.4775
  113OSM    O1411702   0.269   6.965  10.709  0.8076 -0.0946 -0.4101
  113OSM    O1111703   0.197   6.757  10.602 -0.1518  0.8121 -0.2373
  113OSM    O1211704   0.402   6.753  10.725  0.4147 -0.2822  0.1835
  113OSM    C1S11705   0.275   6.777  10.478 -0.2478 -0.3443  0.1965
  113OSM    H1S11706   0.380   6.812  10.492 -0.2196 -1.0247  2.0732
  113OSM    H1T11707   0.232   6.862  10.421  2.4971  0.6449 -0.5540
  113OSM     NF11708   0.349   6.673  10.264  0.2837 -0.2570 -0.0196
  113OSM    HNF11709   0.304   6.703  10.179  0.3169  3.1367  1.0026
  113OSM    C2S11710   0.259   6.657  10.383  0.5413  0.1932 -0.1385
  113OSM    H2S11711   0.299   6.565  10.431  1.2274 -0.0564 -1.1367
  113OSM    C3S11712   0.106   6.630  10.356  0.3768  0.0634  0.2960
  113OSM    H3S11713   0.049   6.721  10.326  0.9143  0.4814  0.5337
  113OSM     O311714   0.030   6.587  10.477  0.6546  0.4243 -0.5225
  113OSM    HO311715   0.089   6.593  10.553 -1.2128 -0.4984  1.0715
  113OSM    C4S11716   0.095   6.518  10.253  0.2061  0.3635  0.4913
  113OSM    H4S11717   0.089   6.562  10.153  1.6305  1.7027  0.9398
  113OSM    C5S11718   0.063   6.386  10.272  0.0184 -0.2423  0.2587
  113OSM    H5S11719   0.028   6.335  10.363 -2.6683 -0.1802 -0.6360
  113OSM    C6S11720   0.068   6.296  10.152  0.0528  0.2008 -0.0051
  113OSM    H6S11721  -0.024   6.234  10.154 -0.2975  0.6898 -0.7564
  113OSM    H6T11722   0.146   6.217  10.163 -0.2136 -0.2035 -0.9253
  113OSM    C7S11723   0.083   6.364  10.013 -0.6889  0.0453  1.4159
  113OSM    H7S11724   0.185   6.409  10.018 -0.8111  0.2483  2.1156
  113OSM    H7T11725  -0.002   6.433   9.998 -0.1831  0.4334  0.2001
  113OSM    C8S11726   0.079   6.260   9.903 -0.2804  0.3891 -0.8883
  113OSM    H8S11727  -0.023   6.216   9.898 -0.2160  0.1043  0.0490
  113OSM    H8T11728   0.151   6.177   9.918 -0.8345  0.2001  0.9623
  113OSM    C9S11729   0.113   6.326   9.768  0.4294 -0.4579 -0.2020
  113OSM    H9S11730   0.210   6.380   9.775 -0.3087  0.8251  0.5592
  113OSM    H9T11731   0.033   6.393   9.730 -1.9955 -2.7050  0.6590
  113OSM   C10S11732   0.144   6.229   9.653 -0.5348 -0.9899 -0.1268
  113OSM   H10S11733   0.060   6.163   9.622 -2.0119 -0.3470  2.2604
  113OSM   H10T11734   0.230   6.165   9.680  2.4580  1.3115 -3.2172
  113OSM   C11S11735   0.182   6.301   9.517  0.1495  0.7632  0.1806
  113OSM   H11S11736   0.278   6.356   9.526  0.0233  1.2662 -1.3669
  113OSM   H11T11737   0.102   6.371   9.483  1.3271  2.1134  0.0979
  113OSM   C12S11738   0.197   6.196   9.401 -0.3103  0.5094  0.5756
  113OSM   H12S11739   0.104   6.137   9.392 -0.8393  1.3939  0.1175
  113OSM   H12T11740   0.289   6.136   9.418 -1.4813 -1.7698 -0.6550
  113OSM   C13S11741   0.229   6.268   9.271  0.1025  0.5412 -1.1703
  113OSM   H13S11742   0.293   6.356   9.293 -1.4104  1.6136 -0.9067
  113OSM   H13T11743   0.130   6.307   9.240 -1.5744  0.0706  2.9232
  113OSM   C14S11744   0.271   6.201   9.142 -0.3328 -0.0473 -0.8407
  113OSM   H14S11745   0.197   6.123   9.116  0.1215 -0.9190  0.3571
  113OSM   H14T11746   0.363   6.139   9.148 -0.7326 -0.8148 -2.2499
  113OSM   C15S11747   0.280   6.307   9.030 -0.3635 -0.0757 -0.0549
  113OSM   H15S11748   0.355   6.389   9.029 -0.5460  0.0885 -0.9078
  113OSM   H15T11749   0.185   6.365   9.033  0.3321  1.0804  1.3237
  113OSM   C16S11750   0.290   6.233   8.894 -0.5863  0.8116 -0.7440
  113OSM   H16S11751   0.194   6.179   8.883  0.4519 -0.8740 -2.0443
  113OSM   H16T11752   0.376   6.164   8.893  0.2830  1.8604 -0.8189
  113OSM   C17S11753   0.305   6.330   8.778  0.3846  0.4281  0.5006
  113OSM   H17S11754   0.398   6.389   8.787  1.2019 -0.9162  1.2575
  113OSM   H17T11755   0.218   6.399   8.786 -0.1792 -0.3744  1.6896
  113OSM   C18S11756   0.311   6.249   8.635  0.1998 -0.0502 -0.2686
  113OSM   H18S11757   0.396   6.178   8.641  1.1795  1.0044 -1.2231
  113OSM   H18T11758   0.320   6.322   8.552 -2.2327 -0.5797 -1.0735
  113OSM   H18U11759   0.220   6.188   8.621  2.1015 -2.6455 -2.2071
  113OSM    C1F11760   0.483   6.671  10.275  0.2443  0.1429 -0.9253
  113OSM     OF11761   0.536   6.651  10.386 -0.6882 -0.3563 -0.0487
  113OSM    C2F11762   0.567   6.703  10.153  0.3235 -0.5571  0.1932
  113OSM    H2F11763   0.672   6.690  10.185  0.8185  1.6092 -0.3626
  113OSM    H2G11764   0.538   6.806  10.120 -2.6681 -1.2166  0.4445
  113OSM    C3F11765   0.528   6.623  10.035 -0.0460  0.4596 -0.1258
  113OSM    H3F11766   0.617   6.645   9.972 -0.4002 -0.8156 -1.1023
  113OSM    H3G11767   0.433   6.655   9.987  0.3500 -0.6366 -1.7383
  113OSM    C4F11768   0.533   6.468  10.063  0.1479 -0.1339  0.4493
  113OSM    H4F11769   0.457   6.447  10.140  1.2856 -0.0848  1.6210
  113OSM    H4G11770   0.627   6.427  10.105 -0.0871 -1.4240 -0.2184
  113OSM    C5F11771   0.496   6.401   9.930 -0.0384 -0.4195  0.8452
  113OSM    H5F11772   0.392   6.433   9.907  0.5449 -0.2796 -1.9258
  113OSM    H5G11773   0.509   6.290   9.938  1.6349 -0.1695  2.1931
  113OSM    C6F11774   0.574   6.437   9.810  0.5406  0.3509  0.0808
  113OSM    H6F11775   0.682   6.425   9.831  1.2248  1.6152 -2.2424
  113OSM    H6G11776   0.568   6.546   9.787  0.8791  1.1607  3.4212
  113OSM    C7F11777   0.546   6.351   9.686 -0.4377 -0.6673  0.5319
  113OSM    H7F11778   0.441   6.371   9.655 -0.2559  1.6230  1.2567
  113OSM    H7G11779   0.562   6.244   9.710  1.5645 -0.9831 -1.8173
  113OSM    C8F11780   0.642   6.367   9.567 -0.9376  0.1884  1.5524
  113OSM    H8F11781   0.618   6.297   9.484 -1.3062  2.1682 -0.1022
  113OSM    H8G11782   0.740   6.344   9.613 -0.3759 -1.2216 -0.2183
  113OSM    C9F11783   0.659   6.506   9.507 -0.0399  0.8833 -0.6518
  113OSM    H9F11784   0.697   6.575   9.583 -1.5387 -1.1300  2.1147
  113OSM   C10F11785   0.633   6.548   9.382  0.1549  0.6339 -0.1065
  113OSM   H10F11786   0.663   6.652   9.363  1.5850  0.4431  1.0051
  113OSM   C11F11787   0.572   6.467   9.267 -0.3764 -0.4776  0.0915
  113OSM   H11F11788   0.471   6.497   9.232  0.0214 -0.6073 -1.2539
  113OSM   H11G11789   0.548   6.364   9.299 -0.2198 -0.5258  0.0546
  113OSM   C12F11790   0.660   6.438   9.141 -0.2447  0.1969 -0.4488
  113OSM   H12F11791   0.620   6.347   9.093  0.5358 -1.6522  2.2041
  113OSM   H12G11792   0.758   6.413   9.189  0.5258  3.1281 -0.2655
  113OSM   C13F11793   0.682   6.552   9.042 -0.2153 -0.6074  0.2653
  113OSM   H13F11794   0.757   6.525   8.964 -1.0027  1.9607 -1.5102
  113OSM   H13G11795   0.718   6.644   9.093 -2.1071  0.0390  0.4926
  113OSM   C14F11796   0.555   6.605   8.969 -0.3223  0.7394 -0.0056
  113OSM   H14F11797   0.486   6.651   9.043  0.8723 -0.5237  1.9817
  113OSM   H14G11798   0.517   6.518   8.912 -1.1821  0.9740  0.1978
  113OSM   C15F11799   0.587   6.724   8.868  0.1766  0.7552 -0.2975
  113OSM   H15F11800   0.678   6.706   8.808 -0.1701  0.0364 -0.6188
  113OSM   H15G11801   0.605   6.806   8.941  1.2950 -1.0322  1.5449
  113OSM   C16F11802   0.469   6.760   8.773  0.2239  0.6281  0.4469
  113OSM   H16F11803   0.477   6.870   8.760  0.4673  0.7048  1.2148
  113OSM   H16G11804   0.375   6.727   8.822 -0.4158  0.8836 -0.5581
  113OSM   C17F11805   0.477   6.690   8.639  0.5480  0.0378 -0.2342
  113OSM   H17F11806   0.487   6.580   8.647  0.3090  0.1267  1.6622
  113OSM   H17G11807   0.565   6.732   8.586  2.3344 -1.5361  1.3641
  113OSM   C18F11808   0.348   6.710   8.550 -0.9724  0.0000  0.0115
  113OSM   H18F11809   0.338   6.633   8.471 -3.0049 -1.1685  1.3046
  113OSM   H18G11810   0.331   6.813   8.511  0.0735 -0.1524 -0.8684
  113OSM   H18H11811   0.259   6.687   8.614 -2.2236 -0.7007 -1.8970
  114OSM      N11812   3.006   4.014  11.538  0.0573  0.1173  0.2184
  114OSM    C1511813   3.062   4.144  11.507 -0.2306  0.1360 -0.3981
  114OSM   H15A11814   3.037   4.161  11.403  0.2915 -1.3870 -0.8115
  114OSM   H15B11815   3.169   4.152  11.516 -0.3367 -0.1041  1.5349
  114OSM   H15C11816   3.020   4.228  11.560 -2.1797 -0.0452 -1.5374
  114OSM    C1411817   3.075   3.904  11.461 -0.4933 -0.5161  0.6991
  114OSM   H14A11818   3.173   3.888  11.503  0.2386  2.0234  0.1366
  114OSM   H14B11819   3.091   3.927  11.357 -0.4582  0.0746  0.8315
  114OSM   H14C11820   3.014   3.815  11.462 -1.6374  0.1210 -2.3999
  114OSM    C1311821   3.014   3.981  11.682 -1.1037  0.5279 -0.0193
  114OSM   H13A11822   2.952   4.050  11.737 -2.8792 -0.9923  0.0051
  114OSM   H13B11823   3.118   3.986  11.712 -1.1297  0.3568  0.1030
  114OSM   H13C11824   2.969   3.888  11.714  0.2520 -0.7141 -1.5139
  114OSM    C1211825   2.862   4.020  11.485 -0.0439  0.0096 -0.1827
  114OSM   H12A11826   2.873   4.019  11.377  1.7213 -1.1169 -0.0303
  114OSM   H12B11827   2.824   4.121  11.494  1.1764  0.3787  1.0389
  114OSM    C1111828   2.762   3.909  11.524 -0.0501  0.6271  0.0410
  114OSM   H11A11829   2.661   3.937  11.485  0.4366 -1.3837 -2.9191
  114OSM   H11B11830   2.755   3.909  11.635 -0.2453  0.7466  0.0301
  114OSM      P11831   2.730   3.687  11.394 -0.3937 -0.4231 -0.2166
  114OSM    O1311832   2.817   3.566  11.394  0.4481 -0.1400 -0.5269
  114OSM    O1411833   2.590   3.682  11.448  0.2023 -0.4644  0.6728
  114OSM    O1111834   2.724   3.768  11.264 -0.5132  0.8017  0.6966
  114OSM    O1211835   2.813   3.788  11.478  0.5028  0.0876  0.6390
  114OSM    C1S11836   2.791   3.723  11.142  0.3419  0.4530 -1.1178
  114OSM    H1S11837   2.756   3.622  11.112  1.6537 -1.1235  2.2785
  114OSM    H1T11838   2.897   3.720  11.173 -0.4799  0.8000  2.0140
  114OSM     NF11839   2.809   3.747  10.903  0.0127 -0.2491 -0.4178
  114OSM    HNF11840   2.906   3.745  10.882  0.0046  0.3358 -0.5414
  114OSM    C2S11841   2.765   3.821  11.023 -0.6101 -0.2176  0.2934
  114OSM    H2S11842   2.656   3.836  11.013 -0.7618 -0.7057  1.1227
  114OSM    C3S11843   2.850   3.947  11.052  0.8983  0.9658 -0.3150
  114OSM    H3S11844   2.956   3.915  11.044  1.4824  2.7980 -0.3279
  114OSM     O311845   2.839   4.008  11.177  0.2843 -0.1613 -0.3491
  114OSM    HO311846   2.786   3.945  11.228 -1.5729  2.6186  1.4489
  114OSM    C4S11847   2.821   4.038  10.936  0.4114 -0.5771  0.0177
  114OSM    H4S11848   2.901   4.035  10.862  3.0022  1.3872  2.5005
  114OSM    C5S11849   2.718   4.126  10.929  0.1564  0.6135 -0.5596
  114OSM    H5S11850   2.651   4.133  11.015  0.3580 -0.2198 -0.3270
  114OSM    C6S11851   2.697   4.221  10.816  0.5037 -0.1253  0.7254
  114OSM    H6S11852   2.753   4.315  10.837 -0.5810  0.6733  0.1593
  114OSM    H6T11853   2.588   4.241  10.820  0.6607  0.6623  1.2273
  114OSM    C7S11854   2.729   4.169  10.677 -0.2635 -0.7801  0.0715
  114OSM    H7S11855   2.665   4.079  10.687  3.1678 -3.2961  1.0145
  114OSM    H7T11856   2.833   4.136  10.659 -0.2432  0.0567 -1.5060
  114OSM    C8S11857   2.694   4.253  10.557  0.0749 -0.0692 -0.3090
  114OSM    H8S11858   2.769   4.335  10.560 -0.2008  0.1617  1.4038
  114OSM    H8T11859   2.595   4.300  10.573  0.9698  1.4541  1.1164
  114OSM    C9S11860   2.687   4.178  10.424  0.2661 -1.3392 -0.2219
  114OSM    H9S11861   2.603   4.105  10.420 -1.1220  0.2186 -1.4165
  114OSM    H9T11862   2.783   4.125  10.410  1.2238  0.0142  0.9169
  114OSM   C10S11863   2.657   4.276  10.301 -0.4129 -0.1719 -0.6688
  114OSM   H10S11864   2.551   4.310  10.306  0.1788  1.9012 -1.2457
  114OSM   H10T11865   2.659   4.214  10.209 -1.9718 -0.5970 -0.4503
  114OSM   C11S11866   2.751   4.396  10.276 -0.8654  0.1571 -0.5421
  114OSM   H11S11867   2.845   4.369  10.327 -0.9375  2.6145  1.0156
  114OSM   H11T11868   2.705   4.491  10.311 -0.3707  0.6059 -1.0796
  114OSM   C12S11869   2.788   4.403  10.125 -0.7535  0.3930 -0.2761
  114OSM   H12S11870   2.693   4.393  10.069 -0.6739 -2.4885 -0.0176
  114OSM   H12T11871   2.852   4.319  10.093 -0.0254  0.3300  1.2510
  114OSM   C13S11872   2.854   4.535  10.074  0.2086  0.4148 -0.3273
  114OSM   H13S11873   2.958   4.535  10.115  0.0568  1.2667  0.0827
  114OSM   H13T11874   2.803   4.622  10.120  0.7913 -0.4695  2.1864
  114OSM   C14S11875   2.854   4.555   9.920 -0.0292 -0.0429  0.0300
  114OSM   H14S11876   2.751   4.548   9.880 -0.1423  1.0408  0.1004
  114OSM   H14T11877   2.905   4.473   9.866 -1.1732 -0.1781 -0.8635
  114OSM   C15S11878   2.906   4.695   9.883  0.1156  0.1260  0.3860
  114OSM   H15S11879   3.009   4.725   9.911  0.5014 -0.5996 -0.2274
  114OSM   H15T11880   2.839   4.772   9.928 -0.5676  1.6143 -2.8992
  114OSM   C16S11881   2.910   4.723   9.730  0.2563 -0.3107 -0.6233
  114OSM   H16S11882   2.818   4.676   9.690 -0.8574 -0.6323  2.1206
  114OSM   H16T11883   2.995   4.662   9.693 -0.7923 -1.3873 -1.3132
  114OSM   C17S11884   2.950   4.867   9.685 -0.5458  0.4624 -0.1368
  114OSM   H17S11885   3.039   4.892   9.747  0.0456  1.8418 -1.4880
  114OSM   H17T11886   2.880   4.943   9.726  0.7073  1.9673 -0.6819
  114OSM   C18S11887   2.972   4.888   9.539  0.1996 -0.1868  0.7328
  114OSM   H18S11888   2.880   4.881   9.476  0.6447 -0.9843  0.1553
  114OSM   H18T11889   3.031   4.802   9.500 -1.5555 -0.6681 -1.0080
  114OSM   H18U11890   3.031   4.981   9.522 -0.3922  0.4267  1.9401
  114OSM    C1F11891   2.720   3.657  10.847  0.6095  0.3652 -0.0466
  114OSM     OF11892   2.611   3.641  10.905 -0.1117 -0.8388  0.0813
  114OSM    C2F11893   2.753   3.590  10.713  0.1003 -0.3195  0.0787
  114OSM    H2F11894   2.666   3.523  10.700  1.0384 -1.7074  0.6614
  114OSM    H2G11895   2.843   3.530  10.736  0.8146  0.4109 -0.7392
  114OSM    C3F11896   2.783   3.677  10.596 -0.4323 -0.2776  0.4932
  114OSM    H3F11897   2.859   3.755  10.616 -0.1451  0.2266 -2.1542
  114OSM    H3G11898   2.692   3.731  10.561 -0.1927  0.2798  0.7085
  114OSM    C4F11899   2.830   3.590  10.483 -0.0340 -0.2668 -0.2465
  114OSM    H4F11900   2.757   3.542  10.414  1.5088 -0.0992 -2.0973
  114OSM    H4G11901   2.900   3.515  10.524 -0.7556 -0.4753  0.6352
  114OSM    C5F11902   2.912   3.669  10.377 -0.3081 -0.7500 -1.2641
  114OSM    H5F11903   2.926   3.604  10.288  0.0301 -0.3958 -1.4723
  114OSM    H5G11904   3.014   3.697  10.411 -0.8906  0.4532 -0.4202
  114OSM    C6F11905   2.840   3.793  10.326  0.0925  0.2462 -0.2567
  114OSM    H6F11906   2.828   3.881  10.393 -1.0119 -1.0378  1.3048
  114OSM    H6G11907   2.736   3.770  10.293  0.1550 -1.2501  0.5385
  114OSM    C7F11908   2.917   3.851  10.202 -0.4509 -0.1373 -0.1456
  114OSM    H7F11909   2.956   3.773  10.134 -0.8246 -1.4002  1.0467
  114OSM    H7G11910   3.004   3.908  10.242 -0.9230  0.3554  0.1918
  114OSM    C8F11911   2.828   3.945  10.120  0.5628  0.7463  0.0137
  114OSM    H8F11912   2.784   4.010  10.198 -1.6956 -0.7199  0.0689
  114OSM    H8G11913   2.742   3.880  10.092  0.5138 -0.1034  1.9930
  114OSM    C9F11914   2.879   4.026  10.008  0.2778 -0.1160 -0.1787
  114OSM    H9F11915   2.920   4.125  10.035  1.7972 -0.5552 -0.7445
  114OSM   C10F11916   2.897   3.978   9.883  0.0297  0.0839  0.0866
  114OSM   H10F11917   2.928   4.060   9.816  0.6209  3.2258  3.7832
  114OSM   C11F11918   2.868   3.840   9.826  0.0287  0.1723 -0.0322
  114OSM   H11F11919   2.832   3.776   9.910  0.1115 -0.4854 -0.4911
  114OSM   H11G11920   2.955   3.790   9.778  0.7874 -0.7948  2.1845
  114OSM   C12F11921   2.753   3.856   9.719  0.2955  0.6871  0.3505
  114OSM   H12F11922   2.685   3.939   9.746  0.9802  1.2016  0.5407
  114OSM   H12G11923   2.698   3.760   9.708  1.1832 -0.1355  2.3760
  114OSM   C13F11924   2.807   3.897   9.576 -0.8096 -0.0127 -0.0267
  114OSM   H13F11925   2.882   3.821   9.546 -1.2769 -0.1762 -0.8061
  114OSM   H13G11926   2.862   3.992   9.594  0.5888 -0.7976 -0.0042
  114OSM   C14F11927   2.700   3.911   9.473 -0.2942 -0.2229  0.7057
  114OSM   H14F11928   2.621   3.976   9.516  0.9482  3.2932 -1.8260
  114OSM   H14G11929   2.664   3.813   9.435  2.0094 -0.3458 -1.4343
  114OSM   C15F11930   2.747   3.975   9.340 -0.4220 -0.3096  0.4595
  114OSM   H15F11931   2.831   4.043   9.365 -0.0401 -0.1089 -1.2695
  114OSM   H15G11932   2.667   4.032   9.289  0.5292  0.7864  0.1433
  114OSM   C16F11933   2.805   3.869   9.250  0.4029 -0.6247 -0.0172
  114OSM   H16F11934   2.731   3.800   9.205 -0.4268  1.2682 -1.7203
  114OSM   H16G11935   2.884   3.812   9.303  1.0598 -0.3246 -0.6478
  114OSM   C17F11936   2.867   3.933   9.122  0.0656  0.2041  0.0749
  114OSM   H17F11937   2.954   3.998   9.147  2.1433 -1.7815 -1.5300
  114OSM   H17G11938   2.789   3.993   9.071 -0.7712 -0.0144  1.0684
  114OSM   C18F11939   2.915   3.829   9.029  0.6395 -0.2956 -0.1925
  114OSM   H18F11940   2.831   3.767   8.993  1.7707 -1.7546 -0.4429
  114OSM   H18G11941   2.984   3.758   9.079  0.7674 -1.2128 -1.6207
  114OSM   H18H11942   2.968   3.876   8.943 -0.2966  0.2363 -0.4923
  115OSM      N11943   3.745   3.789   6.062 -0.0484 -0.7635 -0.2393
  115OSM    C1511944   3.690   3.712   6.180 -0.3851  0.1257 -0.0505
  115OSM   H15A11945   3.583   3.707   6.168 -0.6212 -1.4926  2.0250
  115OSM   H15B11946   3.711   3.767   6.270 -1.5907 -0.8364  0.8494
  115OSM   H15C11947   3.722   3.612   6.206  0.5982  0.4419 -0.0181
  115OSM    C1411948   3.890   3.819   6.068 -0.2033 -0.1177  0.2165
  115OSM   H14A11949   3.896   3.892   5.989 -1.3214 -1.0961 -0.8039
  115OSM   H14B11950   3.945   3.736   6.027 -1.8906 -0.8587 -0.6198
  115OSM   H14C11951   3.940   3.853   6.158  3.1322  1.1896 -1.9429
  115OSM    C1311952   3.718   3.707   5.941 -0.3415 -0.2404  0.0617
  115OSM   H13A11953   3.611   3.693   5.927 -0.2691  0.2442 -0.9945
  115OSM   H13B11954   3.754   3.606   5.955 -0.0430 -0.1966 -0.4037
  115OSM   H13C11955   3.765   3.747   5.853  1.2205 -1.7591  0.1585
  115OSM    C1211956   3.657   3.911   6.066 -0.2685  0.7346 -0.2845
  115OSM   H12A11957   3.696   3.978   5.991  1.3172 -0.9788 -1.0908
  115OSM   H12B11958   3.676   3.959   6.161  1.0894  2.1510 -1.2205
  115OSM    C1111959   3.498   3.905   6.043  0.0473 -0.1986  0.3504
  115OSM   H11A11960   3.488   3.863   5.940 -0.9178 -2.4924  1.3108
  115OSM   H11B11961   3.459   4.009   6.039 -0.6439 -0.4714 -0.1672
  115OSM      P11962   3.310   3.729   6.083  0.2353 -0.5036 -0.2384
  115OSM    O1311963   3.201   3.827   6.046 -0.1367 -0.1269  0.7290
  115OSM    O1411964   3.358   3.637   5.981 -0.3176  0.4445  0.2171
  115OSM    O1111965   3.254   3.646   6.204 -0.1789  0.0936 -0.7411
  115OSM    O1211966   3.430   3.816   6.133  0.2928  0.1468 -0.7201
  115OSM    C1S11967   3.320   3.652   6.331 -0.6240  0.0625 -0.9360
  115OSM    H1S11968   3.430   3.663   6.320  0.0360 -0.2302  3.5329
  115OSM    H1T11969   3.329   3.550   6.374  5.8788 -0.0878 -1.5477
  115OSM     NF11970   3.315   3.724   6.574  0.1495  0.0512  0.1467
  115OSM    HNF11971   3.259   3.681   6.644 -3.6807  1.8247 -1.5184
  115OSM    C2S11972   3.254   3.752   6.439 -0.2315  0.0285 -0.1438
  115OSM    H2S11973   3.279   3.853   6.401  0.5096  0.7671  2.1101
  115OSM    C3S11974   3.100   3.735   6.445 -0.1560 -0.3438 -0.3995
  115OSM    H3S11975   3.088   3.628   6.416  1.2861 -0.5655 -0.2385
  115OSM     O311976   3.031   3.808   6.339 -0.1169 -0.0648  0.4666
  115OSM    HO311977   3.107   3.825   6.283 -0.2023 -0.1505  0.3258
  115OSM    C4S11978   3.038   3.777   6.575 -0.2232  0.4895 -0.2241
  115OSM    H4S11979   3.025   3.695   6.647 -1.9179  0.1371 -0.8792
  115OSM    C5S11980   3.009   3.900   6.613  0.3517 -0.0171 -0.8299
  115OSM    H5S11981   3.017   3.990   6.550 -1.9271 -0.7117 -2.2198
  115OSM    C6S11982   2.956   3.930   6.747 -0.5982 -0.1151 -0.3948
  115OSM    H6S11983   2.865   3.991   6.726 -0.7823  0.2567  1.3291
  115OSM    H6T11984   3.025   4.006   6.789 -2.0961  0.5476  1.0170
  115OSM    C7S11985   2.919   3.826   6.853  0.5427 -0.6901  0.2249
  115OSM    H7S11986   3.004   3.758   6.871  3.5482  2.7250  0.0929
  115OSM    H7T11987   2.827   3.769   6.828 -0.9846  2.1548 -1.2070
  115OSM    C8S11988   2.887   3.890   6.993 -0.3499 -0.2547 -0.5749
  115OSM    H8S11989   2.798   3.956   6.990 -2.0007 -2.3181  0.7107
  115OSM    H8T11990   2.975   3.952   7.021  0.8172 -2.2215  0.2947
  115OSM    C9S11991   2.862   3.775   7.091 -0.4534  0.1757 -0.7524
  115OSM    H9S11992   2.956   3.716   7.091 -1.2578 -1.3406  2.1995
  115OSM    H9T11993   2.784   3.703   7.056 -0.6189 -0.2339  0.4046
  115OSM   C10S11994   2.810   3.809   7.234 -0.2764  1.1615 -0.1148
  115OSM   H10S11995   2.711   3.856   7.213 -1.3461 -0.2512  1.4136
  115OSM   H10T11996   2.876   3.886   7.278  0.0667  1.1266 -0.5703
  115OSM   C11S11997   2.798   3.689   7.331  0.2121  0.0267 -0.0848
  115OSM   H11S11998   2.891   3.632   7.311  0.2389 -0.3742  1.1466
  115OSM   H11T11999   2.710   3.634   7.290 -0.0661  2.0094 -2.3871
  115OSM   C12S12000   2.792   3.730   7.474  0.8097 -0.9938 -0.0044
  115OSM   H12S12001   2.714   3.806   7.495  1.9791  0.6310 -1.2770
  115OSM   H12T12002   2.885   3.786   7.497 -0.2356  0.7968  0.0705
  115OSM   C13S12003   2.803   3.604   7.557  1.6152 -0.2066  0.4007
  115OSM   H13S12004   2.891   3.544   7.524  0.1692 -1.7669 -0.7851
  115OSM   H13T12005   2.712   3.543   7.540 -0.4867  2.3333  1.6659
  115OSM   C14S12006   2.805   3.627   7.705  0.1595 -0.0120 -1.0514
  115OSM   H14S12007   2.890   3.694   7.732  0.4427  0.2486 -2.5403
  115OSM   H14T12008   2.827   3.528   7.752  0.5062  0.6235  0.1712
  115OSM   C15S12009   2.678   3.692   7.753 -0.3677  0.6707 -0.4556
  115OSM   H15S12010   2.593   3.631   7.715  0.5368 -0.1435 -1.2317
  115OSM   H15T12011   2.674   3.793   7.706  0.2015  1.0669  0.3154
  115OSM   C16S12012   2.690   3.706   7.904  0.0455  0.3370 -0.3363
  115OSM   H16S12013   2.659   3.806   7.941  1.0578 -0.3663  2.6858
  115OSM   H16T12014   2.795   3.701   7.941  0.1799  1.6775 -0.4800
  115OSM   C17S12015   2.604   3.608   7.986 -0.3994  0.3312  0.2263
  115OSM   H17S12016   2.643   3.505   7.974 -0.5041 -0.0924  2.9515
  115OSM   H17T12017   2.504   3.618   7.938  0.8884 -0.4039 -2.8760
  115OSM   C18S12018   2.598   3.629   8.139 -0.2673 -0.1550  0.1746
  115OSM   H18S12019   2.511   3.573   8.181  0.0631 -0.1979  0.8093
  115OSM   H18T12020   2.595   3.736   8.169  2.8900 -0.2864  1.3217
  115OSM   H18U12021   2.684   3.594   8.199  0.7110  0.7605 -0.6435
  115OSM    C1F12022   3.438   3.758   6.592 -0.0317 -0.3314 -0.1525
  115OSM     OF12023   3.501   3.821   6.513 -0.1821 -0.5503  0.3058
  115OSM    C2F12024   3.500   3.712   6.721  0.5724 -0.2196 -0.4042
  115OSM    H2F12025   3.537   3.610   6.699  1.1254  0.5176 -3.3408
  115OSM    H2G12026   3.424   3.705   6.802  0.0540 -0.3567 -0.8971
  115OSM    C3F12027   3.611   3.803   6.771 -0.6427 -0.5861  0.2105
  115OSM    H3F12028   3.571   3.906   6.781  1.6652  0.2038  2.5015
  115OSM    H3G12029   3.693   3.816   6.698 -1.2574  0.4636 -0.3149
  115OSM    C4F12030   3.678   3.766   6.907 -0.2204  0.4425 -0.4560
  115OSM    H4F12031   3.599   3.748   6.983 -0.0606  1.7904  0.0617
  115OSM    H4G12032   3.736   3.854   6.940 -1.5432  1.2192 -0.1162
  115OSM    C5F12033   3.768   3.637   6.899 -0.3190  0.0881 -0.6615
  115OSM    H5F12034   3.831   3.633   6.808 -2.0631 -2.2347 -1.8846
  115OSM    H5G12035   3.705   3.548   6.879 -0.4676 -0.2255  1.1048
  115OSM    C6F12036   3.860   3.622   7.025 -0.0407  0.4520  0.0461
  115OSM    H6F12037   3.801   3.601   7.117 -0.4563 -0.3656 -0.4012
  115OSM    H6G12038   3.926   3.707   7.051 -2.0876  1.4504  2.3518
  115OSM    C7F12039   3.960   3.501   7.008 -0.1766  0.0937  0.3514
  115OSM    H7F12040   4.035   3.516   7.089  0.6066 -1.7838  0.0099
  115OSM    H7G12041   4.015   3.515   6.913  0.3202 -1.3589  0.4064
  115OSM    C8F12042   3.890   3.366   7.016 -0.4420  0.1102 -0.1572
  115OSM    H8F12043   3.816   3.362   6.933  0.6995 -0.6087 -1.1779
  115OSM    H8G12044   3.836   3.374   7.112  3.0721  2.4313  1.8313
  115OSM    C9F12045   3.994   3.253   7.013  0.5637  0.1522 -0.0255
  115OSM    H9F12046   4.017   3.221   6.910 -2.5616 -0.0672 -0.7562
  115OSM   C10F12047   4.025   3.173   7.119 -0.3997  0.0945 -0.4659
  115OSM   H10F12048   4.097   3.090   7.103  1.3938  0.9937  2.2964
  115OSM   C11F12049   3.981   3.185   7.269  0.4900 -0.3076 -0.1545
  115OSM   H11F12050   3.920   3.094   7.288  1.7653 -1.4206 -1.1610
  115OSM   H11G12051   3.907   3.267   7.280 -0.2129 -0.8675 -0.5900
  115OSM   C12F12052   4.095   3.213   7.369  1.0567 -0.3206  0.3678
  115OSM   H12F12053   4.113   3.323   7.374  1.2416 -0.3412  0.1922
  115OSM   H12G12054   4.189   3.159   7.347  1.4671  0.0357  1.1728
  115OSM   C13F12055   4.042   3.183   7.510  0.5518 -0.0509  0.0811
  115OSM   H13F12056   4.021   3.074   7.521 -2.3050  0.0091 -3.0749
  115OSM   H13G12057   3.939   3.224   7.516 -0.0175 -0.9698 -2.3024
  115OSM   C14F12058   4.136   3.237   7.624  0.2091  0.4141  0.4916
  115OSM   H14F12059   4.141   3.348   7.614  0.0113  0.3788 -0.0276
  115OSM   H14G12060   4.239   3.204   7.598 -0.4024 -1.9342  0.8767
  115OSM   C15F12061   4.086   3.191   7.763  0.5089 -0.3260  0.8712
  115OSM   H15F12062   4.093   3.080   7.767  0.7672 -0.2788  3.6493
  115OSM   H15G12063   3.978   3.217   7.763  0.5717 -0.0529  0.5365
  115OSM   C16F12064   4.153   3.244   7.883  0.1848  0.0208 -0.8622
  115OSM   H16F12065   4.103   3.188   7.964  1.0076 -1.6028 -1.4469
  115OSM   H16G12066   4.120   3.349   7.901 -4.5131 -1.4691  0.7530
  115OSM   C17F12067   4.309   3.220   7.899  0.5698 -0.0255 -0.7582
  115OSM   H17F12068   4.346   3.280   7.984 -2.9137  0.9072  0.2450
  115OSM   H17G12069   4.354   3.266   7.808  2.4760  1.2870  0.7513
  115OSM   C18F12070   4.349   3.083   7.926  0.6817  1.0418  0.1634
  115OSM   H18F12071   4.299   3.028   8.009  0.1953  0.5528 -0.4531
  115OSM   H18G12072   4.459   3.067   7.936  0.4773 -0.2358  0.6945
  115OSM   H18H12073   4.330   3.028   7.831  1.0375  0.5261  0.3791
  116OSM      N12074   2.392   6.827   6.111 -0.4593  0.2494  0.1426
  116OSM    C1512075   2.500   6.855   6.014  0.2001  0.5637  0.0705
  116OSM   H15A12076   2.499   6.958   5.981 -0.5174  0.5822  0.1420
  116OSM   H15B12077   2.491   6.793   5.926 -0.5134  0.6836  0.0581
  116OSM   H15C12078   2.594   6.833   6.064 -0.2222 -0.5194  0.4170
  116OSM    C1412079   2.390   6.924   6.219  0.3832 -0.4668 -0.4015
  116OSM   H14A12080   2.384   7.024   6.178  0.7778 -0.3489 -0.1742
  116OSM   H14B12081   2.482   6.919   6.275  0.0413  1.4127  0.4065
  116OSM   H14C12082   2.307   6.920   6.289  0.6287 -0.2876 -0.0980
  116OSM    C1312083   2.264   6.843   6.028  0.0619 -0.3692  0.0840
  116OSM   H13A12084   2.251   6.767   5.952 -0.5480 -1.0031  0.8026
  116OSM   H13B12085   2.259   6.938   5.978 -1.1492 -0.1397  0.5931
  116OSM   H13C12086   2.173   6.842   6.087  1.2583 -0.4329  2.0091
  116OSM    C1212087   2.400   6.690   6.167 -0.5891  0.2373  0.2957
  116OSM   H12A12088   2.401   6.617   6.087  0.9995  1.1983 -0.6184
  116OSM   H12B12089   2.313   6.663   6.225  0.9562 -0.3568  2.4730
  116OSM    C1112090   2.526   6.644   6.246  0.0911  0.2546  0.2707
  116OSM   H11A12091   2.497   6.554   6.304  0.1560  1.5555  2.4230
  116OSM   H11B12092   2.548   6.712   6.331  2.0779 -2.6303  2.2820
  116OSM      P12093   2.789   6.666   6.195  0.0541  0.2660 -0.1687
  116OSM    O1312094   2.873   6.548   6.157 -0.4292 -0.0082 -0.2036
  116OSM    O1412095   2.815   6.798   6.132  0.1566 -0.2762  0.3081
  116OSM    O1112096   2.788   6.680   6.355 -0.7169  0.8304  0.0951
  116OSM    O1212097   2.642   6.630   6.163 -0.0794  0.2661 -0.2355
  116OSM    C1S12098   2.765   6.551   6.427  0.9215  0.3826 -0.6215
  116OSM    H1S12099   2.852   6.483   6.414  0.8327  0.5289 -2.0930
  116OSM    H1T12100   2.680   6.493   6.387  0.5705  1.5370 -1.6129
  116OSM     NF12101   2.719   6.433   6.645 -0.4214  0.0999  0.0942
  116OSM    HNF12102   2.621   6.414   6.658 -0.5169 -0.3054 -1.0526
  116OSM    C2S12103   2.749   6.564   6.586 -0.0829 -0.1509  0.8729
  116OSM    H2S12104   2.847   6.590   6.631  0.0201  1.2880 -0.1239
  116OSM    C3S12105   2.647   6.677   6.629  0.1238  1.2343 -0.0125
  116OSM    H3S12106   2.548   6.644   6.590  1.6758 -2.8588 -1.0188
  116OSM     O312107   2.676   6.802   6.570  0.7659  0.0494  0.5564
  116OSM    HO312108   2.744   6.780   6.506 -0.4889 -1.6701 -0.2783
  116OSM    C4S12109   2.647   6.693   6.778 -0.2434  0.3267  0.0233
  116OSM    H4S12110   2.587   6.615   6.827  0.7751 -0.2572  0.3679
  116OSM    C5S12111   2.708   6.785   6.854 -0.3681  0.0873 -0.2746
  116OSM    H5S12112   2.767   6.862   6.802 -1.4797  1.6888  0.7302
  116OSM    C6S12113   2.712   6.793   7.004  0.4171 -0.3051  0.0369
  116OSM    H6S12114   2.812   6.834   7.032 -0.8689  3.5252 -0.4433
  116OSM    H6T12115   2.722   6.690   7.045 -0.5641 -0.5989 -0.4279
  116OSM    C7S12116   2.594   6.855   7.073 -0.1575 -0.0166  0.2482
  116OSM    H7S12117   2.504   6.804   7.032  0.1874 -0.3019 -0.1608
  116OSM    H7T12118   2.590   6.963   7.043 -1.3884 -0.7825 -2.7757
  116OSM    C8S12119   2.603   6.840   7.223 -0.1631  0.8263 -0.5179
  116OSM    H8S12120   2.619   6.736   7.258 -2.9136 -0.7270 -3.3635
  116OSM    H8T12121   2.506   6.873   7.266 -0.0424 -0.9054  1.2255
  116OSM    C9S12122   2.692   6.942   7.292 -0.5192 -0.4188  0.1825
  116OSM    H9S12123   2.693   7.032   7.228 -1.4194 -0.2409  0.3999
  116OSM    H9T12124   2.793   6.896   7.295 -0.0456  0.2907 -2.3066
  116OSM   C10S12125   2.669   6.982   7.436 -0.4042 -0.3175  0.6872
  116OSM   H10S12126   2.587   7.056   7.446  0.6345  1.0181 -0.2720
  116OSM   H10T12127   2.760   7.036   7.471  0.9154 -1.5813 -0.6451
  116OSM   C11S12128   2.650   6.852   7.525  0.6728  0.0787 -0.6893
  116OSM   H11S12129   2.740   6.788   7.517  0.4422 -0.2113 -1.0181
  116OSM   H11T12130   2.554   6.810   7.487  0.6343  1.0581 -1.7178
  116OSM   C12S12131   2.610   6.898   7.668 -0.6755  0.1699 -0.1939
  116OSM   H12S12132   2.521   6.964   7.667  0.7252  2.1310 -1.2260
  116OSM   H12T12133   2.687   6.972   7.700  2.6783 -1.4975 -3.6204
  116OSM   C13S12134   2.601   6.782   7.765 -0.0335  0.8341 -0.2387
  116OSM   H13S12135   2.701   6.736   7.783 -0.2189  0.0511 -1.1328
  116OSM   H13T12136   2.540   6.702   7.719  1.5913 -0.1943 -0.6979
  116OSM   C14S12137   2.526   6.815   7.901  0.4861 -0.5577 -0.2626
  116OSM   H14S12138   2.429   6.859   7.870  0.7855  0.6727  0.4786
  116OSM   H14T12139   2.573   6.900   7.954  0.3244 -0.3729 -0.4156
  116OSM   C15S12140   2.502   6.701   7.990  0.3678  0.1178 -0.4429
  116OSM   H15S12141   2.606   6.669   8.014  0.8183 -0.6519 -3.0763
  116OSM   H15T12142   2.459   6.611   7.941 -2.0386 -1.0048  3.2813
  116OSM   C16S12143   2.417   6.733   8.116  0.3950  0.3624 -0.8866
  116OSM   H16S12144   2.362   6.645   8.153  4.5860 -1.4244  1.8543
  116OSM   H16T12145   2.337   6.807   8.092 -1.6553 -1.6818 -0.7116
  116OSM   C17S12146   2.496   6.768   8.237  0.1987  0.2393  0.7818
  116OSM   H17S12147   2.546   6.865   8.220  0.6995 -0.4259 -2.3093
  116OSM   H17T12148   2.577   6.693   8.251 -2.2168 -2.8638 -0.5185
  116OSM   C18S12149   2.409   6.778   8.363  0.0793 -0.3103  0.0019
  116OSM   H18S12150   2.329   6.854   8.354 -0.3684 -0.5816  1.4214
  116OSM   H18T12151   2.459   6.833   8.446 -0.8065 -0.7328  0.8383
  116OSM   H18U12152   2.364   6.688   8.411 -1.6157  0.1782 -0.5999
  116OSM    C1F12153   2.806   6.335   6.654 -0.3117 -0.4103 -0.8641
  116OSM     OF12154   2.922   6.362   6.625 -0.2121  0.4410 -0.1106
  116OSM    C2F12155   2.771   6.196   6.698  0.0142 -0.6847 -0.0359
  116OSM    H2F12156   2.832   6.117   6.649 -0.2388 -0.8735 -0.0538
  116OSM    H2G12157   2.662   6.187   6.677 -0.3049  4.8891 -2.5111
  116OSM    C3F12158   2.798   6.176   6.855  0.0905 -0.4843 -0.0719
  116OSM    H3F12159   2.905   6.207   6.856 -0.4227  1.4903 -1.0601
  116OSM    H3G12160   2.780   6.071   6.886 -3.3866  0.3758  1.2279
  116OSM    C4F12161   2.726   6.278   6.949  0.5171 -0.0347  0.4959
  116OSM    H4F12162   2.624   6.237   6.967  0.1527 -0.0159 -1.2670
  116OSM    H4G12163   2.728   6.384   6.916 -0.6070  0.1241  0.9067
  116OSM    C5F12164   2.798   6.275   7.090  0.4089 -0.2567  0.3806
  116OSM    H5F12165   2.905   6.290   7.063 -0.3927  1.3501 -2.2730
  116OSM    H5G12166   2.788   6.173   7.132  1.8699  0.0123  1.4476
  116OSM    C6F12167   2.748   6.373   7.194 -0.2410  0.0821 -0.0036
  116OSM    H6F12168   2.639   6.355   7.205 -0.1821  0.2827  1.0182
  116OSM    H6G12169   2.769   6.478   7.163 -3.0328  0.9279  0.6720
  116OSM    C7F12170   2.816   6.353   7.335 -0.5466  0.1398  0.3068
  116OSM    H7F12171   2.927   6.347   7.329 -0.6463 -0.3955 -1.7816
  116OSM    H7G12172   2.774   6.254   7.363  0.2303 -1.0540 -2.3782
  116OSM    C8F12173   2.781   6.466   7.434 -0.7575 -0.0032  0.3099
  116OSM    H8F12174   2.789   6.565   7.385 -0.7222 -0.6940 -1.1462
  116OSM    H8G12175   2.858   6.463   7.514  0.3914 -1.6446 -0.7831
  116OSM    C9F12176   2.642   6.461   7.494 -0.2763 -0.5972 -0.1805
  116OSM    H9F12177   2.570   6.471   7.412  0.5008 -3.0385 -1.2649
  116OSM   C10F12178   2.615   6.430   7.622 -0.2901  0.2684 -0.0919
  116OSM   H10F12179   2.508   6.436   7.647 -0.9216 -0.2664 -2.4438
  116OSM   C11F12180   2.714   6.392   7.728 -0.2463 -0.1872  0.2710
  116OSM   H11F12181   2.762   6.487   7.760  1.0645 -0.8208  0.2584
  116OSM   H11G12182   2.785   6.317   7.689 -0.8881 -0.3872 -0.5335
  116OSM   C12F12183   2.635   6.341   7.854 -0.7586  0.2393  0.0537
  116OSM   H12F12184   2.625   6.232   7.834  1.4927  0.0390 -0.3173
  116OSM   H12G12185   2.534   6.384   7.869 -0.6249  0.8367 -0.6986
  116OSM   C13F12186   2.718   6.358   7.981 -0.3544 -0.4827  0.0708
  116OSM   H13F12187   2.747   6.464   7.991 -2.4477  0.2689 -1.0380
  116OSM   H13G12188   2.804   6.288   7.979 -1.9230 -2.5610  0.8578
  116OSM   C14F12189   2.647   6.293   8.105 -0.2255 -0.2227  0.2968
  116OSM   H14F12190   2.614   6.193   8.068  2.4443 -1.4036  0.9137
  116OSM   H14G12191   2.555   6.354   8.122 -2.5913 -4.0781  3.2202
  116OSM   C15F12192   2.724   6.283   8.237  0.0143  0.5016 -0.5830
  116OSM   H15F12193   2.734   6.387   8.273  0.0281  0.1467  0.4757
  116OSM   H15G12194   2.826   6.255   8.203 -0.4070 -1.6980 -0.1741
  116OSM   C16F12195   2.653   6.203   8.343  0.2823  0.4421 -0.8498
  116OSM   H16F12196   2.716   6.200   8.435  0.6828 -1.6898 -1.1449
  116OSM   H16G12197   2.646   6.094   8.324 -0.6357  0.5980 -1.4600
  116OSM   C17F12198   2.517   6.257   8.389  0.3070  0.0205  0.2058
  116OSM   H17F12199   2.496   6.189   8.473  0.9925 -0.8801 -0.3342
  116OSM   H17G12200   2.446   6.242   8.305  0.4113  0.7525 -0.0204
  116OSM   C18F12201   2.515   6.399   8.442 -0.3338 -0.6466  0.2634
  116OSM   H18F12202   2.411   6.429   8.466 -1.2490 -1.1731 -2.7037
  116OSM   H18G12203   2.546   6.461   8.355 -1.0620  1.8472  1.6791
  116OSM   H18H12204   2.584   6.413   8.528  1.8328 -2.2247 -1.1434
  117OSM      N12205   0.074   6.517   6.005 -0.3302 -0.3424  0.4701
  117OSM    C1512206   0.195   6.535   5.916  0.1285 -0.3298  0.0498
  117OSM   H15A12207   0.174   6.619   5.851  0.7104 -0.2426 -0.0309
  117OSM   H15B12208   0.214   6.456   5.845  1.8761  1.5702 -1.7354
  117OSM   H15C12209   0.283   6.545   5.978  0.1324  0.6123 -0.0942
  117OSM    C1412210   0.041   6.648   6.073  0.2450  0.2009  0.3809
  117OSM   H14A12211   0.013   6.722   5.999 -0.3616 -0.2805  0.1154
  117OSM   H14B12212   0.132   6.686   6.116  1.4310  0.2025 -2.0258
  117OSM   H14C12213  -0.039   6.623   6.142 -0.3287 -0.9806 -0.6736
  117OSM    C1312214  -0.045   6.473   5.926  0.4384  0.4643 -0.4787
  117OSM   H13A12215  -0.056   6.543   5.845  1.9397  0.3380 -0.8257
  117OSM   H13B12216  -0.138   6.479   5.981  2.1444  1.8665  2.5390
  117OSM   H13C12217  -0.028   6.370   5.897 -2.4138 -0.0927 -0.4734
  117OSM    C1212218   0.098   6.408   6.110 -0.3295 -1.0013  0.0889
  117OSM   H12A12219   0.136   6.319   6.062  3.8884  0.1669  0.8936
  117OSM   H12B12220  -0.000   6.383   6.149 -1.4482  0.7966 -1.4343
  117OSM    C1112221   0.176   6.448   6.238  0.1764  0.3361  0.1752
  117OSM   H11A12222   0.167   6.352   6.294  0.6566 -2.0656 -3.5325
  117OSM   H11B12223   0.129   6.528   6.299  1.3719 -0.2468  1.9352
  117OSM      P12224   0.391   6.597   6.232  0.1357 -0.1969  0.1568
  117OSM    O1312225   0.535   6.573   6.220 -0.0195 -0.1548  0.0346
  117OSM    O1412226   0.333   6.710   6.159  0.7647  0.0794  0.1386
  117OSM    O1112227   0.358   6.611   6.385  0.5677  0.2538 -0.1805
  117OSM    O1212228   0.311   6.464   6.202 -0.5502 -0.3290  0.4101
  117OSM    C1S12229   0.405   6.516   6.479 -0.2844  0.2560 -0.0979
  117OSM    H1S12230   0.508   6.485   6.453 -1.1201 -1.3455 -1.8059
  117OSM    H1T12231   0.336   6.429   6.483  0.0406 -0.1631 -2.3867
  117OSM     NF12232   0.467   6.455   6.710  0.2946  0.8517  0.1230
  117OSM    HNF12233   0.407   6.388   6.753  0.6960  2.3484  3.2993
  117OSM    C2S12234   0.411   6.564   6.626 -0.1443 -0.4100 -0.3122
  117OSM    H2S12235   0.482   6.650   6.621  3.5439 -3.2254 -0.5719
  117OSM    C3S12236   0.278   6.615   6.678 -0.3980 -0.3972  0.0449
  117OSM    H3S12237   0.208   6.529   6.666 -0.5728 -0.3943  1.0035
  117OSM     O312238   0.213   6.719   6.603  0.4039  0.5845 -0.0043
  117OSM    HO312239   0.269   6.713   6.526  0.4412  0.6032  0.0216
  117OSM    C4S12240   0.285   6.649   6.826  0.3362  0.2965 -0.8190
  117OSM    H4S12241   0.259   6.565   6.892  0.4500 -0.4031 -1.6460
  117OSM    C5S12242   0.314   6.770   6.879  0.6562  0.3801  0.4686
  117OSM    H5S12243   0.327   6.854   6.809 -0.1807 -0.7769 -1.1526
  117OSM    C6S12244   0.320   6.801   7.025  0.3676 -0.2685  0.2212
  117OSM    H6S12245   0.259   6.892   7.046  0.4402 -0.1004 -0.2848
  117OSM    H6T12246   0.423   6.836   7.045 -0.4084  1.9063  0.7299
  117OSM    C7S12247   0.277   6.693   7.129  0.0373  0.2537  1.2647
  117OSM    H7S12248   0.334   6.601   7.107 -0.9300 -0.0514 -0.0532
  117OSM    H7T12249   0.168   6.679   7.119  0.3932 -1.1336 -1.6546
  117OSM    C8S12250   0.311   6.747   7.258 -0.7051  0.1331 -0.5085
  117OSM    H8S12251   0.271   6.850   7.273  0.1754  0.2597  1.1421
  117OSM    H8T12252   0.422   6.756   7.262 -0.4312 -2.6328  0.0154
  117OSM    C9S12253   0.249   6.663   7.371  0.3605  0.0199  0.3773
  117OSM    H9S12254   0.293   6.561   7.365 -0.3024 -0.2043 -1.0686
  117OSM    H9T12255   0.139   6.653   7.357  0.5283 -0.7292 -0.4443
  117OSM   C10S12256   0.283   6.709   7.510  0.1196  0.1777 -0.4005
  117OSM   H10S12257   0.233   6.806   7.532 -0.5270  0.6741 -3.5947
  117OSM   H10T12258   0.392   6.731   7.516 -0.0173  0.8389 -0.2743
  117OSM   C11S12259   0.238   6.599   7.608 -0.4309  0.7635 -0.9154
  117OSM   H11S12260   0.277   6.497   7.591 -0.1161  0.9623 -1.3834
  117OSM   H11T12261   0.127   6.595   7.597 -0.5038  0.6483 -0.1974
  117OSM   C12S12262   0.278   6.618   7.757 -0.5303  0.2085  0.1271
  117OSM   H12S12263   0.231   6.715   7.784 -2.5977 -1.0714  1.3436
  117OSM   H12T12264   0.388   6.626   7.774 -0.2158  0.4882 -1.7971
  117OSM   C13S12265   0.231   6.504   7.844  0.1340  0.3220  0.1302
  117OSM   H13S12266   0.273   6.409   7.804 -0.3699 -0.4633  1.4253
  117OSM   H13T12267   0.124   6.513   7.817 -0.0045 -0.4685  0.3766
  117OSM   C14S12268   0.257   6.527   7.993 -0.3767 -0.0669 -0.1019
  117OSM   H14S12269   0.199   6.620   8.012  1.0378  0.7603  0.3729
  117OSM   H14T12270   0.362   6.564   7.997  0.3571 -1.2497 -3.8257
  117OSM   C15S12271   0.216   6.414   8.087  0.6387  0.2803 -0.4254
  117OSM   H15S12272   0.125   6.357   8.061 -1.0960  0.3810  4.4180
  117OSM   H15T12273   0.186   6.473   8.176  0.7369  1.1863 -0.9820
  117OSM   C16S12274   0.328   6.313   8.125 -0.0179  0.5980 -0.2908
  117OSM   H16S12275   0.340   6.240   8.043 -0.1395 -1.9764  1.8411
  117OSM   H16T12276   0.295   6.266   8.220 -2.7491  0.1878 -1.3716
  117OSM   C17S12277   0.467   6.371   8.157 -0.1711  0.1830  0.3297
  117OSM   H17S12278   0.518   6.411   8.067  2.5567 -2.6193  0.4730
  117OSM   H17T12279   0.525   6.281   8.187 -0.9618  0.2025  2.0347
  117OSM   C18S12280   0.459   6.483   8.269 -0.8467  0.7489  0.9996
  117OSM   H18S12281   0.428   6.435   8.365 -1.9803  0.0566  0.3148
  117OSM   H18T12282   0.393   6.562   8.228  0.9770  0.2070 -3.5216
  117OSM   H18U12283   0.560   6.527   8.285  0.0943 -0.9597  0.1349
  117OSM    C1F12284   0.593   6.418   6.689  0.3002  1.1756 -0.7571
  117OSM     OF12285   0.672   6.499   6.648 -0.1988 -0.5425 -0.1393
  117OSM    C2F12286   0.630   6.270   6.715 -0.9623 -0.1214 -1.1532
  117OSM    H2F12287   0.653   6.229   6.614 -2.6348  1.0949 -2.0953
  117OSM    H2G12288   0.538   6.220   6.752 -0.3260 -1.1474 -0.9222
  117OSM    C3F12289   0.758   6.263   6.815  0.4280  0.4383  0.3252
  117OSM    H3F12290   0.724   6.326   6.900  1.9488  0.4205  0.9752
  117OSM    H3G12291   0.846   6.314   6.770 -0.1057  0.0225 -1.2718
  117OSM    C4F12292   0.785   6.118   6.866  0.0826 -0.2759 -0.3217
  117OSM    H4F12293   0.801   6.047   6.781 -0.1240 -1.3643  0.5295
  117OSM    H4G12294   0.690   6.088   6.916 -1.1656  1.9805 -1.2004
  117OSM    C5F12295   0.913   6.118   6.948 -0.3132  0.0122 -0.0990
  117OSM    H5F12296   0.988   6.167   6.882 -0.4396  2.8161  1.6548
  117OSM    H5G12297   0.965   6.020   6.954  1.2659  0.8765  1.0422
  117OSM    C6F12298   0.921   6.188   7.082 -0.3475  0.6289 -0.5539
  117OSM    H6F12299   0.858   6.128   7.152  0.4712 -1.2505 -1.3514
  117OSM    H6G12300   0.867   6.285   7.081 -0.8506  0.5331  3.1254
  117OSM    C7F12301   1.064   6.191   7.136 -0.3778  0.4649 -0.1257
  117OSM    H7F12302   1.138   6.243   7.071  0.4798 -0.1752  0.3334
  117OSM    H7G12303   1.101   6.087   7.123 -1.2802  0.0519  0.5352
  117OSM    C8F12304   1.064   6.234   7.282 -0.5458  0.0262 -0.0289
  117OSM    H8F12305   0.981   6.188   7.339 -0.0490 -0.3488  0.4001
  117OSM    H8G12306   1.040   6.342   7.291  1.6884  0.4314  2.3266
  117OSM    C9F12307   1.202   6.215   7.344 -0.3460 -0.3737 -0.5386
  117OSM    H9F12308   1.283   6.251   7.278 -1.6485  0.6670 -1.6245
  117OSM   C10F12309   1.226   6.161   7.464 -0.2271 -0.3316 -0.2872
  117OSM   H10F12310   1.327   6.126   7.492 -0.4554 -1.8946 -1.2659
  117OSM   C11F12311   1.126   6.117   7.559  0.8441  0.1551  0.2742
  117OSM   H11F12312   1.080   6.017   7.542 -0.1642  0.3955  1.4586
  117OSM   H11G12313   1.045   6.192   7.572 -0.3976 -0.9342 -0.9208
  117OSM   C12F12314   1.195   6.097   7.700  1.6906 -0.0351 -0.4307
  117OSM   H12F12315   1.257   6.188   7.720  1.1319 -0.1763  2.4372
  117OSM   H12G12316   1.265   6.011   7.691 -0.4835 -1.8495 -0.8513
  117OSM   C13F12317   1.084   6.088   7.809  0.3971  0.5910  0.1524
  117OSM   H13F12318   1.016   6.003   7.789  0.6255  0.7064 -1.2277
  117OSM   H13G12319   1.004   6.165   7.801 -1.7511 -1.2384  2.6922
  117OSM   C14F12320   1.149   6.084   7.944 -0.5328 -0.0961  0.4453
  117OSM   H14F12321   1.224   6.163   7.967 -0.1780 -0.4191  0.4028
  117OSM   H14G12322   1.204   5.988   7.951  1.6763  1.1819  1.7415
  117OSM   C15F12323   1.049   6.086   8.060  0.7232  0.1933 -0.1118
  117OSM   H15F12324   0.980   6.006   8.027  0.7232 -0.1271  0.6377
  117OSM   H15G12325   0.989   6.180   8.058 -0.5889 -0.6438 -2.6280
  117OSM   C16F12326   1.097   6.063   8.194 -0.5202  0.3792 -0.5997
  117OSM   H16F12327   1.182   6.133   8.210  2.4065 -2.7126 -1.2536
  117OSM   H16G12328   1.155   5.968   8.199 -0.1947  0.6090  0.1520
  117OSM   C17F12329   0.993   6.062   8.306  0.0532  0.0761  1.0498
  117OSM   H17F12330   0.961   6.169   8.302 -0.4682 -0.0788  1.0537
  117OSM   H17G12331   0.903   6.001   8.285  0.6694 -0.6148  0.3627
  117OSM   C18F12332   1.052   6.049   8.448  0.4205 -0.1554  0.3063
  117OSM   H18F12333   1.149   6.101   8.459  0.6412 -0.0553 -1.7072
  117OSM   H18G12334   1.071   5.942   8.470  0.2499 -0.1288  0.5856
  117OSM   H18H12335   0.974   6.081   8.520  1.4577 -1.4249  2.0688
  118OSM      N12336   4.553   3.801   5.939 -0.1521  0.0037 -0.0611
  118OSM    C1512337   4.685   3.862   5.968  0.2892  0.3154 -0.4933
  118OSM   H15A12338   4.757   3.782   5.975  2.2293  2.0854  1.3146
  118OSM   H15B12339   4.686   3.916   6.062 -0.7989 -1.5712  0.6519
  118OSM   H15C12340   4.714   3.916   5.879  0.1650 -0.7404 -1.1820
  118OSM    C1412341   4.553   3.734   5.803 -0.5248 -0.1360 -0.3989
  118OSM   H14A12342   4.550   3.807   5.724  2.6118 -2.3045 -2.7953
  118OSM   H14B12343   4.480   3.657   5.786  0.8891 -1.7345  0.4344
  118OSM   H14C12344   4.652   3.690   5.796  0.0808  0.7393  1.7397
  118OSM    C1312345   4.546   3.692   6.047  0.1016 -0.5335  0.3417
  118OSM   H13A12346   4.453   3.636   6.040 -1.3498  1.9110 -1.2674
  118OSM   H13B12347   4.555   3.733   6.147 -2.2173 -0.2865  0.5175
  118OSM   H13C12348   4.604   3.603   6.031  0.1770 -0.3566 -0.3816
  118OSM    C1212349   4.432   3.897   5.953 -0.5461  0.5436 -0.1694
  118OSM   H12A12350   4.420   3.927   6.056 -1.7776 -0.3800 -0.0152
  118OSM   H12B12351   4.346   3.834   5.935  0.9045 -1.6682  0.2422
  118OSM    C1112352   4.416   4.025   5.859  0.0518 -0.3927  0.3105
  118OSM   H11A12353   4.318   4.073   5.878 -0.3192 -1.2649  0.6479
  118OSM   H11B12354   4.425   4.001   5.750 -2.7291 -3.0203  0.5342
  118OSM      P12355   4.508   4.210   6.021  0.3896  0.0010  0.1991
  118OSM    O1312356   4.595   4.155   6.128  0.2402 -0.3245 -0.6392
  118OSM    O1412357   4.536   4.344   5.965 -0.4778 -0.3861 -0.1164
  118OSM    O1112358   4.354   4.204   6.063 -0.6199  0.0751  0.3013
  118OSM    O1212359   4.511   4.118   5.896  0.6249 -0.4192  0.0734
  118OSM    C1S12360   4.293   4.151   6.177 -0.6510  0.7846 -0.5857
  118OSM    H1S12361   4.345   4.059   6.212 -0.6299  0.6961 -0.8459
  118OSM    H1T12362   4.190   4.123   6.144  0.4183 -3.0614 -1.1637
  118OSM     NF12363   4.263   4.176   6.423  0.5153 -0.0550  0.2238
  118OSM    HNF12364   4.167   4.188   6.449  0.6653  0.7067  0.4455
  118OSM    C2S12365   4.304   4.241   6.305  0.4738 -0.3512  0.0681
  118OSM    H2S12366   4.410   4.275   6.316  0.4475  0.4209 -1.7604
  118OSM    C3S12367   4.223   4.368   6.274  0.4561 -0.4347  0.4122
  118OSM    H3S12368   4.115   4.346   6.260 -0.3449  3.1565 -0.1779
  118OSM     O312369   4.278   4.440   6.165  0.2428 -0.3784 -0.2507
  118OSM    HO312370   4.342   4.386   6.118 -0.4975  0.8476 -2.8363
  118OSM    C4S12371   4.222   4.454   6.402  0.0966  0.2814  0.2052
  118OSM    H4S12372   4.319   4.443   6.454 -1.1140 -0.7877  2.3945
  118OSM    C5S12373   4.125   4.531   6.443  0.5416 -0.4279  0.1163
  118OSM    H5S12374   4.033   4.546   6.385 -1.0814 -0.5781  2.4924
  118OSM    C6S12375   4.116   4.600   6.578  0.5681  0.1136  0.0079
  118OSM    H6S12376   4.057   4.694   6.574 -1.2411 -1.0018 -0.2598
  118OSM    H6T12377   4.216   4.628   6.620  1.4774  0.6301 -2.3182
  118OSM    C7S12378   4.047   4.518   6.688  0.6867  0.8300  1.0702
  118OSM    H7S12379   4.066   4.408   6.680  0.3681  0.6979  2.0025
  118OSM    H7T12380   3.937   4.516   6.675  0.5599 -3.3871  1.4895
  118OSM    C8S12381   4.073   4.574   6.832  0.0316  0.3660 -0.2018
  118OSM    H8S12382   3.980   4.555   6.890 -0.4370  0.3807 -0.9277
  118OSM    H8T12383   4.086   4.683   6.817  2.2503  0.0070 -1.3696
  118OSM    C9S12384   4.186   4.519   6.914 -0.3400  0.7921 -0.3475
  118OSM    H9S12385   4.287   4.539   6.872  0.3007  2.1613  1.6844
  118OSM    H9T12386   4.189   4.408   6.905  1.8235  0.6696  1.0180
  118OSM   C10S12387   4.173   4.570   7.054  0.2069  0.2932 -0.4762
  118OSM   H10S12388   4.076   4.544   7.102  1.3775 -2.1730  0.7629
  118OSM   H10T12389   4.188   4.680   7.060 -1.1959  0.4409  1.2826
  118OSM   C11S12390   4.284   4.521   7.153 -0.3515  0.0580 -0.4389
  118OSM   H11S12391   4.375   4.519   7.090  2.2882 -0.8216  3.0440
  118OSM   H11T12392   4.259   4.416   7.180 -0.5837 -0.3645 -2.1932
  118OSM   C12S12393   4.302   4.598   7.283  0.5533  0.7665 -0.4804
  118OSM   H12S12394   4.202   4.604   7.331  0.3861  1.4295 -0.9066
  118OSM   H12T12395   4.341   4.698   7.253 -0.1260  0.7255 -1.5534
  118OSM   C13S12396   4.387   4.522   7.382 -0.5726  0.4046 -0.1453
  118OSM   H13S12397   4.479   4.485   7.331 -0.0136  0.9306  0.4649
  118OSM   H13T12398   4.332   4.438   7.429  1.2796  0.3992  2.2323
  118OSM   C14S12399   4.423   4.607   7.510 -0.5325  0.1451  0.2846
  118OSM   H14S12400   4.330   4.641   7.561 -0.3806  2.1243 -0.6249
  118OSM   H14T12401   4.474   4.700   7.475 -1.0167  0.4719  0.4393
  118OSM   C15S12402   4.514   4.543   7.619 -0.2078 -0.0789 -0.2294
  118OSM   H15S12403   4.606   4.500   7.575 -0.2282  0.2841 -0.6241
  118OSM   H15T12404   4.462   4.454   7.662  0.7496 -0.0999  0.9438
  118OSM   C16S12405   4.548   4.644   7.733  0.7031  0.4779 -0.1137
  118OSM   H16S12406   4.449   4.687   7.760  1.2743  0.6154  1.9170
  118OSM   H16T12407   4.606   4.730   7.693  0.6617 -0.2242 -1.7799
  118OSM   C17S12408   4.612   4.581   7.858  0.4451  0.0346  0.0073
  118OSM   H17S12409   4.706   4.526   7.833  0.0716 -0.5580 -0.1189
  118OSM   H17T12410   4.551   4.494   7.890 -1.0120  0.7832 -0.6703
  118OSM   C18S12411   4.647   4.678   7.977 -0.0091  0.2643  0.7893
  118OSM   H18S12412   4.725   4.632   8.040 -0.9387  0.0053  1.7736
  118OSM   H18T12413   4.555   4.694   8.038  0.5218 -0.6645  1.8543
  118OSM   H18U12414   4.677   4.777   7.935  0.0023 -0.9619 -2.3467
  118OSM    C1F12415   4.329   4.074   6.484 -0.8655  0.0357  0.3318
  118OSM     OF12416   4.448   4.048   6.451  0.3547  0.0417  0.2650
  118OSM    C2F12417   4.260   4.006   6.597 -0.0743  0.1570  0.4312
  118OSM    H2F12418   4.153   3.978   6.582  0.0975 -0.6082  0.5747
  118OSM    H2G12419   4.255   4.077   6.683 -0.2696 -0.5352  1.0070
  118OSM    C3F12420   4.338   3.876   6.632  0.1770 -0.7906 -0.5191
  118OSM    H3F12421   4.442   3.900   6.661  1.0781 -2.5270 -2.1502
  118OSM    H3G12422   4.345   3.806   6.546  1.0249 -0.6126 -0.6010
  118OSM    C4F12423   4.290   3.806   6.757 -0.1845  0.6221 -0.0819
  118OSM    H4F12424   4.347   3.711   6.752  1.3684  1.5773 -3.7329
  118OSM    H4G12425   4.182   3.785   6.743 -0.1399  0.3952 -0.0818
  118OSM    C5F12426   4.298   3.876   6.897 -0.7668  0.2797 -0.5179
  118OSM    H5F12427   4.249   3.976   6.895 -0.5642  0.3680 -1.2000
  118OSM    H5G12428   4.401   3.899   6.933 -1.5876 -0.3295  2.5826
  118OSM    C6F12429   4.250   3.773   7.007 -0.4976 -0.0361 -0.2623
  118OSM    H6F12430   4.305   3.678   6.987  1.7766  0.5385  2.5518
  118OSM    H6G12431   4.140   3.759   7.003 -0.4038 -2.0743  2.1500
  118OSM    C7F12432   4.294   3.824   7.146 -0.6420  0.1438 -0.2732
  118OSM    H7F12433   4.258   3.927   7.165  0.2490  0.2030  1.2196
  118OSM    H7G12434   4.404   3.825   7.158 -0.3372  1.8630 -2.5478
  118OSM    C8F12435   4.223   3.748   7.265 -0.2945 -0.2236  0.0700
  118OSM    H8F12436   4.116   3.750   7.237  0.1085  0.9051 -1.5777
  118OSM    H8G12437   4.250   3.810   7.353  2.2687 -0.2656 -0.6059
  118OSM    C9F12438   4.281   3.612   7.281 -0.0129 -0.1895 -0.1147
  118OSM    H9F12439   4.257   3.545   7.197 -1.8679 -1.0589  1.0385
  118OSM   C10F12440   4.354   3.554   7.383 -0.5365  0.0990  0.3512
  118OSM   H10F12441   4.355   3.444   7.379 -1.3995  0.0889 -3.1506
  118OSM   C11F12442   4.403   3.622   7.512  0.8199 -0.3221 -0.2770
  118OSM   H11F12443   4.416   3.732   7.503  0.5984 -0.2478  0.2495
  118OSM   H11G12444   4.507   3.585   7.500  1.2418  0.6910  0.1222
  118OSM   C12F12445   4.333   3.580   7.644 -0.0193 -0.5118 -0.2380
  118OSM   H12F12446   4.321   3.469   7.645  0.4895 -0.6691 -3.1238
  118OSM   H12G12447   4.234   3.628   7.649  0.6333  0.7686  0.8514
  118OSM   C13F12448   4.423   3.620   7.759  0.3982  0.1149 -0.9459
  118OSM   H13F12449   4.421   3.731   7.770  0.5675  0.1917 -1.6323
  118OSM   H13G12450   4.527   3.580   7.758 -0.5177 -2.6392  0.9680
  118OSM   C14F12451   4.370   3.568   7.903  0.0639  1.1164  0.4685
  118OSM   H14F12452   4.403   3.462   7.902 -2.6941  0.1103 -1.9086
  118OSM   H14G12453   4.259   3.559   7.898  0.2143 -1.8226  0.1502
  118OSM   C15F12454   4.418   3.658   8.022 -0.3827  0.6635 -0.2602
  118OSM   H15F12455   4.383   3.616   8.119 -0.1351  3.9523  1.3962
  118OSM   H15G12456   4.381   3.761   8.004 -0.1916  0.5682 -1.2762
  118OSM   C16F12457   4.576   3.652   8.014  0.1896 -0.3856 -0.4333
  118OSM   H16F12458   4.627   3.722   8.084  1.2788 -1.4077 -0.1757
  118OSM   H16G12459   4.599   3.692   7.913 -1.9767  2.1942 -0.0422
  118OSM   C17F12460   4.635   3.513   8.043 -0.0017 -0.2534 -0.1305
  118OSM   H17F12461   4.607   3.443   7.961 -0.3018  0.5806 -0.7571
  118OSM   H17G12462   4.578   3.469   8.127 -0.1565 -1.8003 -1.0141
  118OSM   C18F12463   4.786   3.496   8.064 -0.5333 -0.1965 -0.2008
  118OSM   H18F12464   4.807   3.388   8.077  0.1686  0.1328  1.6528
  118OSM   H18G12465   4.810   3.550   8.158  0.6778 -0.1963 -0.4996
  118OSM   H18H12466   4.841   3.542   7.980 -1.6671 -1.8148 -1.9091
  119OSM      N12467   5.086   1.501   6.077  0.0287 -0.1177 -0.7738
  119OSM    C1512468   5.182   1.583   6.010  0.0532  0.1149  0.2565
  119OSM   H15A12469   5.207   1.676   6.060  2.7649  0.9173 -2.3680
  119OSM   H15B12470   5.133   1.616   5.919 -3.0149  1.5830  2.2551
  119OSM   H15C12471   5.269   1.527   5.982  0.5609  0.6486  0.7354
  119OSM    C1412472   5.039   1.395   5.981 -0.7224 -0.0405  0.3115
  119OSM   H14A12473   4.959   1.426   5.915 -0.3795  0.0344 -0.0763
  119OSM   H14B12474   5.009   1.305   6.032  1.1961 -0.6072  0.5216
  119OSM   H14C12475   5.124   1.372   5.918  1.0015  0.5531  2.2989
  119OSM    C1312476   5.158   1.430   6.189  0.2384  0.7919 -0.1328
  119OSM   H13A12477   5.086   1.361   6.230 -1.1828  2.2755 -0.0691
  119OSM   H13B12478   5.184   1.495   6.271  2.6105 -1.9252  1.4899
  119OSM   H13C12479   5.246   1.374   6.159 -1.3984 -1.0114 -1.8467
  119OSM    C1212480   4.966   1.587   6.136  0.2517  0.5446  0.6897
  119OSM   H12A12481   5.018   1.653   6.204  2.9322  0.0335 -0.7186
  119OSM   H12B12482   4.897   1.524   6.188 -1.7117 -0.9813 -3.3155
  119OSM    C1112483   4.885   1.661   6.029  0.0219 -0.0045  0.3042
  119OSM   H11A12484   4.950   1.722   5.964 -1.3734  3.7373  2.1244
  119OSM   H11B12485   4.833   1.740   6.086 -0.1835 -0.9272  1.4439
  119OSM      P12486   4.676   1.509   6.010 -0.2046  0.1221  0.0035
  119OSM    O1312487   4.562   1.587   5.959  0.2112 -0.4593 -0.1415
  119OSM    O1412488   4.679   1.364   5.989  0.1515 -0.0760 -0.0909
  119OSM    O1112489   4.694   1.533   6.167 -0.1940 -0.2199 -0.3549
  119OSM    O1212490   4.806   1.575   5.950 -0.8897  0.1663 -0.0711
  119OSM    C1S12491   4.648   1.435   6.256  0.3614 -0.3392 -0.4123
  119OSM    H1S12492   4.713   1.346   6.275  2.7774  1.4953  0.4138
  119OSM    H1T12493   4.545   1.406   6.228 -0.0978  1.9489 -1.3093
  119OSM     NF12494   4.610   1.388   6.511 -0.0773 -0.4677 -0.6162
  119OSM    HNF12495   4.518   1.361   6.538  0.4874 -0.9115  0.9585
  119OSM    C2S12496   4.625   1.490   6.409 -0.0189  0.2598  0.3057
  119OSM    H2S12497   4.704   1.561   6.441  0.2073 -0.2181  0.8382
  119OSM    C3S12498   4.498   1.587   6.412 -0.4631 -0.1399 -0.0005
  119OSM    H3S12499   4.409   1.532   6.374  0.4498 -1.5352 -0.1962
  119OSM     O312500   4.513   1.706   6.338  0.2309 -0.5920 -0.1232
  119OSM    HO312501   4.588   1.687   6.282 -0.1266  0.8003 -1.1224
  119OSM    C4S12502   4.466   1.640   6.551  0.2019 -0.0040  0.3876
  119OSM    H4S12503   4.545   1.705   6.593 -1.0610  0.6137  1.8763
  119OSM    C5S12504   4.349   1.609   6.615 -0.9138  0.6533 -0.3944
  119OSM    H5S12505   4.276   1.535   6.579 -0.2936  0.0454 -0.4333
  119OSM    C6S12506   4.321   1.649   6.756  0.1012  0.0908 -0.3006
  119OSM    H6S12507   4.220   1.694   6.769 -1.3977 -2.7191 -1.4740
  119OSM    H6T12508   4.391   1.732   6.781 -0.8242  1.2904 -1.5493
  119OSM    C7S12509   4.333   1.531   6.858 -0.4162  0.1082  1.3581
  119OSM    H7S12510   4.415   1.463   6.829 -2.4733 -1.8948 -0.1416
  119OSM    H7T12511   4.249   1.459   6.846 -0.0125  0.0041 -1.3140
  119OSM    C8S12512   4.338   1.574   7.002 -1.0024 -0.2662 -0.4510
  119OSM    H8S12513   4.250   1.641   7.011 -0.3478  0.4045  1.5150
  119OSM    H8T12514   4.435   1.627   6.993 -0.4841 -1.2269 -0.6487
  119OSM    C9S12515   4.361   1.456   7.102  0.2118 -0.0217 -0.1711
  119OSM    H9S12516   4.444   1.391   7.066  0.2429 -0.2927  0.3842
  119OSM    H9T12517   4.270   1.392   7.097 -0.4588  0.9952 -1.3943
  119OSM   C10S12518   4.387   1.503   7.248 -0.4045 -0.0489  0.1718
  119OSM   H10S12519   4.297   1.567   7.263 -0.3741  0.6169 -2.1028
  119OSM   H10T12520   4.477   1.569   7.245 -1.2269  1.0935  0.1064
  119OSM   C11S12521   4.422   1.389   7.345 -0.9442  0.0412  0.3714
  119OSM   H11S12522   4.515   1.342   7.307 -0.7055  0.8904 -0.1203
  119OSM   H11T12523   4.336   1.319   7.354  0.1539 -1.2447  1.1614
  119OSM   C12S12524   4.461   1.428   7.487 -0.4495 -0.3386  0.4203
  119OSM   H12S12525   4.419   1.527   7.517  1.3327  0.1752  1.3772
  119OSM   H12T12526   4.572   1.437   7.483 -0.3846 -1.4054 -1.9246
  119OSM   C13S12527   4.411   1.336   7.601 -1.1692 -0.0893 -0.0791
  119OSM   H13S12528   4.429   1.230   7.573  2.0045  1.0238 -2.9457
  119OSM   H13T12529   4.303   1.361   7.607 -1.0371  0.4807 -0.0057
  119OSM   C14S12530   4.486   1.368   7.733  0.4863  0.3283  0.3111
  119OSM   H14S12531   4.480   1.476   7.759  3.6968  0.3387  1.5295
  119OSM   H14T12532   4.595   1.344   7.726  0.7237  1.6210 -0.7902
  119OSM   C15S12533   4.436   1.288   7.858 -0.7603 -0.5691 -0.0351
  119OSM   H15S12534   4.454   1.185   7.822  2.0419 -0.8520  1.7782
  119OSM   H15T12535   4.326   1.293   7.866 -0.9630 -2.8232 -0.9520
  119OSM   C16S12536   4.522   1.307   7.986 -0.2227  0.2326 -0.7007
  119OSM   H16S12537   4.484   1.395   8.041  0.1221 -1.2435  2.1158
  119OSM   H16T12538   4.622   1.335   7.945 -0.9803  0.9132 -2.1703
  119OSM   C17S12539   4.540   1.188   8.075  0.0909 -0.5368  0.2408
  119OSM   H17S12540   4.630   1.207   8.138  1.4858 -0.6572 -1.6200
  119OSM   H17T12541   4.569   1.105   8.006 -2.1771 -0.1395 -1.2907
  119OSM   C18S12542   4.422   1.138   8.149  0.3212  0.2507  0.6694
  119OSM   H18S12543   4.446   1.052   8.215  1.9920  1.8829  2.3138
  119OSM   H18T12544   4.342   1.098   8.083 -0.5795  3.3301 -0.2986
  119OSM   H18U12545   4.379   1.218   8.213 -1.7733  0.2775 -0.6716
  119OSM    C1F12546   4.704   1.305   6.556  0.4988 -0.1961 -0.2543
  119OSM     OF12547   4.816   1.305   6.508  0.0845  0.4086 -0.4453
  119OSM    C2F12548   4.660   1.210   6.661 -0.0336 -0.9329 -0.0965
  119OSM    H2F12549   4.598   1.129   6.618 -0.5943 -2.2109  2.8803
  119OSM    H2G12550   4.601   1.265   6.738 -1.9615  1.0625 -2.8087
  119OSM    C3F12551   4.778   1.134   6.724  0.0147 -0.2327 -0.0474
  119OSM    H3F12552   4.822   1.211   6.791 -0.5693  0.2677 -0.2337
  119OSM    H3G12553   4.848   1.106   6.642  2.4249 -1.2250  2.1750
  119OSM    C4F12554   4.734   1.014   6.809 -0.1636  0.3709  1.1139
  119OSM    H4F12555   4.824   0.959   6.845 -2.0216 -2.9355  1.1246
  119OSM    H4G12556   4.684   0.950   6.734  1.6351  0.3960 -0.1763
  119OSM    C5F12557   4.643   1.030   6.931  0.7611  0.1700 -0.1081
  119OSM    H5F12558   4.629   0.932   6.982  0.1016 -1.1787 -2.6677
  119OSM    H5G12559   4.542   1.053   6.891  1.5103  1.7118 -1.2245
  119OSM    C6F12560   4.679   1.148   7.024 -1.1275  0.1446  0.2156
  119OSM    H6F12561   4.610   1.154   7.110 -0.1226  1.4773  0.9597
  119OSM    H6G12562   4.677   1.235   6.956  1.6925  0.7225  0.7471
  119OSM    C7F12563   4.829   1.137   7.086  0.8109  0.0152 -0.5736
  119OSM    H7F12564   4.861   1.242   7.106 -0.5665  0.0429  1.9503
  119OSM    H7G12565   4.888   1.087   7.006  0.3545 -0.9646 -0.3201
  119OSM    C8F12566   4.836   1.062   7.215  0.2030 -0.4179  0.6186
  119OSM    H8F12567   4.778   0.968   7.202  0.2457 -0.3352 -0.2613
  119OSM    H8G12568   4.786   1.124   7.292 -0.7016 -0.9885  0.5156
  119OSM    C9F12569   4.973   1.036   7.267  0.7967  0.3598  0.0745
  119OSM    H9F12570   5.045   0.998   7.193  1.3656  1.9219 -0.2116
  119OSM   C10F12571   5.016   1.059   7.395  0.4014 -0.6204  0.7005
  119OSM   H10F12572   5.122   1.061   7.425  0.3383 -0.3888  0.9141
  119OSM   C11F12573   4.925   1.110   7.511 -0.1620 -0.3388 -0.3750
  119OSM   H11F12574   4.818   1.082   7.504 -0.1470 -0.9700  1.3459
  119OSM   H11G12575   4.940   1.217   7.537 -1.8703 -0.1750  0.0459
  119OSM   C12F12576   4.972   1.040   7.638  0.8159 -0.3431 -0.2187
  119OSM   H12F12577   5.074   1.071   7.668  0.1666  2.5097 -0.6448
  119OSM   H12G12578   4.992   0.933   7.618  1.3672  0.0352 -1.8071
  119OSM   C13F12579   4.885   1.060   7.764  0.0349 -0.5030  0.2818
  119OSM   H13F12580   4.789   1.009   7.742  0.2612 -1.4848  1.4344
  119OSM   H13G12581   4.866   1.169   7.769  1.0626 -0.2589 -0.5836
  119OSM   C14F12582   4.942   1.000   7.893  0.4790  0.3765 -1.0114
  119OSM   H14F12583   5.031   1.055   7.929  0.7650 -1.1200  0.6871
  119OSM   H14G12584   4.964   0.891   7.888 -2.5751 -0.5812  2.2613
  119OSM   C15F12585   4.843   1.020   8.008  0.4331 -0.9908 -0.5345
  119OSM   H15F12586   4.741   0.979   7.991 -0.0598  0.2148 -0.6435
  119OSM   H15G12587   4.827   1.129   8.028  0.8668 -0.6893 -1.7786
  119OSM   C16F12588   4.899   0.959   8.140 -0.3098 -0.0798 -0.2018
  119OSM   H16F12589   4.878   0.851   8.155 -2.4417  0.3443  0.2562
  119OSM   H16G12590   4.847   1.014   8.222  0.3324  0.9651 -0.4722
  119OSM   C17F12591   5.047   0.998   8.171 -0.2873 -0.5964 -1.0792
  119OSM   H17F12592   5.069   1.101   8.136 -0.2744 -0.6967 -1.3661
  119OSM   H17G12593   5.105   0.926   8.109 -0.5508 -1.8920  0.1200
  119OSM   C18F12594   5.082   0.997   8.325 -0.3463 -0.6077  0.2173
  119OSM   H18F12595   5.050   1.090   8.376  1.8771  1.2327 -1.5787
  119OSM   H18G12596   5.192   1.005   8.332 -0.4651  0.4864  1.1073
  119OSM   H18H12597   5.036   0.912   8.381  1.0820 -0.4469  1.6963
  120OSM      N12598   2.547   0.845   6.097 -0.0288 -0.6146  0.0275
  120OSM    C1512599   2.535   0.722   6.019 -0.1137  0.6399 -0.2589
  120OSM   H15A12600   2.432   0.692   6.012  0.2908 -1.4402  1.6950
  120OSM   H15B12601   2.591   0.639   6.058 -0.4894  0.8689  0.7893
  120OSM   H15C12602   2.582   0.733   5.922 -0.8032 -0.1869 -0.7028
  120OSM    C1412603   2.685   0.886   6.105 -0.7433  0.0800 -0.6919
  120OSM   H14A12604   2.701   0.948   6.191  1.0490  1.2206 -1.7724
  120OSM   H14B12605   2.709   0.938   6.013 -2.1363 -2.3574 -2.5642
  120OSM   H14C12606   2.751   0.800   6.118 -2.2291 -0.7987  1.5624
  120OSM    C1312607   2.473   0.962   6.036 -0.4312 -0.5254 -0.4463
  120OSM   H13A12608   2.522   0.993   5.945  2.1493  1.8332  1.5759
  120OSM   H13B12609   2.478   1.054   6.093 -3.7144 -1.4148  1.5619
  120OSM   H13C12610   2.367   0.944   6.026 -0.6989 -1.9693  3.1799
  120OSM    C1212611   2.494   0.820   6.237 -0.0020  0.4836 -0.3316
  120OSM   H12A12612   2.388   0.806   6.223  0.3727  0.3749 -3.7843
  120OSM   H12B12613   2.515   0.904   6.301  1.6128  0.8613 -1.3066
  120OSM    C1112614   2.543   0.693   6.302 -0.2515  0.4497  0.1185
  120OSM   H11A12615   2.513   0.697   6.409  1.2153 -0.2450  0.5785
  120OSM   H11B12616   2.653   0.686   6.304 -0.3841 -2.6984  0.8807
  120OSM      P12617   2.341   0.541   6.253  0.3795 -0.0179  0.1970
  120OSM    O1312618   2.257   0.662   6.263  0.2421 -0.2652  0.0303
  120OSM    O1412619   2.315   0.438   6.145 -0.1836 -0.7806  0.0494
  120OSM    O1112620   2.324   0.468   6.392 -0.2810 -0.0798 -0.0049
  120OSM    O1212621   2.496   0.572   6.248 -0.1460  0.2365  0.6380
  120OSM    C1S12622   2.432   0.405   6.458  0.4880 -0.5775  0.2349
  120OSM    H1S12623   2.498   0.481   6.504 -2.1318  0.2993  2.8249
  120OSM    H1T12624   2.479   0.336   6.384  0.2777  0.2112 -0.6690
  120OSM     NF12625   2.496   0.298   6.666  0.3667  0.0283 -0.2690
  120OSM    HNF12626   2.503   0.200   6.681  1.8133 -0.6292 -4.0804
  120OSM    C2S12627   2.378   0.332   6.582 -0.2313 -0.2499  0.3675
  120OSM    H2S12628   2.320   0.410   6.636  2.0978  0.3095  2.2067
  120OSM    C3S12629   2.283   0.214   6.551  0.9014  0.3470  0.6817
  120OSM    H3S12630   2.335   0.134   6.492  0.0490  0.2510  0.0505
  120OSM     O312631   2.167   0.252   6.474 -0.1260 -0.1868  0.0681
  120OSM    HO312632   2.192   0.338   6.439  1.5217 -0.5447  0.2726
  120OSM    C4S12633   2.244   0.142   6.674 -0.2319 -0.2150 -0.2311
  120OSM    H4S12634   2.215   0.205   6.759 -0.6042 -1.6025  0.7019
  120OSM    C5S12635   2.250   0.006   6.699 -0.1936 -0.2165 -0.0434
  120OSM    H5S12636   2.276  -0.065   6.619 -1.5568  0.0053 -0.7123
  120OSM    C6S12637   2.226  -0.057   6.834  0.2716  0.1112 -0.3478
  120OSM    H6S12638   2.320  -0.116   6.849 -0.3814 -1.7078 -2.8188
  120OSM    H6T12639   2.149  -0.135   6.818  0.1189  0.5210 -1.7647
  120OSM    C7S12640   2.192   0.026   6.961 -0.0382  0.9396  0.0313
  120OSM    H7S12641   2.110   0.099   6.943  0.7122  1.8265  0.1073
  120OSM    H7T12642   2.284   0.083   6.986  0.0820 -0.5340  3.5058
  120OSM    C8S12643   2.175  -0.074   7.080  0.4420  0.0874  0.2834
  120OSM    H8S12644   2.272  -0.120   7.106 -0.0336 -1.1062  0.0056
  120OSM    H8T12645   2.103  -0.157   7.062  0.7650 -0.2923  0.7465
  120OSM    C9S12646   2.128   0.005   7.199  0.4458  0.3873 -0.4051
  120OSM    H9S12647   2.030   0.048   7.173 -0.1248  0.4777  1.6904
  120OSM    H9T12648   2.197   0.091   7.214  1.4575 -0.6096  0.9601
  120OSM   C10S12649   2.110  -0.073   7.334  0.5655  0.5446 -0.3161
  120OSM   H10S12650   2.209  -0.097   7.378 -0.7349 -0.0761  2.4769
  120OSM   H10T12651   2.054  -0.161   7.294  0.9218  0.0888  0.1758
  120OSM   C11S12652   2.042   0.008   7.442 -0.6533  0.4919 -0.0480
  120OSM   H11S12653   1.937   0.024   7.411 -0.3029  3.3615 -0.0144
  120OSM   H11T12654   2.102   0.102   7.444 -1.8052  1.2611 -0.7287
  120OSM   C12S12655   2.058  -0.077   7.573  0.7037  0.4627  0.2805
  120OSM   H12S12656   2.159  -0.123   7.565 -0.5479 -2.2457 -2.6472
  120OSM   H12T12657   1.980  -0.156   7.583  2.1335 -0.8635  1.5524
  120OSM   C13S12658   2.033   0.018   7.688  0.2889 -0.6527 -0.3867
  120OSM   H13S12659   1.952   0.087   7.657  1.5412  1.5026  0.9388
  120OSM   H13T12660   2.123   0.082   7.690  0.2356 -0.5873  1.1735
  120OSM   C14S12661   2.012  -0.044   7.824  0.1201 -0.4959 -0.0398
  120OSM   H14S12662   2.105  -0.098   7.850  0.7111  1.2880  1.8694
  120OSM   H14T12663   1.934  -0.123   7.821 -0.0601 -0.3225 -0.0108
  120OSM   C15S12664   1.975   0.048   7.942 -0.4525  0.2514 -0.9566
  120OSM   H15S12665   1.888   0.111   7.916  0.1982  0.2784 -3.2417
  120OSM   H15T12666   2.054   0.125   7.957 -1.6763  1.2491  0.7061
  120OSM   C16S12667   1.957  -0.035   8.072 -0.3563  0.3980 -0.2424
  120OSM   H16S12668   2.055  -0.080   8.101 -1.2659 -0.7107  1.2279
  120OSM   H16T12669   1.891  -0.123   8.055  1.0446 -0.3262 -2.3974
  120OSM   C17S12670   1.929   0.063   8.189 -0.3946  0.2794  0.3100
  120OSM   H17S12671   1.828   0.108   8.177 -0.6178 -0.5259 -1.1423
  120OSM   H17T12672   2.011   0.134   8.167  0.7531 -1.4053 -1.1600
  120OSM   C18S12673   1.947  -0.009   8.329  0.1965  0.3098  0.4879
  120OSM   H18S12674   1.947   0.070   8.407 -1.2791  0.5365  0.2878
  120OSM   H18T12675   2.041  -0.067   8.335  0.8552  1.1232 -1.1455
  120OSM   H18U12676   1.864  -0.076   8.359 -0.8388 -0.2259 -3.0098
  120OSM    C1F12677   2.592   0.377   6.721  0.3656  0.2454  0.2627
  120OSM     OF12678   2.586   0.496   6.722 -0.1477  0.9437 -0.4698
  120OSM    C2F12679   2.693   0.299   6.792 -0.2910 -0.3908 -0.3232
  120OSM    H2F12680   2.757   0.242   6.722 -0.0245 -0.1633 -0.2670
  120OSM    H2G12681   2.639   0.230   6.860 -0.8227  0.1226 -0.2150
  120OSM    C3F12682   2.784   0.395   6.865 -0.0267 -0.8729  0.2045
  120OSM    H3F12683   2.721   0.471   6.916  0.8194  0.2834 -0.4323
  120OSM    H3G12684   2.853   0.455   6.801 -2.4702 -0.6845 -2.4395
  120OSM    C4F12685   2.867   0.320   6.969 -0.2298 -0.3266 -0.0917
  120OSM    H4F12686   2.953   0.277   6.912 -1.2888 -0.6619 -1.5080
  120OSM    H4G12687   2.815   0.234   7.018  1.2089 -0.4830  1.2323
  120OSM    C5F12688   2.939   0.413   7.073  0.4686  0.4704  0.0537
  120OSM    H5F12689   2.981   0.500   7.018 -0.5177  0.7942 -0.1916
  120OSM    H5G12690   3.021   0.359   7.126  0.6682 -1.2641 -1.9215
  120OSM    C6F12691   2.832   0.466   7.176  0.5022 -0.4415  0.6632
  120OSM    H6F12692   2.766   0.387   7.218  1.8360 -0.8714  2.0776
  120OSM    H6G12693   2.756   0.531   7.129  1.6467  0.3437 -0.1707
  120OSM    C7F12694   2.909   0.525   7.301  0.4192  0.1700 -0.2103
  120OSM    H7F12695   2.988   0.598   7.272  0.7799  0.0426  0.4180
  120OSM    H7G12696   2.965   0.440   7.345 -1.2963 -1.2600 -0.7115
  120OSM    C8F12697   2.812   0.600   7.403 -0.2287 -0.9178 -0.1178
  120OSM    H8F12698   2.730   0.526   7.419 -2.0679  1.5150  2.6888
  120OSM    H8G12699   2.771   0.696   7.364  3.4881  0.0991 -1.9369
  120OSM    C9F12700   2.870   0.639   7.534 -0.8971  0.3659 -0.2939
  120OSM    H9F12701   2.925   0.734   7.526 -1.9226  0.9798 -0.1052
  120OSM   C10F12702   2.882   0.566   7.648 -0.0143  0.0855  0.0790
  120OSM   H10F12703   2.927   0.610   7.738 -1.9063  1.5714  0.3850
  120OSM   C11F12704   2.824   0.435   7.667 -1.1297 -0.0719  0.2328
  120OSM   H11F12705   2.894   0.370   7.610 -3.7148 -2.3389 -0.5535
  120OSM   H11G12706   2.722   0.436   7.623 -0.3497  0.5665 -1.6882
  120OSM   C12F12707   2.811   0.403   7.824  0.8094  0.8759 -0.2837
  120OSM   H12F12708   2.752   0.310   7.837  2.9726 -0.4268  0.6424
  120OSM   H12G12709   2.746   0.482   7.867 -3.1888 -1.9523 -0.5522
  120OSM   C13F12710   2.937   0.383   7.894  0.3923  0.5965 -0.5940
  120OSM   H13F12711   2.978   0.482   7.922 -2.3027  1.5053  0.4931
  120OSM   H13G12712   3.008   0.324   7.833 -0.0122 -0.5458 -0.0005
  120OSM   C14F12713   2.918   0.298   8.025 -0.5056 -0.6680  0.3197
  120OSM   H14F12714   3.009   0.306   8.088 -0.7624 -1.3537  0.7945
  120OSM   H14G12715   2.909   0.193   7.989 -0.2213  0.3420 -3.0040
  120OSM   C15F12716   2.806   0.350   8.124  0.8617  0.0823  0.7210
  120OSM   H15F12717   2.711   0.326   8.073  1.2275 -1.7817  0.8564
  120OSM   H15G12718   2.813   0.460   8.142 -0.4086  0.3993 -0.5149
  120OSM   C16F12719   2.796   0.286   8.262  0.6032 -0.3700 -0.7202
  120OSM   H16F12720   2.897   0.314   8.300  0.8181 -1.5402 -0.4147
  120OSM   H16G12721   2.782   0.177   8.250 -4.6138 -0.1159  0.7102
  120OSM   C17F12722   2.677   0.342   8.343 -0.4746 -0.6208  0.3152
  120OSM   H17F12723   2.601   0.361   8.265  0.0136 -0.0731 -0.0391
  120OSM   H17G12724   2.712   0.437   8.388 -0.8144 -1.2588  1.9815
  120OSM   C18F12725   2.638   0.261   8.462  0.3487  0.0374  0.3040
  120OSM   H18F12726   2.543   0.299   8.507 -0.1740 -1.8574  0.9388
  120OSM   H18G12727   2.717   0.258   8.540 -1.0145 -1.2504  1.7462
  120OSM   H18H12728   2.601   0.162   8.426  2.5085 -0.7617  0.1764
  121OSM      N12729   4.962   2.610   5.873  0.3633  0.2769  0.6183
  121OSM    C1512730   4.878   2.519   5.964  0.5276  0.1116  0.1684
  121OSM   H15A12731   4.916   2.525   6.065 -0.0675  1.2242  0.3548
  121OSM   H15B12732   4.894   2.415   5.942  2.6288  0.8954 -2.5203
  121OSM   H15C12733   4.774   2.549   5.960  0.6601  0.4027 -1.4950
  121OSM    C1412734   5.101   2.558   5.866 -0.3366  0.1023  0.4102
  121OSM   H14A12735   5.149   2.561   5.963 -2.7570 -0.3082  1.6785
  121OSM   H14B12736   5.155   2.608   5.787 -0.8564  3.4259  2.0139
  121OSM   H14C12737   5.119   2.453   5.845  1.2483  0.5702 -0.7671
  121OSM    C1312738   4.896   2.605   5.737 -0.4505 -0.7809 -0.0861
  121OSM   H13A12739   4.953   2.660   5.663  0.2292 -1.9717 -0.4656
  121OSM   H13B12740   4.799   2.653   5.735 -1.6559 -3.0980 -0.1809
  121OSM   H13C12741   4.900   2.501   5.708  0.1915 -1.0782  1.0334
  121OSM    C1212742   4.960   2.752   5.926  0.0344 -0.2201 -0.0034
  121OSM   H12A12743   5.002   2.819   5.853 -2.3530 -0.0029 -1.2667
  121OSM   H12B12744   5.035   2.752   6.004  0.0099  0.1232  0.0205
  121OSM    C1112745   4.828   2.802   5.987  0.3793 -0.8928 -0.2705
  121OSM   H11A12746   4.861   2.891   6.045 -0.7786  0.6162 -1.7870
  121OSM   H11B12747   4.785   2.733   6.063 -1.7638 -2.3040 -2.6102
  121OSM      P12748   4.735   2.982   5.815 -0.4681 -0.4136 -0.3994
  121OSM    O1312749   4.871   3.011   5.767 -0.1567  0.2463 -0.0184
  121OSM    O1412750   4.633   3.005   5.712  0.1295 -0.1345  0.1320
  121OSM    O1112751   4.712   3.081   5.934  0.1966  0.2699  0.4875
  121OSM    O1212752   4.730   2.833   5.880 -0.1135 -0.2406  0.2575
  121OSM    C1S12753   4.600   3.049   6.020  0.3575  0.1837 -0.4115
  121OSM    H1S12754   4.594   2.941   6.044  0.7388  0.4883  1.1772
  121OSM    H1T12755   4.502   3.077   5.975  1.6242  0.9628 -2.9385
  121OSM     NF12756   4.539   3.065   6.269 -0.0643  0.0334  0.0858
  121OSM    HNF12757   4.440   3.062   6.281 -0.0782 -0.0617 -0.0562
  121OSM    C2S12758   4.603   3.129   6.153 -0.3488  0.2628 -0.7571
  121OSM    H2S12759   4.707   3.151   6.187 -0.6722 -1.5088  1.6886
  121OSM    C3S12760   4.536   3.270   6.118 -0.1816  0.6829  0.3495
  121OSM    H3S12761   4.429   3.259   6.091  0.0344  1.5134 -0.9261
  121OSM     O312762   4.592   3.334   6.010  0.7120 -0.5228  0.7915
  121OSM    HO312763   4.655   3.272   5.973  1.9539  1.7855 -1.2460
  121OSM    C4S12764   4.550   3.371   6.229 -0.3523 -0.2606  0.1600
  121OSM    H4S12765   4.655   3.377   6.263  0.6335  0.8301 -2.7046
  121OSM    C5S12766   4.459   3.445   6.288  0.6035 -0.6131  0.3186
  121OSM    H5S12767   4.355   3.420   6.261  0.2215  1.1546 -0.0014
  121OSM    C6S12768   4.477   3.545   6.395  0.1534  0.0472 -0.1460
  121OSM    H6S12769   4.423   3.512   6.487 -0.3227 -1.6912 -1.0065
  121OSM    H6T12770   4.429   3.641   6.368  0.1436  0.1114  0.1000
  121OSM    C7S12771   4.625   3.575   6.431 -0.6220 -0.1783  0.3077
  121OSM    H7S12772   4.674   3.623   6.344  0.5630 -0.1971  0.9505
  121OSM    H7T12773   4.685   3.490   6.470  1.4453  0.9281 -0.2841
  121OSM    C8S12774   4.640   3.679   6.545  0.1928  0.4502 -0.4385
  121OSM    H8S12775   4.581   3.647   6.633 -0.6644 -0.8760 -1.4458
  121OSM    H8T12776   4.602   3.779   6.516  0.1156  0.7869  0.7753
  121OSM    C9S12777   4.786   3.691   6.599 -0.6525 -0.5024 -0.3524
  121OSM    H9S12778   4.874   3.715   6.535 -0.4612  1.8854  0.6995
  121OSM    H9T12779   4.799   3.596   6.654 -0.4409  0.3343  1.0687
  121OSM   C10S12780   4.801   3.801   6.707  0.3274 -0.7869  0.1751
  121OSM   H10S12781   4.723   3.786   6.786  0.2918  2.4646  0.9332
  121OSM   H10T12782   4.790   3.904   6.666 -1.4800 -1.2733 -0.6959
  121OSM   C11S12783   4.945   3.799   6.773 -0.2543 -0.7564 -0.4853
  121OSM   H11S12784   5.034   3.831   6.714  0.2709 -1.5959 -0.1635
  121OSM   H11T12785   4.973   3.696   6.803 -0.4287 -0.5661  0.3503
  121OSM   C12S12786   4.936   3.871   6.912 -0.0496 -0.2387 -0.3869
  121OSM   H12S12787   4.854   3.839   6.980  0.0595  0.7642  0.2331
  121OSM   H12T12788   4.923   3.977   6.881  3.2116 -0.3818 -2.8590
  121OSM   C13S12789   5.069   3.873   6.985  0.3213 -0.3565 -0.1465
  121OSM   H13S12790   5.139   3.895   6.902 -0.8947 -0.1189 -1.1305
  121OSM   H13T12791   5.095   3.771   7.019 -0.8122 -0.6102 -0.0225
  121OSM   C14S12792   5.079   3.965   7.103 -0.4401 -0.2399  0.0800
  121OSM   H14S12793   5.035   4.064   7.075 -2.4420 -1.0127  0.3172
  121OSM   H14T12794   5.186   3.981   7.126 -0.7982  1.3006  0.7876
  121OSM   C15S12795   4.996   3.914   7.215 -0.1244 -0.2837 -0.1502
  121OSM   H15S12796   5.000   3.803   7.223 -0.8493 -0.3571 -0.7541
  121OSM   H15T12797   4.889   3.941   7.209  0.2794  1.1104 -2.2188
  121OSM   C16S12798   5.063   3.956   7.348 -0.1133  0.2546 -0.6943
  121OSM   H16S12799   5.059   4.065   7.370 -0.0262  0.2891 -0.8474
  121OSM   H16T12800   5.170   3.925   7.346  0.2372  1.2297  0.8183
  121OSM   C17S12801   5.006   3.880   7.473  0.2344 -0.1226  0.0279
  121OSM   H17S12802   5.048   3.777   7.474 -0.4307 -0.4465 -1.6364
  121OSM   H17T12803   4.895   3.876   7.459  0.3346 -1.6112 -0.5709
  121OSM   C18S12804   5.032   3.944   7.607  0.4528  0.6699 -0.3039
  121OSM   H18S12805   4.978   3.885   7.685 -1.2158  1.1506 -1.0341
  121OSM   H18T12806   4.968   4.034   7.625  0.6769  0.4099  2.2558
  121OSM   H18U12807   5.137   3.967   7.633  0.2436  0.1105  1.1579
  121OSM    C1F12808   4.598   2.962   6.332  0.8933 -0.2652  0.0546
  121OSM     OF12809   4.713   2.929   6.311  0.5952 -0.5062  0.2237
  121OSM    C2F12810   4.503   2.892   6.438  0.3982  0.3426  0.1932
  121OSM    H2F12811   4.421   2.850   6.376 -1.6371  4.0880  0.0157
  121OSM    H2G12812   4.454   2.975   6.493  1.2253 -0.5182  2.3333
  121OSM    C3F12813   4.568   2.783   6.528 -0.1049  0.7168  0.0284
  121OSM    H3F12814   4.624   2.844   6.603  1.1684 -0.8606  0.4045
  121OSM    H3G12815   4.652   2.727   6.482  0.4751 -0.1014  2.0095
  121OSM    C4F12816   4.470   2.685   6.600  0.2137  0.0333  0.5593
  121OSM    H4F12817   4.530   2.603   6.644 -1.6737 -2.1754 -0.7453
  121OSM    H4G12818   4.398   2.631   6.534 -2.2949  1.7555  1.6911
  121OSM    C5F12819   4.389   2.737   6.720 -0.2502  0.1480 -1.0055
  121OSM    H5F12820   4.337   2.829   6.686  0.5850  0.6649 -0.9206
  121OSM    H5G12821   4.457   2.779   6.797 -0.3029 -2.0601  0.3389
  121OSM    C6F12822   4.305   2.638   6.811  0.1613 -0.5953  0.1627
  121OSM    H6F12823   4.276   2.551   6.749 -1.3485 -0.0886  0.0946
  121OSM    H6G12824   4.211   2.680   6.854 -0.1296 -0.5904 -0.4650
  121OSM    C7F12825   4.378   2.589   6.937 -0.6563  0.0522 -0.4607
  121OSM    H7F12826   4.398   2.671   7.009 -2.7708 -0.6064  0.9775
  121OSM    H7G12827   4.469   2.535   6.903 -1.8263 -0.7762 -2.4634
  121OSM    C8F12828   4.289   2.497   7.019  0.6613 -0.2794  0.2404
  121OSM    H8F12829   4.261   2.414   6.950 -0.1658  0.3789 -0.2380
  121OSM    H8G12830   4.188   2.539   7.042  0.5508  1.5251 -3.0550
  121OSM    C9F12831   4.350   2.429   7.138 -0.0639  0.0043  0.3037
  121OSM    H9F12832   4.433   2.363   7.107 -0.3567 -0.3029  0.1639
  121OSM   C10F12833   4.310   2.436   7.270 -0.7159 -0.2679  0.2870
  121OSM   H10F12834   4.372   2.386   7.345  0.6878  2.0255  0.7543
  121OSM   C11F12835   4.200   2.523   7.339  1.2127 -0.4017  0.2241
  121OSM   H11F12836   4.107   2.464   7.346  0.8712  0.1994  0.9006
  121OSM   H11G12837   4.181   2.608   7.270  1.3937 -1.5900 -1.3466
  121OSM   C12F12838   4.262   2.582   7.469 -0.0737  0.7129 -0.0057
  121OSM   H12F12839   4.345   2.653   7.452 -0.9498  2.0426  1.0338
  121OSM   H12G12840   4.298   2.498   7.532 -0.5861 -0.0747 -0.7359
  121OSM   C13F12841   4.142   2.653   7.544 -0.5129 -0.4205  0.2066
  121OSM   H13F12842   4.078   2.565   7.567 -0.9479 -0.0695  0.3725
  121OSM   H13G12843   4.099   2.730   7.476 -0.4275  2.5288  3.2079
  121OSM   C14F12844   4.186   2.729   7.677  0.4308 -1.0566 -0.8180
  121OSM   H14F12845   4.237   2.822   7.646  0.0419 -0.2787  0.7710
  121OSM   H14G12846   4.276   2.679   7.718  1.0710  0.5023 -0.2783
  121OSM   C15F12847   4.081   2.727   7.782  0.7126 -0.3463  0.4386
  121OSM   H15F12848   3.990   2.787   7.759  1.4339  0.2433 -0.9997
  121OSM   H15G12849   4.129   2.777   7.868  0.1045 -0.8236  1.0714
  121OSM   C16F12850   4.028   2.587   7.822 -1.2922 -0.6196  0.2421
  121OSM   H16F12851   4.120   2.531   7.849 -0.0393  1.7002  1.0592
  121OSM   H16G12852   3.970   2.539   7.740  0.2212 -1.5623 -0.3297
  121OSM   C17F12853   3.935   2.597   7.937  0.0223  1.0402 -0.8874
  121OSM   H17F12854   3.858   2.673   7.912  0.8605  2.0573 -0.4517
  121OSM   H17G12855   3.999   2.637   8.018 -0.2845  0.4038 -0.3167
  121OSM   C18F12856   3.862   2.468   7.989 -0.1880 -0.1543  0.2638
  121OSM   H18F12857   3.786   2.483   8.068 -1.1574  0.2790 -0.7163
  121OSM   H18G12858   3.943   2.399   8.021  2.1133  1.3931 -1.7765
  121OSM   H18H12859   3.811   2.422   7.901 -2.1149  0.6293  0.9194
  122OSM      N12860   4.219   4.437   5.775  0.4165  0.0906 -0.3727
  122OSM    C1512861   4.145   4.503   5.670  1.3991  0.6302 -0.5417
  122OSM   H15A12862   4.051   4.454   5.651  0.9968  0.8620  0.7709
  122OSM   H15B12863   4.199   4.489   5.577  0.9995  0.4419 -0.7469
  122OSM   H15C12864   4.127   4.605   5.702 -1.2508 -0.3921  1.6614
  122OSM    C1412865   4.226   4.296   5.733 -0.0274  0.4877  0.1785
  122OSM   H14A12866   4.269   4.293   5.634  1.4370  4.2905  0.5187
  122OSM   H14B12867   4.128   4.254   5.751  0.4330 -1.2087 -0.9629
  122OSM   H14C12868   4.287   4.238   5.800 -0.0990  0.2654  0.0524
  122OSM    C1312869   4.357   4.485   5.777  0.6415 -0.2582 -0.6659
  122OSM   H13A12870   4.371   4.585   5.818 -2.1241 -0.6555  1.6299
  122OSM   H13B12871   4.392   4.482   5.675  1.2506  1.8969 -0.5672
  122OSM   H13C12872   4.421   4.425   5.840  0.3165  0.7711  0.7073
  122OSM    C1212873   4.141   4.450   5.906  0.1013 -0.2114  0.1941
  122OSM   H12A12874   4.159   4.547   5.950 -1.2411  0.7520 -1.2727
  122OSM   H12B12875   4.187   4.384   5.978  1.2811 -0.6273 -0.8939
  122OSM    C1112876   3.985   4.438   5.909  0.0082  0.3417  0.7014
  122OSM   H11A12877   3.918   4.494   5.840 -1.2334 -0.9022  0.8414
  122OSM   H11B12878   3.948   4.471   6.008 -0.0029  0.9631  0.4972
  122OSM      P12879   3.900   4.196   5.976  0.1791 -0.2783  0.6528
  122OSM    O1312880   3.767   4.148   5.927 -0.1628 -0.6897  0.0539
  122OSM    O1412881   4.003   4.088   5.979  0.1854  0.0744  0.4302
  122OSM    O1112882   3.883   4.274   6.108  0.4201  0.0783  0.2654
  122OSM    O1212883   3.954   4.302   5.869  0.4807  0.5300  0.1693
  122OSM    C1S12884   3.816   4.208   6.220 -0.9086 -0.2528 -1.0626
  122OSM    H1S12885   3.871   4.114   6.239  1.0971  0.4185 -3.0932
  122OSM    H1T12886   3.711   4.179   6.199 -1.8604  1.5920  0.7947
  122OSM     NF12887   3.785   4.224   6.465  0.0587 -0.0057 -0.0227
  122OSM    HNF12888   3.691   4.202   6.489  0.5654 -1.4285  0.7605
  122OSM    C2S12889   3.816   4.301   6.348  0.7471 -0.3736  0.5859
  122OSM    H2S12890   3.917   4.348   6.344 -0.2484  1.8400 -3.4337
  122OSM    C3S12891   3.709   4.408   6.308  0.2389  0.0649  0.0634
  122OSM    H3S12892   3.612   4.359   6.288 -0.2407  1.5074 -1.2724
  122OSM     O312893   3.748   4.484   6.191 -0.2889  0.4260 -0.4434
  122OSM    HO312894   3.819   4.428   6.159  0.7719  2.1459 -1.2438
  122OSM    C4S12895   3.677   4.498   6.420 -0.8842  0.0398  0.2108
  122OSM    H4S12896   3.588   4.469   6.477 -0.6461 -0.5137  0.3112
  122OSM    C5S12897   3.746   4.608   6.455  0.4591 -0.2259  0.1496
  122OSM    H5S12898   3.832   4.644   6.397  0.0694  3.2465  1.4365
  122OSM    C6S12899   3.713   4.693   6.572  0.5059  0.5735 -0.1164
  122OSM    H6S12900   3.632   4.766   6.552  0.7744  1.2312  1.0719
  122OSM    H6T12901   3.794   4.766   6.593 -1.3898  2.5894  0.6007
  122OSM    C7S12902   3.672   4.607   6.696  0.6318  0.2007 -0.1737
  122OSM    H7S12903   3.738   4.518   6.692 -0.2337 -0.4778  0.3045
  122OSM    H7T12904   3.568   4.576   6.676  0.7798  0.5900 -1.6318
  122OSM    C8S12905   3.681   4.680   6.835 -0.5300  0.3981  0.2448
  122OSM    H8S12906   3.617   4.769   6.815  0.2783  0.3664 -3.1089
  122OSM    H8T12907   3.782   4.722   6.851 -0.7129  1.5934 -1.4377
  122OSM    C9S12908   3.644   4.602   6.953 -0.2802  0.3568  0.2175
  122OSM    H9S12909   3.701   4.507   6.951 -1.1882 -0.3229  2.6613
  122OSM    H9T12910   3.541   4.562   6.956  0.4048 -1.4501  0.9210
  122OSM   C10S12911   3.670   4.686   7.083 -0.2034  0.0496  0.8192
  122OSM   H10S12912   3.606   4.776   7.070 -0.7989 -0.2891  1.3478
  122OSM   H10T12913   3.777   4.716   7.072 -0.5449  0.4622 -2.4586
  122OSM   C11S12914   3.642   4.617   7.211  0.1818 -0.6125  0.3984
  122OSM   H11S12915   3.723   4.542   7.215  0.4089 -0.6617 -2.6749
  122OSM   H11T12916   3.548   4.558   7.206  0.8561 -1.9668  2.4970
  122OSM   C12S12917   3.634   4.715   7.333 -0.0291  0.4984  0.1039
  122OSM   H12S12918   3.532   4.757   7.343 -0.1612  0.1637  0.1925
  122OSM   H12T12919   3.707   4.797   7.317 -0.5441  0.7618 -1.0024
  122OSM   C13S12920   3.661   4.635   7.469 -0.3401  0.6171  0.2754
  122OSM   H13S12921   3.609   4.538   7.460 -0.4978  0.8414 -1.9110
  122OSM   H13T12922   3.629   4.694   7.557 -0.0456 -1.5174  1.8878
  122OSM   C14S12923   3.813   4.596   7.493  0.3229 -0.2199  0.1723
  122OSM   H14S12924   3.872   4.687   7.515  0.3830 -0.1002 -0.4746
  122OSM   H14T12925   3.851   4.541   7.405  0.4597 -1.9274  1.2579
  122OSM   C15S12926   3.835   4.507   7.613 -0.1109 -0.3640  0.0193
  122OSM   H15S12927   3.823   4.399   7.588 -1.1065 -0.0730 -0.8241
  122OSM   H15T12928   3.767   4.525   7.700  1.9828 -0.2971  1.7217
  122OSM   C16S12929   3.980   4.509   7.666 -0.0482  0.3341  0.2075
  122OSM   H16S12930   3.992   4.617   7.689 -0.0900  0.2022  0.8527
  122OSM   H16T12931   4.054   4.485   7.587 -2.2793 -0.8229 -1.6552
  122OSM   C17S12932   4.009   4.434   7.796 -0.9167 -0.4661 -0.7621
  122OSM   H17S12933   3.966   4.331   7.797 -0.3851 -0.6913 -0.1941
  122OSM   H17T12934   3.945   4.467   7.881 -0.0738 -3.8776  1.4471
  122OSM   C18S12935   4.162   4.437   7.823 -0.3171 -0.0628  0.2173
  122OSM   H18S12936   4.173   4.394   7.925  0.5795 -3.3000 -1.1192
  122OSM   H18T12937   4.188   4.545   7.825 -1.3208  0.4370 -3.7995
  122OSM   H18U12938   4.208   4.377   7.742 -2.0172  0.0909 -0.9230
  122OSM    C1F12939   3.887   4.160   6.527 -0.0054 -0.2983  0.5724
  122OSM     OF12940   3.996   4.152   6.476  0.0593  0.3125 -0.0543
  122OSM    C2F12941   3.860   4.086   6.654 -0.2154  0.1234  0.0966
  122OSM    H2F12942   3.878   3.977   6.643 -2.0911 -0.4990  2.4062
  122OSM    H2G12943   3.754   4.096   6.684  0.3868 -0.7803  2.9021
  122OSM    C3F12944   3.953   4.148   6.771  0.5141 -0.0670 -0.2729
  122OSM    H3F12945   3.921   4.254   6.772 -1.4805 -0.6309  0.1776
  122OSM    H3G12946   4.061   4.141   6.747  1.1295 -0.8482  2.3409
  122OSM    C4F12947   3.932   4.092   6.916  0.2724  0.5056 -1.3094
  122OSM    H4F12948   4.002   4.005   6.924  0.1757  0.6025  2.1285
  122OSM    H4G12949   3.836   4.038   6.930  0.7325 -0.5914 -2.1871
  122OSM    C5F12950   3.957   4.193   7.036  0.5119 -1.1033  0.0041
  122OSM    H5F12951   3.869   4.258   7.053  1.2599 -0.5897  2.2505
  122OSM    H5G12952   4.049   4.249   7.007 -1.6773  1.0356 -3.5941
  122OSM    C6F12953   3.972   4.110   7.172 -0.3218 -0.5913  1.2059
  122OSM    H6F12954   4.059   4.046   7.148  0.7547  1.6095 -1.3351
  122OSM    H6G12955   3.883   4.045   7.185  0.4922 -2.8484 -2.8197
  122OSM    C7F12956   3.986   4.197   7.295  0.1138  0.3233  0.4646
  122OSM    H7F12957   3.888   4.246   7.311 -0.8197 -0.9988 -0.9479
  122OSM    H7G12958   4.065   4.269   7.264 -0.7129  1.1990  0.3603
  122OSM    C8F12959   4.013   4.127   7.422 -0.8336 -0.1624  0.0695
  122OSM    H8F12960   4.023   4.202   7.503 -1.1758 -0.1379  0.0912
  122OSM    H8G12961   4.106   4.069   7.404 -0.6848  1.0101 -4.0032
  122OSM    C9F12962   3.911   4.022   7.455  0.2425  0.3304 -0.1056
  122OSM    H9F12963   3.811   4.036   7.412  0.0494  0.7406  0.4665
  122OSM   C10F12964   3.939   3.912   7.528 -0.2393 -0.5125  0.7390
  122OSM   H10F12965   3.850   3.850   7.548  0.1705 -1.2269  0.3535
  122OSM   C11F12966   4.079   3.871   7.581 -0.5346 -0.0075  0.7913
  122OSM   H11F12967   4.149   3.957   7.567 -0.2106 -0.3233  0.4342
  122OSM   H11G12968   4.109   3.771   7.543 -2.0931 -0.8179  1.6183
  122OSM   C12F12969   4.073   3.863   7.733  0.0892 -0.4446 -0.1298
  122OSM   H12F12970   4.174   3.831   7.768  0.3915 -2.9755 -2.8871
  122OSM   H12G12971   3.993   3.794   7.765 -1.9258  0.2885 -3.1286
  122OSM   C13F12972   4.040   4.003   7.795  1.0518  0.1913 -0.6310
  122OSM   H13F12973   3.942   4.044   7.762 -0.1456 -2.9893 -1.4128
  122OSM   H13G12974   4.113   4.080   7.763 -0.3876  2.0480  0.3428
  122OSM   C14F12975   4.033   3.992   7.948  0.2142 -0.2346 -0.5577
  122OSM   H14F12976   4.129   4.017   7.997 -0.3351 -1.2006  1.1117
  122OSM   H14G12977   4.006   3.887   7.974  1.7003 -0.7821 -1.1500
  122OSM   C15F12978   3.941   4.091   8.012  0.4453 -0.0056 -0.0997
  122OSM   H15F12979   3.841   4.078   7.964  0.1886 -1.8756  0.8712
  122OSM   H15G12980   3.984   4.193   8.006  2.7886 -0.6604  3.1446
  122OSM   C16F12981   3.901   4.068   8.161 -0.1198  0.1861  0.9164
  122OSM   H16F12982   3.996   4.067   8.219  0.3598  3.0706  0.2962
  122OSM   H16G12983   3.841   3.975   8.176 -1.5145  0.8867 -0.1643
  122OSM   C17F12984   3.827   4.178   8.228  0.0321  0.6964  0.3347
  122OSM   H17F12985   3.881   4.272   8.200  0.9599 -0.1134 -0.6834
  122OSM   H17G12986   3.845   4.173   8.338  1.5455  0.5684  0.1044
  122OSM   C18F12987   3.687   4.170   8.189 -0.9985  0.0594  0.4163
  122OSM   H18F12988   3.621   4.243   8.240  0.0985  0.7407  0.8829
  122OSM   H18G12989   3.646   4.071   8.221 -0.1896 -0.6755 -0.7126
  122OSM   H18H12990   3.673   4.177   8.079  1.5634  0.4264  0.0541
  123OSM      N12991   0.650   5.873   6.123  0.6701 -0.3342 -0.4958
  123OSM    C1512992   0.702   5.842   5.987  0.9098 -0.5412  0.2995
  123OSM   H15A12993   0.735   5.740   5.970 -0.2421 -0.4712 -3.0744
  123OSM   H15B12994   0.785   5.907   5.964 -0.5109  0.4521 -2.4642
  123OSM   H15C12995   0.625   5.844   5.912  0.8306  1.0114  0.3910
  123OSM    C1412996   0.779   5.864   6.206  0.4109  0.1492  0.9846
  123OSM   H14A12997   0.849   5.931   6.158 -0.0667 -0.7310 -1.0369
  123OSM   H14B12998   0.826   5.767   6.210  1.9212  0.7126 -1.1793
  123OSM   H14C12999   0.757   5.905   6.304 -1.8695  0.9703  0.1839
  123OSM    C1313000   0.597   6.011   6.118  0.1284 -0.0957  0.2511
  123OSM   H13A13001   0.570   6.050   6.215 -1.4367 -2.7094  0.9727
  123OSM   H13B13002   0.508   6.008   6.057 -1.3935 -0.9561  2.3711
  123OSM   H13C13003   0.669   6.081   6.078  1.0312 -0.3117  1.4388
  123OSM    C1213004   0.551   5.773   6.166 -0.3616 -0.0929  0.0592
  123OSM   H12A13005   0.587   5.672   6.156  0.5992  0.1277  1.1417
  123OSM   H12B13006   0.468   5.785   6.097  1.7184 -1.2562 -2.8716
  123OSM    C1113007   0.495   5.785   6.306 -0.4564  0.0589  0.6827
  123OSM   H11A13008   0.587   5.776   6.368  1.0822  2.6341 -1.0432
  123OSM   H11B13009   0.429   5.698   6.329  0.4310 -0.4571  1.3715
  123OSM      P13010   0.286   5.923   6.350  0.1641 -0.0956 -0.0585
  123OSM    O1313011   0.267   6.067   6.365 -0.0213 -0.1877  0.1215
  123OSM    O1413012   0.218   5.854   6.242 -0.5162 -0.3057 -0.2490
  123OSM    O1113013   0.243   5.859   6.483 -0.7748  0.6195 -0.1259
  123OSM    O1213014   0.444   5.907   6.338  0.4894 -0.3243  0.0739
  123OSM    C1S13015   0.310   5.894   6.608  0.0519  0.0195  0.0408
  123OSM    H1S13016   0.310   6.004   6.627  0.6466  0.0603 -0.1451
  123OSM    H1T13017   0.415   5.858   6.600  0.6631  1.7298 -0.3010
  123OSM     NF13018   0.357   5.840   6.850  0.0899 -0.2946 -0.0427
  123OSM    HNF13019   0.434   5.779   6.868 -0.5933 -0.9027  0.9374
  123OSM    C2S13020   0.266   5.812   6.733 -0.1272 -0.0980  0.7514
  123OSM    H2S13021   0.161   5.843   6.750 -0.4053  0.7862 -2.0552
  123OSM    C3S13022   0.263   5.659   6.701 -0.4965 -0.0668  0.2086
  123OSM    H3S13023   0.358   5.611   6.670 -0.4807 -0.3067  0.6226
  123OSM     O313024   0.186   5.621   6.586  0.2050  0.0996 -0.6250
  123OSM    HO313025   0.175   5.708   6.547 -1.9442  0.6794  1.0615
  123OSM    C4S13026   0.214   5.577   6.815 -0.2972 -0.2173  0.5603
  123OSM    H4S13027   0.292   5.529   6.877 -0.7933 -1.5801  0.1619
  123OSM    C5S13028   0.089   5.548   6.852  0.5271 -0.0393 -0.5137
  123OSM    H5S13029   0.001   5.609   6.826  1.0160  1.0292  0.2640
  123OSM    C6S13030   0.073   5.458   6.979  0.1451  0.9098 -0.0250
  123OSM    H6S13031   0.173   5.456   7.027  1.3258  3.4241 -2.1653
  123OSM    H6T13032   0.051   5.356   6.940  0.4902  0.1787  1.6078
  123OSM    C7S13033  -0.035   5.524   7.056 -0.4543 -0.1798 -0.3962
  123OSM    H7S13034  -0.126   5.531   6.993 -2.3367 -0.6473  2.1120
  123OSM    H7T13035  -0.003   5.622   7.098 -0.3135 -0.9821  1.4686
  123OSM    C8S13036  -0.081   5.436   7.177 -0.1122  0.4588 -0.3134
  123OSM    H8S13037  -0.126   5.343   7.136 -1.2197  0.3235  1.1298
  123OSM    H8T13038  -0.169   5.486   7.223 -0.0270  0.3660 -0.0496
  123OSM    C9S13039   0.014   5.403   7.290 -0.7228 -0.2732 -0.9445
  123OSM    H9S13040   0.059   5.493   7.336 -0.0967 -0.7330 -0.6312
  123OSM    H9T13041   0.106   5.345   7.267  1.7938  2.7789  0.6864
  123OSM   C10S13042  -0.050   5.319   7.399  0.3763 -0.3754 -1.2246
  123OSM   H10S13043  -0.088   5.222   7.359  1.0725 -2.0022  1.7832
  123OSM   H10T13044  -0.143   5.366   7.439 -0.2069 -3.1636  1.0032
  123OSM   C11S13045   0.043   5.283   7.513 -0.7444 -0.1268 -0.0743
  123OSM   H11S13046   0.091   5.376   7.552 -0.5169 -0.8831  1.5119
  123OSM   H11T13047   0.118   5.218   7.464  0.4188  0.8610  0.3189
  123OSM   C12S13048  -0.020   5.212   7.636 -0.4541 -0.3193  0.7214
  123OSM   H12S13049  -0.086   5.127   7.607 -2.6428  1.5328 -0.0157
  123OSM   H12T13050  -0.092   5.278   7.688  0.7965  1.5891  0.1324
  123OSM   C13S13051   0.080   5.158   7.733 -0.1642  0.1662  0.0325
  123OSM   H13S13052   0.168   5.225   7.743 -1.6935  2.1939  0.3431
  123OSM   H13T13053   0.129   5.066   7.695 -0.4839 -0.2092  0.5190
  123OSM   C14S13054   0.026   5.121   7.868 -0.2094 -0.3203 -0.0889
  123OSM   H14S13055  -0.075   5.081   7.847 -0.7397  1.1008 -0.3180
  123OSM   H14T13056   0.006   5.206   7.936 -2.1904 -0.2038 -0.7604
  123OSM   C15S13057   0.124   5.018   7.934 -0.7281 -0.0963  0.7252
  123OSM   H15S13058   0.220   5.070   7.957 -0.8502  0.7439 -0.5627
  123OSM   H15T13059   0.142   4.929   7.870  0.5363 -0.1735  1.1564
  123OSM   C16S13060   0.064   4.968   8.064 -0.0469 -0.0099 -0.5846
  123OSM   H16S13061   0.104   4.868   8.093 -1.1106  0.3984  2.8296
  123OSM   H16T13062  -0.045   4.953   8.051  0.1845 -1.6008 -0.9059
  123OSM   C17S13063   0.089   5.062   8.183  0.2690 -0.9963  0.4652
  123OSM   H17S13064   0.037   5.159   8.170 -0.0974 -0.8869  2.3941
  123OSM   H17T13065   0.197   5.085   8.186 -0.1867  1.4357  0.0834
  123OSM   C18S13066   0.051   4.999   8.317  0.2866 -0.2003 -0.4069
  123OSM   H18S13067  -0.046   4.945   8.309  0.2778 -0.4356  1.1049
  123OSM   H18T13068   0.051   5.068   8.403 -0.7149 -1.9640  1.0730
  123OSM   H18U13069   0.128   4.921   8.338 -0.6481 -0.6239  1.6127
  123OSM    C1F13070   0.346   5.953   6.921 -0.0168  0.0167 -0.0942
  123OSM     OF13071   0.270   6.038   6.888  0.4011 -0.2515 -0.1133
  123OSM    C2F13072   0.427   5.976   7.045 -0.5470  0.0592 -0.4498
  123OSM    H2F13073   0.394   6.076   7.081 -0.3219 -0.4379  1.1995
  123OSM    H2G13074   0.536   5.978   7.022 -0.7586  2.0962 -1.4756
  123OSM    C3F13075   0.417   5.866   7.162  0.6011 -0.8712 -0.0756
  123OSM    H3F13076   0.464   5.892   7.260 -2.4638 -3.5298  2.3354
  123OSM    H3G13077   0.467   5.774   7.123 -1.7098 -3.0323  1.7084
  123OSM    C4F13078   0.275   5.832   7.192 -0.5236  0.0583  0.4746
  123OSM    H4F13079   0.226   5.812   7.094 -0.7381 -2.3780  1.0287
  123OSM    H4G13080   0.218   5.919   7.231  2.7160  1.9269  1.4080
  123OSM    C5F13081   0.254   5.699   7.280 -0.6331  0.2132 -0.1926
  123OSM    H5F13082   0.324   5.628   7.231  0.6769  0.6944  0.9229
  123OSM    H5G13083   0.144   5.680   7.280 -0.9482  1.4088  2.7677
  123OSM    C6F13084   0.290   5.716   7.422 -0.0065  0.1850  0.0627
  123OSM    H6F13085   0.401   5.720   7.431 -0.0966  0.4904  1.2190
  123OSM    H6G13086   0.260   5.624   7.475  1.3505  0.3607  1.1729
  123OSM    C7F13087   0.225   5.837   7.499  0.1793  0.0271  0.4347
  123OSM    H7F13088   0.119   5.844   7.466  0.5854  2.1490 -0.5739
  123OSM    H7G13089   0.274   5.931   7.466 -1.6653  1.5598  1.8270
  123OSM    C8F13090   0.243   5.817   7.652  0.8578 -0.4888 -0.2277
  123OSM    H8F13091   0.248   5.906   7.719 -3.3451  0.1869 -0.5532
  123OSM    H8G13092   0.340   5.768   7.675  0.2239 -1.9060 -0.5035
  123OSM    C9F13093   0.130   5.735   7.708 -0.4405 -0.4466  0.3103
  123OSM    H9F13094   0.032   5.786   7.700  0.1182  0.3240 -2.7425
  123OSM   C10F13095   0.140   5.610   7.756  0.6132  0.2613 -0.5726
  123OSM   H10F13096   0.054   5.552   7.792  1.4108 -0.9450 -0.5602
  123OSM   C11F13097   0.265   5.536   7.776 -0.3782  0.5315 -0.0003
  123OSM   H11F13098   0.344   5.568   7.705  0.9584  1.1617  1.6999
  123OSM   H11G13099   0.255   5.430   7.742  2.3020  0.6784 -1.5612
  123OSM   C12F13100   0.315   5.545   7.918  0.6473  0.0022  0.1069
  123OSM   H12F13101   0.273   5.637   7.963 -1.8626 -0.8907 -0.2588
  123OSM   H12G13102   0.426   5.549   7.928  0.5126 -0.4039  2.5170
  123OSM   C13F13103   0.285   5.426   8.009  0.0362  0.2071  0.0275
  123OSM   H13F13104   0.297   5.336   7.946  2.1418  2.1745 -2.6562
  123OSM   H13G13105   0.180   5.434   8.043  0.1985  1.6749  0.2719
  123OSM   C14F13106   0.369   5.420   8.137  0.6216  0.3000 -0.1288
  123OSM   H14F13107   0.335   5.509   8.194 -1.8771 -0.0902 -0.8561
  123OSM   H14G13108   0.474   5.434   8.104  0.4913  1.0122 -0.2467
  123OSM   C15F13109   0.347   5.290   8.214  0.2985  0.1648  0.9194
  123OSM   H15F13110   0.346   5.206   8.141 -0.3853  0.0274  1.0767
  123OSM   H15G13111   0.252   5.297   8.271 -0.0281  1.5279  0.2381
  123OSM   C16F13112   0.464   5.266   8.314  0.0164 -0.7456  0.5719
  123OSM   H16F13113   0.550   5.287   8.246 -0.0678 -1.8440  0.1122
  123OSM   H16G13114   0.475   5.163   8.354 -0.5339 -0.9268  0.2614
  123OSM   C17F13115   0.481   5.367   8.428 -0.2482  0.6694 -0.5107
  123OSM   H17F13116   0.469   5.470   8.388 -2.1442 -0.2861 -2.5895
  123OSM   H17G13117   0.582   5.357   8.472 -0.5225 -1.0807 -0.2083
  123OSM   C18F13118   0.379   5.347   8.540  0.5028  0.0496 -0.6839
  123OSM   H18F13119   0.371   5.435   8.608  1.3704  1.6429 -2.5476
  123OSM   H18G13120   0.401   5.255   8.597 -2.6103  0.3190  1.2095
  123OSM   H18H13121   0.279   5.331   8.494  0.5510  1.3040 -1.2699
  124OSM      N13122   2.453   2.002   6.332 -0.2550  0.4629 -0.0397
  124OSM    C1513123   2.364   2.074   6.422  0.2414 -0.2503 -0.4528
  124OSM   H15A13124   2.410   2.127   6.504 -2.3707  1.3928  0.0602
  124OSM   H15B13125   2.290   2.012   6.468  0.9431  0.8924  2.4024
  124OSM   H15C13126   2.320   2.161   6.375 -1.1938  0.4939  2.1204
  124OSM    C1413127   2.526   2.122   6.263 -0.6785  0.9371  0.0808
  124OSM   H14A13128   2.457   2.191   6.217  0.5838  2.8757  0.9441
  124OSM   H14B13129   2.592   2.083   6.188  0.2522  0.8969  0.9010
  124OSM   H14C13130   2.571   2.183   6.340 -0.1021  0.8001 -0.1409
  124OSM    C1313131   2.556   1.927   6.412  0.0356 -0.0901 -0.1514
  124OSM   H13A13132   2.598   1.989   6.490  1.4698 -0.3854 -0.6522
  124OSM   H13B13133   2.628   1.876   6.350  1.2612  0.4909  0.7546
  124OSM   H13C13134   2.498   1.855   6.467 -0.6156  0.9496  0.5549
  124OSM    C1213135   2.390   1.909   6.236 -0.6478  0.1693 -0.1753
  124OSM   H12A13136   2.454   1.896   6.150  0.5963 -0.0466  0.7484
  124OSM   H12B13137   2.295   1.949   6.204 -0.6507 -1.1498 -1.9334
  124OSM    C1113138   2.368   1.763   6.281 -0.3797 -0.0435 -0.1490
  124OSM   H11A13139   2.315   1.755   6.379  0.4840  0.9945  0.4251
  124OSM   H11B13140   2.471   1.723   6.292  0.8191  2.8813  0.3332
  124OSM      P13141   2.159   1.742   6.132 -0.1581 -0.1386  0.0521
  124OSM    O1313142   2.192   1.831   6.016  0.1885  0.2750 -0.3526
  124OSM    O1413143   2.060   1.635   6.108 -1.1426  0.1322  0.5365
  124OSM    O1113144   2.105   1.826   6.250 -0.3829  0.0020  0.7657
  124OSM    O1213145   2.305   1.693   6.180 -0.5524 -0.3636 -0.1829
  124OSM    C1S13146   2.039   1.766   6.360  0.3121  0.1933  0.3723
  124OSM    H1S13147   2.092   1.679   6.403 -0.0199 -0.4630 -0.5141
  124OSM    H1T13148   1.932   1.747   6.337 -0.1382  3.3853 -0.6539
  124OSM     NF13149   1.937   1.805   6.588 -0.1465 -0.7388 -0.4356
  124OSM    HNF13150   1.845   1.840   6.606  0.0437  1.8218 -3.5536
  124OSM    C2S13151   2.006   1.870   6.475  1.3231  0.9025 -0.7772
  124OSM    H2S13152   2.106   1.911   6.500  1.8979  0.8213 -2.7610
  124OSM    C3S13153   1.922   1.993   6.430  0.2960 -1.1066  0.8760
  124OSM    H3S13154   1.818   1.957   6.416  0.0891 -0.9764  1.9531
  124OSM     O313155   1.948   2.033   6.295  0.1924 -0.2494 -0.3812
  124OSM    HO313156   1.999   1.959   6.262  0.3997 -0.4437  0.3568
  124OSM    C4S13157   1.922   2.097   6.536 -0.3634 -0.3189 -0.0303
  124OSM    H4S13158   1.839   2.087   6.607  0.2415  1.5813  0.9924
  124OSM    C5S13159   2.003   2.202   6.546  0.3665  0.0501  0.6231
  124OSM    H5S13160   2.085   2.215   6.473  0.4280 -0.4168  0.6022
  124OSM    C6S13161   2.001   2.297   6.660  0.0725 -0.7323  1.1708
  124OSM    H6S13162   1.926   2.377   6.639 -0.1320 -1.1185  0.3941
  124OSM    H6T13163   2.096   2.352   6.680 -2.9287  5.2988  1.0883
  124OSM    C7S13164   1.961   2.226   6.791  0.0285 -0.5115 -0.0421
  124OSM    H7S13165   1.878   2.154   6.777  1.4717 -2.1396 -0.4778
  124OSM    H7T13166   1.923   2.305   6.859 -1.0498  0.0149 -1.1965
  124OSM    C8S13167   2.083   2.151   6.849  0.1219  0.4769 -0.1092
  124OSM    H8S13168   2.145   2.199   6.927  0.3534 -0.8939  0.5903
  124OSM    H8T13169   2.149   2.122   6.765 -1.2244 -0.5896 -0.8427
  124OSM    C9S13170   2.026   2.023   6.911 -0.0012  0.5287 -0.4493
  124OSM    H9S13171   1.974   1.971   6.827  0.3696 -0.5432 -0.0269
  124OSM    H9T13172   1.959   2.044   6.997 -1.1175  0.1659 -1.2007
  124OSM   C10S13173   2.136   1.936   6.973  0.7871  0.3397 -0.3826
  124OSM   H10S13174   2.208   2.000   7.028  0.0403  1.5777 -0.8149
  124OSM   H10T13175   2.186   1.875   6.895 -0.1236  0.9412 -1.4608
  124OSM   C11S13176   2.076   1.825   7.059  0.1489  0.1892 -0.0079
  124OSM   H11S13177   2.120   1.729   7.026  0.3964  0.8121 -1.5769
  124OSM   H11T13178   1.968   1.810   7.041 -0.0247  2.4525 -1.2466
  124OSM   C12S13179   2.113   1.853   7.207 -0.6039  0.0839  0.4742
  124OSM   H12S13180   2.223   1.844   7.201 -0.7776 -1.3240 -1.4100
  124OSM   H12T13181   2.071   1.767   7.264 -0.5532 -0.5319 -0.3957
  124OSM   C13S13182   2.062   1.985   7.263 -0.0083 -0.0970 -0.5489
  124OSM   H13S13183   1.956   2.007   7.240 -0.1370  1.6698  1.3514
  124OSM   H13T13184   2.134   2.060   7.224 -0.3989  0.4762 -0.1803
  124OSM   C14S13185   2.079   1.990   7.423 -0.0664  0.0564 -0.3619
  124OSM   H14S13186   2.011   1.919   7.475  1.2922 -0.0989  1.3075
  124OSM   H14T13187   2.043   2.092   7.447 -0.5957 -0.4754  1.1897
  124OSM   C15S13188   2.227   1.980   7.470  0.2061 -0.1521  0.0843
  124OSM   H15S13189   2.280   2.060   7.413 -1.4795  0.9665  0.0250
  124OSM   H15T13190   2.273   1.882   7.445 -1.2046 -1.3445  1.8790
  124OSM   C16S13191   2.250   2.013   7.618  0.9829  0.6868 -0.1488
  124OSM   H16S13192   2.181   2.095   7.647  0.3553 -0.0991  0.6532
  124OSM   H16T13193   2.357   2.035   7.634  1.2498 -1.3825  1.2289
  124OSM   C17S13194   2.208   1.895   7.709  0.1648 -0.2752  0.7390
  124OSM   H17S13195   2.266   1.811   7.665  1.6321  0.0147  2.0230
  124OSM   H17T13196   2.101   1.874   7.685 -0.0253  2.0096 -0.6538
  124OSM   C18S13197   2.237   1.916   7.860 -0.7721 -0.1998  0.8751
  124OSM   H18S13198   2.192   1.830   7.914 -1.3939  0.3283  1.2177
  124OSM   H18T13199   2.195   2.008   7.907 -0.8430 -0.7991  2.0320
  124OSM   H18U13200   2.348   1.917   7.863 -0.7569  2.1943  1.7193
  124OSM    C1F13201   1.999   1.705   6.653 -0.3929  0.1508  0.2946
  124OSM     OF13202   2.114   1.674   6.623 -0.6070  0.2000 -0.7563
  124OSM    C2F13203   1.922   1.627   6.760 -0.3300  0.0297 -0.4356
  124OSM    H2F13204   1.827   1.579   6.730 -1.0232 -0.9060  2.8214
  124OSM    H2G13205   1.889   1.707   6.831  1.3000  0.4919 -0.1618
  124OSM    C3F13206   2.017   1.525   6.830  0.3947  0.6774 -0.1044
  124OSM    H3F13207   2.107   1.573   6.872  0.0591  3.2463 -2.0680
  124OSM    H3G13208   2.044   1.440   6.763 -2.0512 -2.6393  2.6908
  124OSM    C4F13209   1.945   1.461   6.953  0.2067  0.8614  0.0677
  124OSM    H4F13210   1.865   1.391   6.920  0.1363 -0.1932  2.3012
  124OSM    H4G13211   1.910   1.542   7.021  0.2351  1.2476 -0.3761
  124OSM    C5F13212   2.037   1.370   7.038  0.2251 -0.0327  0.1244
  124OSM    H5F13213   2.099   1.312   6.966 -1.7219 -1.9727 -0.1138
  124OSM    H5G13214   1.964   1.297   7.079 -0.3983  0.1596 -0.6312
  124OSM    C6F13215   2.102   1.431   7.164  0.2775 -0.5110  0.5713
  124OSM    H6F13216   2.035   1.505   7.214 -0.2239 -1.2010  0.9367
  124OSM    H6G13217   2.200   1.473   7.132 -0.0297 -0.8676 -0.9201
  124OSM    C7F13218   2.120   1.332   7.274 -0.0959  0.5459  0.1778
  124OSM    H7F13219   2.187   1.253   7.234  0.3078 -0.0094  1.8495
  124OSM    H7G13220   2.024   1.282   7.297 -0.5897  1.2910 -0.2097
  124OSM    C8F13221   2.168   1.406   7.400 -0.6407 -0.3250  0.3225
  124OSM    H8F13222   2.095   1.489   7.409 -0.8869 -0.6046  0.9598
  124OSM    H8G13223   2.267   1.451   7.377 -1.6021  1.8239  0.1142
  124OSM    C9F13224   2.182   1.319   7.524 -0.3924  0.0829  0.1155
  124OSM    H9F13225   2.252   1.235   7.513 -2.1439 -1.4498  0.0414
  124OSM   C10F13226   2.123   1.328   7.640  0.0797  0.5172  0.0576
  124OSM   H10F13227   2.149   1.250   7.713  0.0902 -0.1605 -0.6658
  124OSM   C11F13228   2.009   1.420   7.672  0.3264  0.1101  0.3260
  124OSM   H11F13229   1.915   1.362   7.692  1.7056 -2.8307 -1.1377
  124OSM   H11G13230   1.979   1.488   7.590 -2.0622  0.4637  1.3933
  124OSM   C12F13231   2.039   1.508   7.793  0.0844  0.1136 -0.1830
  124OSM   H12F13232   1.956   1.582   7.803 -0.6683 -0.9305  1.9681
  124OSM   H12G13233   2.133   1.566   7.783  0.3175  0.5071  3.0400
  124OSM   C13F13234   2.037   1.427   7.927 -0.0731 -0.0558 -0.1293
  124OSM   H13F13235   2.136   1.376   7.923  0.3855  0.8433 -3.8358
  124OSM   H13G13236   1.950   1.357   7.928 -0.6339  0.5641  2.5494
  124OSM   C14F13237   2.028   1.514   8.053 -0.0939 -1.3292 -0.4485
  124OSM   H14F13238   1.939   1.580   8.057  0.5296 -0.5128  0.3621
  124OSM   H14G13239   2.119   1.576   8.049 -1.2898  0.5035 -0.2916
  124OSM   C15F13240   2.038   1.430   8.177  0.1655 -0.7100 -0.7588
  124OSM   H15F13241   2.146   1.403   8.188  1.0289  2.2904 -1.1629
  124OSM   H15G13242   1.991   1.330   8.162  2.2647 -1.8327 -0.3081
  124OSM   C16F13243   1.994   1.496   8.301  0.1689 -0.6320 -0.2767
  124OSM   H16F13244   1.885   1.514   8.312 -0.1761 -2.5324 -0.1512
  124OSM   H16G13245   2.047   1.593   8.299  1.4093 -1.2027 -4.3501
  124OSM   C17F13246   2.013   1.400   8.422 -0.6188  0.3262 -0.2695
  124OSM   H17F13247   2.120   1.372   8.425 -0.7386 -0.6071 -2.4308
  124OSM   H17G13248   1.961   1.302   8.415  1.1047 -0.5964 -0.7640
  124OSM   C18F13249   1.978   1.467   8.557  0.2394  0.2478  0.0664
  124OSM   H18F13250   1.998   1.408   8.649  1.7450 -0.9948 -1.0150
  124OSM   H18G13251   1.868   1.483   8.558  0.3908  1.4395  1.9299
  124OSM   H18H13252   2.036   1.561   8.564 -0.4281  0.8753 -2.0351
  125OSM      N13253   5.241   0.753   5.918  0.3099  0.0770  0.0769
  125OSM    C1513254   5.143   0.644   5.879  0.1378  0.1557  0.0200
  125OSM   H15A13255   5.161   0.609   5.779  0.5771  0.5607 -0.0439
  125OSM   H15B13256   5.041   0.670   5.907  0.4053 -1.3135  2.7294
  125OSM   H15C13257   5.159   0.569   5.956 -1.6083  1.5064  1.8344
  125OSM    C1413258   5.380   0.703   5.914  0.0010  1.0333 -0.1676
  125OSM   H14A13259   5.407   0.649   5.824 -2.5055 -1.7526  0.5837
  125OSM   H14B13260   5.402   0.636   5.995  2.2841  0.1386 -1.4313
  125OSM   H14C13261   5.458   0.778   5.922  3.0559 -1.9177 -0.1149
  125OSM    C1313262   5.217   0.857   5.813 -0.1624 -0.2633  1.0830
  125OSM   H13A13263   5.256   0.837   5.715  1.4939  0.2126  1.6074
  125OSM   H13B13264   5.278   0.945   5.829 -2.1080  1.3424  0.1979
  125OSM   H13C13265   5.115   0.892   5.810  1.0335  3.8103  1.4487
  125OSM    C1213266   5.198   0.804   6.055  0.4013  0.3925  0.2562
  125OSM   H12A13267   5.095   0.832   6.039 -0.2741 -1.8106  0.4247
  125OSM   H12B13268   5.262   0.887   6.080  1.0658  0.2868 -1.0083
  125OSM    C1113269   5.199   0.703   6.174  0.2928  0.6751  0.1419
  125OSM   H11A13270   5.187   0.761   6.268  1.2609  0.5298  0.3626
  125OSM   H11B13271   5.303   0.666   6.183  0.1753 -0.7437 -2.9204
  125OSM      P13272   4.960   0.616   6.181 -0.4180  0.3040  0.3504
  125OSM    O1313273   4.911   0.729   6.095  0.1970  0.0832  0.6425
  125OSM    O1413274   4.886   0.488   6.155 -0.3831  0.3323  0.0937
  125OSM    O1113275   4.940   0.664   6.327  0.7179  0.4407  0.2639
  125OSM    O1213276   5.113   0.591   6.152 -0.3061  0.0049 -0.1219
  125OSM    C1S13277   4.982   0.587   6.438 -0.2766 -0.0193  0.2188
  125OSM    H1S13278   5.028   0.490   6.409  0.3229 -0.4735  2.4974
  125OSM    H1T13279   4.900   0.560   6.507  0.2798  1.3932  1.4615
  125OSM     NF13280   5.132   0.577   6.642  0.0574  0.1144  0.2509
  125OSM    HNF13281   5.103   0.586   6.737 -0.7535 -0.2646  0.0427
  125OSM    C2S13282   5.081   0.663   6.533 -0.8527  0.5126  0.2237
  125OSM    H2S13283   5.176   0.685   6.478 -1.0582 -0.3004 -0.4836
  125OSM    C3S13284   5.009   0.792   6.586 -0.3552  0.3815 -0.7061
  125OSM    H3S13285   4.919   0.777   6.649  0.1108  2.7563  0.6417
  125OSM     O313286   4.971   0.881   6.480  0.4326 -0.1750  0.1875
  125OSM    HO313287   4.997   0.836   6.400  1.2676  2.7747 -1.3001
  125OSM    C4S13288   5.103   0.867   6.672  0.4770 -0.5522  0.0437
  125OSM    H4S13289   5.180   0.917   6.611  2.2845 -2.7603  0.3769
  125OSM    C5S13290   5.095   0.888   6.801 -0.5049 -0.0617 -0.7875
  125OSM    H5S13291   5.009   0.844   6.854  0.0827  0.5930  0.7662
  125OSM    C6S13292   5.187   0.975   6.883  0.4541  0.4683 -0.0981
  125OSM    H6S13293   5.132   1.055   6.937  2.7496  2.2261 -0.1989
  125OSM    H6T13294   5.259   1.025   6.814 -0.0455  1.3457  0.0061
  125OSM    C7S13295   5.252   0.890   6.998  0.2278  0.5013  0.0830
  125OSM    H7S13296   5.304   0.808   6.944 -0.7778  0.3812 -0.7272
  125OSM    H7T13297   5.166   0.851   7.057 -0.9206  1.0328 -1.1948
  125OSM    C8S13298   5.346   0.970   7.087 -0.3966 -0.3322 -0.1744
  125OSM    H8S13299   5.299   1.063   7.127 -0.6036 -0.5241  0.0340
  125OSM    H8T13300   5.439   0.993   7.030 -3.1626  2.9132 -3.9346
  125OSM    C9S13301   5.394   0.888   7.216 -0.2964  0.1653 -0.0904
  125OSM    H9S13302   5.490   0.833   7.203 -0.2073  0.1003  0.7479
  125OSM    H9T13303   5.310   0.823   7.248 -1.6412  0.4277 -2.7887
  125OSM   C10S13304   5.432   0.988   7.329  0.3796  0.5377 -0.0454
  125OSM   H10S13305   5.351   1.063   7.328 -0.9802 -0.8870 -0.6831
  125OSM   H10T13306   5.527   1.044   7.317  1.1521 -0.3809  1.3772
  125OSM   C11S13307   5.440   0.932   7.465  0.0397  0.4870 -0.8346
  125OSM   H11S13308   5.516   0.851   7.465 -0.4932 -0.0624  0.7685
  125OSM   H11T13309   5.346   0.884   7.500 -0.2774  1.6736  0.0063
  125OSM   C12S13310   5.474   1.036   7.574 -0.7757 -0.0519 -0.7085
  125OSM   H12S13311   5.375   1.063   7.619 -1.4169  1.9257 -3.0915
  125OSM   H12T13312   5.517   1.124   7.523 -2.2362  0.5647 -0.9363
  125OSM   C13S13313   5.576   0.991   7.681 -0.0120 -0.6409 -0.2869
  125OSM   H13S13314   5.612   1.066   7.753 -0.7992 -1.3286  0.8535
  125OSM   H13T13315   5.663   0.956   7.620  0.9981 -1.2478  1.4272
  125OSM   C14S13316   5.519   0.875   7.760 -0.2419  0.4664 -0.1012
  125OSM   H14S13317   5.608   0.830   7.810 -1.7572 -0.5504  1.7832
  125OSM   H14T13318   5.473   0.796   7.697  2.0828 -1.4946  0.4999
  125OSM   C15S13319   5.417   0.920   7.860 -0.3786 -0.1585  0.0565
  125OSM   H15S13320   5.329   0.968   7.811 -0.2215 -0.1918 -0.2541
  125OSM   H15T13321   5.459   1.000   7.924 -0.6011  2.0121 -2.3510
  125OSM   C16S13322   5.363   0.809   7.957  0.5569 -0.7918  0.8561
  125OSM   H16S13323   5.293   0.751   7.893  1.1919  1.1777 -1.8333
  125OSM   H16T13324   5.297   0.870   8.022 -0.8532 -1.3577  0.0060
  125OSM   C17S13325   5.473   0.735   8.028  0.1716 -0.4831 -0.0044
  125OSM   H17S13326   5.553   0.805   8.058  1.0903 -0.6641 -1.9041
  125OSM   H17T13327   5.527   0.669   7.957 -1.9119 -2.1985 -0.0961
  125OSM   C18S13328   5.431   0.659   8.149 -0.5107  0.2926 -0.9044
  125OSM   H18S13329   5.411   0.722   8.238  0.4002  0.4807 -0.8257
  125OSM   H18T13330   5.513   0.589   8.172 -0.2607  0.0404 -2.4142
  125OSM   H18U13331   5.334   0.615   8.116 -1.9443  1.9516  0.8382
  125OSM    C1F13332   5.211   0.473   6.621 -0.2221 -0.3905  0.5191
  125OSM     OF13333   5.255   0.446   6.508  0.6313  0.5188  0.2599
  125OSM    C2F13334   5.241   0.378   6.734  0.1217  0.0179 -0.9244
  125OSM    H2F13335   5.151   0.313   6.735  0.1209 -0.0389 -2.4683
  125OSM    H2G13336   5.246   0.437   6.828 -0.4790 -2.8524  1.0449
  125OSM    C3F13337   5.376   0.304   6.722  0.4749  0.3212  0.2834
  125OSM    H3F13338   5.457   0.380   6.709 -0.4850  1.2945 -0.1284
  125OSM    H3G13339   5.383   0.230   6.639  1.9253 -1.1454  1.6550
  125OSM    C4F13340   5.420   0.216   6.835 -0.3709  0.3919  0.3115
  125OSM    H4F13341   5.428   0.278   6.928 -1.6694  2.3801 -0.8165
  125OSM    H4G13342   5.515   0.163   6.819 -1.0129 -0.8455  0.4876
  125OSM    C5F13343   5.313   0.108   6.862 -0.3530 -0.2254  0.1024
  125OSM    H5F13344   5.304   0.044   6.772 -0.6041 -1.9774  1.3219
  125OSM    H5G13345   5.215   0.154   6.888 -1.1469 -2.0003  0.3508
  125OSM    C6F13346   5.352   0.015   6.979  0.0246  0.1344 -0.2975
  125OSM    H6F13347   5.456  -0.020   6.967 -0.4340 -0.9560 -1.3334
  125OSM    H6G13348   5.281  -0.071   6.984  1.3471 -0.9690  0.3404
  125OSM    C7F13349   5.330   0.088   7.115  0.3705 -0.3826  0.5295
  125OSM    H7F13350   5.223   0.096   7.143 -0.1202 -1.4871 -0.8666
  125OSM    H7G13351   5.377   0.188   7.102  1.3443 -0.9442 -0.5459
  125OSM    C8F13352   5.392   0.013   7.236  0.6241  0.3093  0.7478
  125OSM    H8F13353   5.500   0.005   7.214  1.0598  0.0398  2.7651
  125OSM    H8G13354   5.361  -0.094   7.239  0.3508  0.2663 -1.6166
  125OSM    C9F13355   5.369   0.081   7.367  0.6104  0.0163 -0.4867
  125OSM    H9F13356   5.342   0.187   7.356 -2.7125 -0.6919 -0.1846
  125OSM   C10F13357   5.369   0.020   7.489  0.1758  0.2245 -0.3209
  125OSM   H10F13358   5.356   0.084   7.578  0.3964  1.0224 -0.8463
  125OSM   C11F13359   5.384  -0.131   7.516  0.7570 -0.9686 -0.6404
  125OSM   H11F13360   5.477  -0.138   7.576 -0.2509  0.5499  1.1687
  125OSM   H11G13361   5.387  -0.188   7.420 -1.4487 -0.4986 -1.0438
  125OSM   C12F13362   5.267  -0.207   7.588  0.3718 -1.2893  0.1613
  125OSM   H12F13363   5.284  -0.316   7.579 -1.0432 -1.4626 -0.7547
  125OSM   H12G13364   5.170  -0.180   7.540 -0.0660  0.6993  1.9971
  125OSM   C13F13365   5.249  -0.175   7.735 -0.1345 -0.9517 -0.7325
  125OSM   H13F13366   5.180  -0.251   7.777 -1.7806 -0.0133 -1.6547
  125OSM   H13G13367   5.196  -0.077   7.739 -1.5836 -1.6764 -1.3863
  125OSM   C14F13368   5.370  -0.163   7.820 -0.6331  0.5005 -0.4003
  125OSM   H14F13369   5.436  -0.088   7.772 -2.7694  2.4774 -0.4530
  125OSM   H14G13370   5.430  -0.256   7.814  1.9357  2.0849 -0.5194
  125OSM   C15F13371   5.332  -0.127   7.963  0.0216 -0.2331 -0.3169
  125OSM   H15F13372   5.264  -0.039   7.952 -0.6559 -0.5219  1.2903
  125OSM   H15G13373   5.422  -0.097   8.020 -0.1189  0.9772 -0.7061
  125OSM   C16F13374   5.251  -0.231   8.034 -0.7679  0.4817  0.2918
  125OSM   H16F13375   5.315  -0.321   8.045  0.4268  1.3215  0.4336
  125OSM   H16G13376   5.161  -0.269   7.981 -0.1944  1.7427 -1.7194
  125OSM   C17F13377   5.222  -0.197   8.179 -0.1538 -0.1176  0.2183
  125OSM   H17F13378   5.313  -0.159   8.229 -0.0893 -0.3897  0.3117
  125OSM   H17G13379   5.182  -0.281   8.241  1.9626 -0.0986  1.6882
  125OSM   C18F13380   5.127  -0.085   8.196  0.7678 -0.2181 -0.7446
  125OSM   H18F13381   5.026  -0.121   8.169  0.6808 -0.3246 -0.2695
  125OSM   H18G13382   5.153   0.008   8.141 -1.6997  0.4425 -0.8942
  125OSM   H18H13383   5.118  -0.064   8.304 -1.7036 -3.1049 -0.2466
  126OSM      N13384   1.820   5.103   6.673  0.2918  0.1575 -0.5492
  126OSM    C1513385   1.804   4.964   6.624 -0.6850  0.1068 -0.3333
  126OSM   H15A13386   1.703   4.930   6.639 -1.2751  2.1735  0.7009
  126OSM   H15B13387   1.869   4.894   6.676 -1.0264 -1.7339 -2.2500
  126OSM   H15C13388   1.819   4.960   6.517  1.4544 -0.3988 -0.0570
  126OSM    C1413389   1.723   5.194   6.609 -0.1140 -0.3659 -0.1454
  126OSM   H14A13390   1.626   5.199   6.655  0.5786  0.3826  1.2925
  126OSM   H14B13391   1.727   5.173   6.503  3.6674  0.4342 -0.3123
  126OSM   H14C13392   1.767   5.292   6.619 -2.1579  0.4372  1.6517
  126OSM    C1313393   1.802   5.116   6.819  0.4203  0.8776 -0.1067
  126OSM   H13A13394   1.853   5.039   6.875 -1.4488  0.9153  1.7929
  126OSM   H13B13395   1.700   5.103   6.853  0.2794 -1.3800 -1.2152
  126OSM   H13C13396   1.833   5.210   6.862 -0.7110  1.2568 -0.0815
  126OSM    C1213397   1.968   5.144   6.642 -0.1555  0.3601 -0.1873
  126OSM   H12A13398   1.981   5.114   6.539 -1.3342 -2.0296  0.2794
  126OSM   H12B13399   2.038   5.081   6.694 -1.8636 -0.4531  1.2280
  126OSM    C1113400   2.024   5.286   6.657  0.0239 -0.2286  0.3719
  126OSM   H11A13401   2.134   5.286   6.645 -0.1633 -2.5590 -2.5120
  126OSM   H11B13402   1.993   5.322   6.757  0.2435 -1.6435  0.9717
  126OSM      P13403   1.974   5.386   6.411 -0.2917 -0.0100 -0.3519
  126OSM    O1313404   2.052   5.265   6.364  0.1848  0.2545  0.2865
  126OSM    O1413405   1.844   5.418   6.354 -0.5875 -0.4000 -0.0014
  126OSM    O1113406   2.066   5.514   6.399  0.0872  0.4879 -0.6031
  126OSM    O1213407   1.962   5.379   6.568 -0.0767  0.1385 -0.0667
  126OSM    C1S13408   2.039   5.644   6.451  0.2055 -0.4856  0.2637
  126OSM    H1S13409   1.931   5.665   6.464  0.0281 -0.7408 -0.6925
  126OSM    H1T13410   2.080   5.719   6.380 -0.0444 -0.8680 -0.2917
  126OSM     NF13411   2.028   5.804   6.646  0.1209 -0.4557 -0.1515
  126OSM    HNF13412   2.100   5.874   6.649  0.6617 -0.9422 -1.3316
  126OSM    C2S13413   2.082   5.676   6.602  0.3170  0.0503 -0.1468
  126OSM    H2S13414   2.032   5.596   6.660 -0.1956  1.2066  1.0544
  126OSM    C3S13415   2.230   5.671   6.615 -0.1499  0.4721 -0.4148
  126OSM    H3S13416   2.278   5.754   6.557  0.6339 -0.1920 -0.7343
  126OSM     O313417   2.287   5.551   6.553 -0.2469  0.2502 -0.1406
  126OSM    HO313418   2.217   5.513   6.499  1.1232 -0.3617 -1.5789
  126OSM    C4S13419   2.269   5.674   6.761 -0.7379  0.3682 -0.2961
  126OSM    H4S13420   2.226   5.596   6.826  0.4886  0.1614  0.2983
  126OSM    C5S13421   2.363   5.750   6.820 -0.8910  1.0480  0.0678
  126OSM    H5S13422   2.417   5.826   6.761  0.3485 -0.4674 -0.7953
  126OSM    C6S13423   2.394   5.744   6.969  0.2538 -0.5010  0.1391
  126OSM    H6S13424   2.497   5.704   6.983  0.2232 -0.7530 -0.3014
  126OSM    H6T13425   2.321   5.672   7.011  0.7058 -0.7875  0.4426
  126OSM    C7S13426   2.390   5.886   7.044 -0.0652 -0.5665 -0.4486
  126OSM    H7S13427   2.298   5.941   7.015 -1.1255 -2.9444 -1.9138
  126OSM    H7T13428   2.481   5.944   7.017 -0.2532 -1.1462 -2.4406
  126OSM    C8S13429   2.405   5.857   7.196 -0.0573 -0.2970  0.2671
  126OSM    H8S13430   2.504   5.808   7.210  0.5115  0.3850 -1.1597
  126OSM    H8T13431   2.326   5.789   7.234 -1.0368  1.4415  1.4864
  126OSM    C9S13432   2.408   5.984   7.277 -0.0974 -0.2915  0.0272
  126OSM    H9S13433   2.306   6.026   7.271 -0.0732 -0.2798 -0.3472
  126OSM    H9T13434   2.486   6.051   7.234 -0.1904 -0.3102 -0.1701
  126OSM   C10S13435   2.454   5.975   7.423  0.2944 -0.4727  0.1802
  126OSM   H10S13436   2.488   6.074   7.459 -0.1936  0.4613 -1.8110
  126OSM   H10T13437   2.542   5.907   7.415  0.3758 -0.2910 -0.5871
  126OSM   C11S13438   2.341   5.908   7.506 -0.7333  0.1941 -0.0178
  126OSM   H11S13439   2.294   5.824   7.451 -0.3555 -0.2993  0.4025
  126OSM   H11T13440   2.264   5.985   7.527 -0.1812  0.5856  0.6131
  126OSM   C12S13441   2.398   5.852   7.637  0.2664 -0.8407 -0.5859
  126OSM   H12S13442   2.460   5.922   7.698 -0.3144 -0.5318 -0.3459
  126OSM   H12T13443   2.475   5.787   7.591  1.2459  0.4117 -0.7750
  126OSM   C13S13444   2.307   5.766   7.729 -0.9665  0.1763  0.0138
  126OSM   H13S13445   2.340   5.661   7.736  2.2931  1.0516 -0.7671
  126OSM   H13T13446   2.215   5.777   7.668  0.0735  1.7500 -1.3401
  126OSM   C14S13447   2.279   5.838   7.866  0.3169  0.0523 -0.7980
  126OSM   H14S13448   2.186   5.804   7.915  1.1698 -0.4284  0.5273
  126OSM   H14T13449   2.271   5.947   7.844 -2.3350 -0.1856 -1.3104
  126OSM   C15S13450   2.393   5.825   7.967 -0.4425  0.8730  0.3804
  126OSM   H15S13451   2.488   5.844   7.912 -1.8353  0.3965 -2.3970
  126OSM   H15T13452   2.396   5.720   8.003 -0.0368  0.6721 -0.2226
  126OSM   C16S13453   2.382   5.911   8.089 -0.9797  0.1581  0.2513
  126OSM   H16S13454   2.366   6.013   8.049  0.9487  0.9367  1.3284
  126OSM   H16T13455   2.475   5.905   8.149  0.8757  2.2830 -2.2343
  126OSM   C17S13456   2.258   5.891   8.177 -0.1095 -0.3645  0.4762
  126OSM   H17S13457   2.245   5.793   8.228  0.5731  0.7098  2.8293
  126OSM   H17T13458   2.174   5.911   8.107 -0.9661  2.8964  2.2214
  126OSM   C18S13459   2.260   6.003   8.287  0.2079 -0.3501 -0.3455
  126OSM   H18S13460   2.257   6.106   8.243 -1.3126  0.3154  1.2049
  126OSM   H18T13461   2.352   5.994   8.348 -0.9773  0.1765  1.6045
  126OSM   H18U13462   2.171   5.985   8.351  0.3817 -3.1744 -0.7725
  126OSM    C1F13463   1.901   5.826   6.673  0.7367  0.1761  0.1624
  126OSM     OF13464   1.823   5.735   6.661 -0.2406 -0.3338 -0.9711
  126OSM    C2F13465   1.867   5.957   6.725 -0.0383 -0.9240  0.3964
  126OSM    H2F13466   1.802   6.007   6.651  0.3328 -0.0672  0.6458
  126OSM    H2G13467   1.963   6.003   6.755  0.7381 -0.7319 -2.1608
  126OSM    C3F13468   1.776   5.941   6.852  0.1972  0.0056  0.0337
  126OSM    H3F13469   1.687   5.889   6.811 -0.6863  0.8271  0.8632
  126OSM    H3G13470   1.740   6.039   6.890 -0.7667 -0.7270  1.0805
  126OSM    C4F13471   1.825   5.862   6.979  0.2715 -0.6545 -0.0361
  126OSM    H4F13472   1.906   5.790   6.954 -0.6370 -1.7157  0.0266
  126OSM    H4G13473   1.735   5.811   7.019 -1.3466  1.3563 -0.9578
  126OSM    C5F13474   1.897   5.940   7.091  0.2720 -0.2065 -0.4359
  126OSM    H5F13475   1.826   6.007   7.144 -0.1831  0.5615 -1.9664
  126OSM    H5G13476   1.975   6.005   7.045  1.1127 -2.5913 -2.6461
  126OSM    C6F13477   1.972   5.858   7.206  0.5904  0.7938  0.0012
  126OSM    H6F13478   2.056   5.806   7.156 -1.0431 -0.1918 -1.8651
  126OSM    H6G13479   1.910   5.778   7.252  1.6891  2.0572  4.0944
  126OSM    C7F13480   2.025   5.943   7.325 -0.1417 -0.3385  0.1614
  126OSM    H7F13481   2.088   6.032   7.301 -1.6581 -0.1376 -3.8454
  126OSM    H7G13482   2.091   5.874   7.382 -0.4357 -1.0927 -0.3958
  126OSM    C8F13483   1.908   5.983   7.422 -0.4394 -0.3951  0.3919
  126OSM    H8F13484   1.845   5.894   7.445 -2.4676  1.4228  2.3047
  126OSM    H8G13485   1.843   6.055   7.366 -0.4745 -1.5101 -1.0737
  126OSM    C9F13486   1.971   6.045   7.545  0.2574 -0.0151  0.1035
  126OSM    H9F13487   2.041   6.127   7.523  1.9873 -1.4131  0.1523
  126OSM   C10F13488   1.974   5.995   7.671 -0.6305 -0.5045 -0.1065
  126OSM   H10F13489   2.026   6.039   7.757 -0.3138 -3.4921  1.3889
  126OSM   C11F13490   1.909   5.866   7.712 -0.3833  0.8880  0.0605
  126OSM   H11F13491   1.986   5.786   7.717 -0.0318  1.2874  1.4307
  126OSM   H11G13492   1.837   5.819   7.642 -0.5120 -1.3785  1.6113
  126OSM   C12F13493   1.833   5.859   7.847  0.2230 -0.2810 -0.3996
  126OSM   H12F13494   1.780   5.761   7.844  1.6641 -1.1352  0.9364
  126OSM   H12G13495   1.763   5.946   7.847  0.3746 -0.0991 -2.6839
  126OSM   C13F13496   1.908   5.859   7.981 -0.1008  0.4491  0.7534
  126OSM   H13F13497   1.961   5.957   7.989  0.7814 -0.0206  0.7583
  126OSM   H13G13498   1.981   5.776   7.972  0.2736  0.6849  1.4522
  126OSM   C14F13499   1.823   5.838   8.109  0.5800  0.6430  0.2511
  126OSM   H14F13500   1.793   5.732   8.100  3.4032 -0.2852  1.0469
  126OSM   H14G13501   1.730   5.901   8.109  0.7775  0.9525  1.5735
  126OSM   C15F13502   1.891   5.845   8.245 -0.2977  0.3946 -0.4192
  126OSM   H15F13503   1.921   5.951   8.257  1.9615  0.1200 -2.8399
  126OSM   H15G13504   1.977   5.777   8.229 -2.3786 -2.3104 -0.9714
  126OSM   C16F13505   1.812   5.798   8.377 -0.2780  0.1900 -0.0540
  126OSM   H16F13506   1.781   5.693   8.359 -1.3558  0.8036 -2.0119
  126OSM   H16G13507   1.714   5.850   8.388 -0.0287  0.7016 -0.2247
  126OSM   C17F13508   1.899   5.818   8.507 -0.3933  1.0448 -0.2372
  126OSM   H17F13509   1.937   5.921   8.515 -1.7633  1.5955 -0.5005
  126OSM   H17G13510   1.996   5.764   8.503  0.0782  1.6816  1.6368
  126OSM   C18F13511   1.830   5.781   8.634  0.2097  0.3133  0.1645
  126OSM   H18F13512   1.812   5.671   8.637  3.5722 -0.3709 -0.0579
  126OSM   H18G13513   1.733   5.835   8.635  0.0009  0.0484 -1.9934
  126OSM   H18H13514   1.897   5.808   8.719  0.9133  3.2189 -1.1826
  127OSM      N13515   6.654   5.782   6.081 -0.2130 -0.0774  0.3032
  127OSM    C1513516   6.721   5.884   6.002 -0.3586 -0.5644  0.4655
  127OSM   H15A13517   6.825   5.893   6.030 -0.7217  1.4405  1.3175
  127OSM   H15B13518   6.679   5.983   6.015 -0.2651 -0.6621  1.6868
  127OSM   H15C13519   6.710   5.844   5.903 -1.2435 -1.4432  0.9032
  127OSM    C1413520   6.516   5.838   6.085 -0.0845  0.1025  0.6541
  127OSM   H14A13521   6.458   5.825   5.995 -1.3025 -0.9643  1.5603
  127OSM   H14B13522   6.522   5.942   6.114  1.1216 -0.7822  4.1430
  127OSM   H14C13523   6.465   5.789   6.167 -0.0942 -0.8025  0.1128
  127OSM    C1313524   6.661   5.645   6.014  0.4447 -0.2985 -0.4087
  127OSM   H13A13525   6.764   5.617   6.001  0.4462 -0.1005 -0.8468
  127OSM   H13B13526   6.614   5.651   5.917  0.6792 -1.2750 -0.5870
  127OSM   H13C13527   6.615   5.566   6.072  0.7135 -0.4169 -0.3588
  127OSM    C1213528   6.700   5.765   6.223 -0.6772 -0.1164  0.3620
  127OSM   H12A13529   6.696   5.866   6.262  2.7210  0.7166 -1.1090
  127OSM   H12B13530   6.804   5.740   6.209 -0.8230 -0.0745 -0.9582
  127OSM    C1113531   6.640   5.663   6.314  0.2679 -0.1105 -0.2771
  127OSM   H11A13532   6.530   5.663   6.297  0.4358  1.2877 -1.6519
  127OSM   H11B13533   6.663   5.693   6.418  0.5297  2.1349 -0.9173
  127OSM      P13534   6.611   5.409   6.318  0.5091  0.2211 -0.3272
  127OSM    O1313535   6.495   5.394   6.223 -0.2934  0.4943 -0.3623
  127OSM    O1413536   6.709   5.299   6.323 -0.1512  0.3454 -0.0503
  127OSM    O1113537   6.553   5.439   6.466  0.2026 -0.6051  0.0288
  127OSM    O1213538   6.701   5.536   6.281 -0.2097  0.3351 -0.1250
  127OSM    C1S13539   6.426   5.503   6.487  0.0310  0.1076  0.1468
  127OSM    H1S13540   6.349   5.483   6.409  0.6878  1.6500 -0.9520
  127OSM    H1T13541   6.436   5.613   6.487  0.3541  0.1021  1.7633
  127OSM     NF13542   6.240   5.499   6.635  0.9636 -0.2648 -0.1551
  127OSM    HNF13543   6.222   5.593   6.661  1.7964  0.3956 -1.8417
  127OSM    C2S13544   6.376   5.460   6.626 -0.4251 -0.0322  0.0052
  127OSM    H2S13545   6.401   5.352   6.633  0.8942  0.2050 -0.6113
  127OSM    C3S13546   6.466   5.532   6.725 -0.1569  0.1864  0.5979
  127OSM    H3S13547   6.450   5.641   6.715 -0.0918  0.1910  0.5414
  127OSM     O313548   6.603   5.507   6.708  0.2103  0.9776  1.1135
  127OSM    HO313549   6.616   5.482   6.617  1.1268 -0.7285  1.6663
  127OSM    C4S13550   6.428   5.490   6.866 -0.2103  0.1153 -0.6637
  127OSM    H4S13551   6.441   5.385   6.899  4.1047  1.3753  2.5959
  127OSM    C5S13552   6.397   5.576   6.963 -0.4323  0.2176  0.1403
  127OSM    H5S13553   6.377   5.679   6.931 -1.1053  0.0042 -0.1407
  127OSM    C6S13554   6.348   5.536   7.102  0.4291  0.0584 -0.3458
  127OSM    H6S13555   6.241   5.565   7.092  0.8656  1.0680 -2.5379
  127OSM    H6T13556   6.393   5.607   7.175 -4.3250  0.1626  2.9244
  127OSM    C7S13557   6.363   5.390   7.149  0.0202 -0.3728  0.4936
  127OSM    H7S13558   6.469   5.365   7.128  0.1590  1.3897 -1.1108
  127OSM    H7T13559   6.303   5.317   7.091  1.4193 -1.1555 -0.0084
  127OSM    C8S13560   6.346   5.377   7.301  0.1983 -0.4258  0.0048
  127OSM    H8S13561   6.237   5.382   7.320  0.1601  0.0186 -0.3130
  127OSM    H8T13562   6.397   5.454   7.363  1.0369 -0.6766 -0.3592
  127OSM    C9S13563   6.391   5.233   7.348  0.1629  0.2262  0.1124
  127OSM    H9S13564   6.500   5.222   7.329  0.2590 -1.9868  1.5937
  127OSM    H9T13565   6.327   5.159   7.295  0.3923  0.5938 -0.6971
  127OSM   C10S13566   6.386   5.217   7.494 -0.1516  0.4540  0.2089
  127OSM   H10S13567   6.417   5.311   7.546  1.7700  0.1333 -0.2999
  127OSM   H10T13568   6.451   5.132   7.524  3.5410  2.8960 -0.2089
  127OSM   C11S13569   6.252   5.167   7.541  0.2450  0.3856  0.5515
  127OSM   H11S13570   6.216   5.093   7.467  3.7939 -1.2581  0.2553
  127OSM   H11T13571   6.178   5.249   7.529  1.4064  1.2735 -0.9124
  127OSM   C12S13572   6.253   5.109   7.687  0.6234 -0.1384 -0.7255
  127OSM   H12S13573   6.319   5.021   7.690  2.6426  1.2085 -2.7564
  127OSM   H12T13574   6.148   5.072   7.695  0.3413  0.2526 -2.3170
  127OSM   C13S13575   6.304   5.209   7.785 -0.2487 -0.7046  0.0948
  127OSM   H13S13576   6.225   5.287   7.784 -3.1350 -3.4334  0.8264
  127OSM   H13T13577   6.405   5.244   7.753  0.0174 -2.2647 -0.8482
  127OSM   C14S13578   6.325   5.145   7.925  0.3288 -0.0458 -0.4013
  127OSM   H14S13579   6.229   5.119   7.975  0.0889 -0.0469 -0.8626
  127OSM   H14T13580   6.385   5.219   7.983  0.7777 -1.7930  1.4960
  127OSM   C15S13581   6.381   4.997   7.926  0.2772 -0.3767  0.5618
  127OSM   H15S13582   6.469   5.006   7.859  0.2114 -0.2894  0.4883
  127OSM   H15T13583   6.303   4.928   7.885 -0.0612  1.0570 -1.3023
  127OSM   C16S13584   6.427   4.956   8.072  0.3185 -0.0651 -0.3510
  127OSM   H16S13585   6.337   4.988   8.129  0.2535  0.9563 -0.9918
  127OSM   H16T13586   6.515   5.018   8.099 -0.3800  0.4563  0.7889
  127OSM   C17S13587   6.468   4.802   8.089  0.0457 -0.5372 -0.6365
  127OSM   H17S13588   6.555   4.782   8.023  0.9805  0.7909  0.1407
  127OSM   H17T13589   6.389   4.746   8.034 -0.7913  0.0027 -0.0264
  127OSM   C18S13590   6.499   4.762   8.241  0.6646 -0.5527  0.2101
  127OSM   H18S13591   6.402   4.764   8.296  0.9745 -0.0106  0.7490
  127OSM   H18T13592   6.562   4.833   8.298 -4.3909  3.9123  1.0698
  127OSM   H18U13593   6.542   4.660   8.251 -0.3784 -0.9963  0.2765
  127OSM    C1F13594   6.140   5.421   6.590 -0.7445  0.0805  0.0854
  127OSM     OF13595   6.162   5.315   6.530  0.2391  0.0177  0.4034
  127OSM    C2F13596   5.998   5.470   6.616 -0.3521 -0.3268 -0.1865
  127OSM    H2F13597   5.932   5.442   6.531 -2.4182 -0.2400  1.3392
  127OSM    H2G13598   6.000   5.580   6.629  0.7013 -0.5349  1.7468
  127OSM    C3F13599   5.940   5.407   6.745 -0.1347  0.3610  0.0962
  127OSM    H3F13600   5.939   5.297   6.761  0.6347 -0.5007 -4.5466
  127OSM    H3G13601   5.832   5.430   6.735 -0.2353 -0.4770 -0.8453
  127OSM    C4F13602   5.984   5.470   6.882 -0.1592 -0.2773  0.4268
  127OSM    H4F13603   5.984   5.580   6.873  2.9196 -0.3465 -2.1093
  127OSM    H4G13604   6.088   5.444   6.911  0.4079  2.1581  0.7861
  127OSM    C5F13605   5.885   5.430   6.997  0.0290  0.2092 -0.6464
  127OSM    H5F13606   5.892   5.320   7.012  0.9565  0.1113 -1.6530
  127OSM    H5G13607   5.783   5.465   6.969  0.9560  2.1284 -1.8556
  127OSM    C6F13608   5.928   5.486   7.140 -0.4762 -0.1831  0.4985
  127OSM    H6F13609   5.955   5.593   7.136 -0.7701 -0.1079  0.5389
  127OSM    H6G13610   6.016   5.431   7.180  0.6376  1.1658 -0.0164
  127OSM    C7F13611   5.813   5.476   7.244 -0.2647  0.4900  0.4683
  127OSM    H7F13612   5.725   5.527   7.200  0.7275  0.4374 -1.7211
  127OSM    H7G13613   5.849   5.536   7.330 -0.6641  1.3573  0.0374
  127OSM    C8F13614   5.772   5.333   7.289  0.1003 -0.1967  0.5998
  127OSM    H8F13615   5.752   5.276   7.196  5.1822  1.7990 -2.0644
  127OSM    H8G13616   5.684   5.340   7.358  2.5883 -0.5410  4.0637
  127OSM    C9F13617   5.872   5.257   7.363 -0.1178 -0.2737 -0.6989
  127OSM    H9F13618   5.975   5.253   7.323 -0.4918  2.2535 -2.1437
  127OSM   C10F13619   5.870   5.198   7.484 -0.5575 -0.2785 -0.2950
  127OSM   H10F13620   5.956   5.148   7.530 -1.6278 -0.6564  1.3974
  127OSM   C11F13621   5.760   5.198   7.581  0.4213 -0.6632 -0.7864
  127OSM   H11F13622   5.684   5.279   7.578  0.2364 -0.7729  0.5041
  127OSM   H11G13623   5.811   5.203   7.679  1.3988 -0.5905 -1.2894
  127OSM   C12F13624   5.682   5.060   7.588  0.4326  0.3706 -0.2745
  127OSM   H12F13625   5.607   5.056   7.670  1.8264 -0.9243  0.9804
  127OSM   H12G13626   5.747   4.979   7.626  0.9172  1.2124  0.7449
  127OSM   C13F13627   5.624   5.018   7.455 -0.0003  1.1536  0.1768
  127OSM   H13F13628   5.713   5.005   7.389  0.2388 -1.7378  0.9197
  127OSM   H13G13629   5.566   5.109   7.428 -0.8098  1.2491  2.0937
  127OSM   C14F13630   5.547   4.894   7.456 -0.2660  0.4446  0.0099
  127OSM   H14F13631   5.499   4.876   7.358 -0.3229  0.2783  0.0673
  127OSM   H14G13632   5.477   4.907   7.542  2.0547  1.9997  1.8233
  127OSM   C15F13633   5.623   4.757   7.494  0.6231  0.3141 -0.0822
  127OSM   H15F13634   5.683   4.781   7.585  0.3630 -0.4541  0.2967
  127OSM   H15G13635   5.693   4.732   7.411 -0.5968 -1.5080 -0.6064
  127OSM   C16F13636   5.534   4.640   7.534 -0.0181 -0.1419 -0.1226
  127OSM   H16F13637   5.593   4.547   7.548  1.3453  0.5083 -1.2937
  127OSM   H16G13638   5.469   4.619   7.446  0.7222  0.4076 -0.8230
  127OSM   C17F13639   5.456   4.664   7.673 -0.4563 -0.7270 -0.0002
  127OSM   H17F13640   5.408   4.567   7.697  1.1206 -1.8145 -1.1397
  127OSM   H17G13641   5.376   4.738   7.651  0.5087  0.3880  0.1445
  127OSM   C18F13642   5.547   4.697   7.796  0.4970 -0.4594 -0.0448
  127OSM   H18F13643   5.630   4.623   7.794 -1.0856 -2.3749 -2.7299
  127OSM   H18G13644   5.479   4.686   7.883 -1.1215 -2.7622 -1.4837
  127OSM   H18H13645   5.587   4.799   7.779  3.1729 -1.4550 -0.1840
  128OSM      N13646   1.216   2.953   5.862  0.2752  0.5210 -0.2965
  128OSM    C1513647   1.155   2.845   5.784 -0.1570  0.4140  0.6101
  128OSM   H15A13648   1.111   2.874   5.689  0.6569  1.8706  0.6469
  128OSM   H15B13649   1.087   2.784   5.842 -0.6516  0.5426  0.1780
  128OSM   H15C13650   1.228   2.769   5.765 -1.8696 -0.9197 -1.0805
  128OSM    C1413651   1.327   3.012   5.777 -0.3523 -0.8334  0.0214
  128OSM   H14A13652   1.405   2.937   5.779  0.4336 -0.0185  0.7065
  128OSM   H14B13653   1.378   3.096   5.822  1.2912 -1.4886 -0.5376
  128OSM   H14C13654   1.295   3.038   5.677 -1.5121  2.3772  1.0908
  128OSM    C1313655   1.107   3.062   5.883  0.2848  0.0879  0.4133
  128OSM   H13A13656   1.140   3.151   5.934 -2.2844  0.3914  1.6932
  128OSM   H13B13657   1.028   3.013   5.937 -0.8225 -0.1073 -1.2919
  128OSM   H13C13658   1.060   3.098   5.793 -0.1182  1.1806  1.0459
  128OSM    C1213659   1.280   2.918   5.996 -0.9870  0.1597  0.8986
  128OSM   H12A13660   1.341   2.994   6.043  0.0891 -1.0673  1.5413
  128OSM   H12B13661   1.347   2.841   5.961 -1.1180 -0.2241  1.4822
  128OSM    C1113662   1.191   2.846   6.097  0.0841 -0.2112 -0.3387
  128OSM   H11A13663   1.251   2.811   6.183 -2.0302  0.0327  1.3071
  128OSM   H11B13664   1.155   2.750   6.055  1.3076 -1.2867  0.9771
  128OSM      P13665   0.943   2.907   6.168 -0.0629 -0.2578  0.4803
  128OSM    O1313666   0.870   2.986   6.066  0.7405 -0.2441  0.5751
  128OSM    O1413667   0.912   2.762   6.181  0.3227  0.2402 -0.2787
  128OSM    O1113668   0.904   2.974   6.301 -0.5186 -0.2593  0.1444
  128OSM    O1213669   1.099   2.936   6.152  0.0940 -0.2536 -0.4595
  128OSM    C1S13670   0.938   2.918   6.426 -0.3658 -0.5693  0.0681
  128OSM    H1S13671   1.043   2.882   6.422 -0.6965 -2.0006  2.3377
  128OSM    H1T13672   0.867   2.836   6.453 -2.9961  1.9049  1.2653
  128OSM     NF13673   0.957   2.924   6.671  0.7232 -0.2000  0.0681
  128OSM    HNF13674   0.890   2.902   6.742  0.0185  0.1441 -0.4770
  128OSM    C2S13675   0.916   3.007   6.555  0.4413  0.7393  0.8712
  128OSM    H2S13676   0.986   3.092   6.539  1.8397 -0.6509 -0.7956
  128OSM    C3S13677   0.771   3.072   6.563 -0.1875 -0.3152  0.0476
  128OSM    H3S13678   0.703   2.987   6.578  1.0200 -1.4667 -0.7502
  128OSM     O313679   0.741   3.150   6.442 -0.7478  0.1774  0.1958
  128OSM    HO313680   0.802   3.128   6.371 -1.1750  1.1592 -0.5048
  128OSM    C4S13681   0.777   3.168   6.676 -0.3718  1.1902  0.0849
  128OSM    H4S13682   0.759   3.109   6.767  1.0825 -0.5704 -0.7170
  128OSM    C5S13683   0.803   3.300   6.683  0.9329 -0.0627 -0.5527
  128OSM    H5S13684   0.843   3.349   6.594 -0.1460 -0.5156 -1.2960
  128OSM    C6S13685   0.826   3.372   6.815  0.2338  0.2108 -0.2946
  128OSM    H6S13686   0.742   3.444   6.831 -1.1122 -1.4194  0.2895
  128OSM    H6T13687   0.923   3.426   6.821 -1.6267  3.7148  1.6614
  128OSM    C7S13688   0.817   3.290   6.951  0.6537 -0.4951  0.3295
  128OSM    H7S13689   0.886   3.204   6.940  1.4551  0.1984 -0.2882
  128OSM    H7T13690   0.717   3.245   6.963  0.5323 -0.2914  0.1072
  128OSM    C8S13691   0.857   3.364   7.079 -0.4591  0.6222  0.5379
  128OSM    H8S13692   0.792   3.453   7.094  0.7262  1.6101 -0.0214
  128OSM    H8T13693   0.953   3.418   7.067  0.7047 -1.6012 -0.8363
  128OSM    C9S13694   0.841   3.269   7.201  0.2839  0.1747  0.0777
  128OSM    H9S13695   0.893   3.172   7.190 -0.5674 -0.3183  0.3085
  128OSM    H9T13696   0.742   3.221   7.187  0.8107 -0.8773 -0.1149
  128OSM   C10S13697   0.852   3.334   7.338 -0.1391 -0.5732  0.7781
  128OSM   H10S13698   0.760   3.374   7.387  0.4263 -0.6028  1.8927
  128OSM   H10T13699   0.905   3.432   7.343 -1.8200  0.5003 -0.8793
  128OSM   C11S13700   0.903   3.236   7.442  0.1949 -0.1952 -0.4541
  128OSM   H11S13701   0.964   3.157   7.394  1.3600  1.0655 -1.1301
  128OSM   H11T13702   0.814   3.189   7.489  0.2422  0.7775  0.6734
  128OSM   C12S13703   0.983   3.300   7.553 -0.0143 -0.0580  0.6733
  128OSM   H12S13704   0.927   3.389   7.589 -2.1543  0.2702 -3.0257
  128OSM   H12T13705   1.075   3.348   7.513 -0.2436  0.6910  1.0354
  128OSM   C13S13706   1.021   3.197   7.663 -0.4451  0.2986  0.0328
  128OSM   H13S13707   1.074   3.109   7.621 -1.1435 -1.0185  1.7939
  128OSM   H13T13708   0.930   3.165   7.718 -0.9746  3.2701  1.1034
  128OSM   C14S13709   1.114   3.261   7.759  0.4466 -0.2033  0.0510
  128OSM   H14S13710   1.059   3.341   7.813  0.1504  0.7390 -1.5994
  128OSM   H14T13711   1.177   3.321   7.691  0.9897 -0.7353  0.0744
  128OSM   C15S13712   1.193   3.169   7.861  0.2066 -0.2439 -0.0309
  128OSM   H15S13713   1.277   3.228   7.904  1.1867 -0.9343 -0.9149
  128OSM   H15T13714   1.244   3.097   7.792  1.5097  1.2585 -0.7182
  128OSM   C16S13715   1.116   3.106   7.980  0.6100 -0.3399  0.3931
  128OSM   H16S13716   1.174   3.044   8.052  0.5505  0.6250  1.2970
  128OSM   H16T13717   1.041   3.037   7.938  0.6148 -0.5956  0.7957
  128OSM   C17S13718   1.035   3.213   8.044 -0.3452 -0.3207 -0.9034
  128OSM   H17S13719   0.957   3.255   7.977  0.1182  0.4023 -0.9976
  128OSM   H17T13720   1.099   3.298   8.075 -0.2933 -0.6594 -0.0507
  128OSM   C18S13721   0.974   3.159   8.176 -0.1419  0.4511 -0.4019
  128OSM   H18S13722   1.034   3.080   8.225 -0.5266  0.0754 -0.5282
  128OSM   H18T13723   0.869   3.124   8.162  0.4481 -0.9332 -1.5597
  128OSM   H18U13724   0.981   3.230   8.261  0.8374 -0.1143  0.0001
  128OSM    C1F13725   1.079   2.878   6.679 -0.8686  0.0671 -0.4190
  128OSM     OF13726   1.165   2.924   6.609 -0.3313 -0.1160 -0.3817
  128OSM    C2F13727   1.109   2.773   6.783 -0.1154 -0.0083 -0.4672
  128OSM    H2F13728   1.033   2.692   6.780 -0.5754  0.0663  3.6248
  128OSM    H2G13729   1.098   2.812   6.886  0.4812  1.0124 -0.7689
  128OSM    C3F13730   1.243   2.697   6.771 -0.1861 -0.4285 -0.0914
  128OSM    H3F13731   1.315   2.780   6.757 -0.2987 -0.6454 -2.4986
  128OSM    H3G13732   1.248   2.639   6.676  1.1367  0.1795 -0.4117
  128OSM    C4F13733   1.278   2.615   6.896  0.6969  0.0411 -0.2483
  128OSM    H4F13734   1.250   2.678   6.983  0.1473 -1.2118  0.5241
  128OSM    H4G13735   1.386   2.597   6.914  0.6250 -0.8156 -0.5889
  128OSM    C5F13736   1.188   2.491   6.892  0.1919 -0.5801 -0.0662
  128OSM    H5F13737   1.240   2.406   6.843 -1.3876 -0.6824 -1.6563
  128OSM    H5G13738   1.093   2.506   6.836 -0.8238 -1.8204  1.2388
  128OSM    C6F13739   1.153   2.449   7.027 -0.2447  0.3185  0.2380
  128OSM    H6F13740   1.088   2.360   7.014  0.4129 -0.2131  0.5248
  128OSM    H6G13741   1.108   2.536   7.079  0.0284  1.7575 -1.8426
  128OSM    C7F13742   1.278   2.397   7.099  0.1170  0.3255  0.1750
  128OSM    H7F13743   1.351   2.480   7.084  0.3211 -0.2117 -2.1255
  128OSM    H7G13744   1.321   2.307   7.051 -1.0147  0.6782 -1.5869
  128OSM    C8F13745   1.251   2.364   7.246  0.0279  0.1455 -0.0961
  128OSM    H8F13746   1.152   2.314   7.249 -0.5561  0.8412 -3.6485
  128OSM    H8G13747   1.230   2.458   7.301  3.3161 -1.3410  4.2879
  128OSM    C9F13748   1.361   2.300   7.321 -0.7413 -0.6325 -0.1809
  128OSM    H9F13749   1.457   2.268   7.278 -0.2279  0.8347 -0.1787
  128OSM   C10F13750   1.351   2.292   7.456  0.8652  0.0104 -0.2033
  128OSM   H10F13751   1.443   2.252   7.502  0.8367  0.0515 -0.1110
  128OSM   C11F13752   1.238   2.334   7.556  0.2654  0.2503  0.5453
  128OSM   H11F13753   1.141   2.282   7.541  0.7621 -1.6396  3.1461
  128OSM   H11G13754   1.222   2.444   7.558 -0.5338  0.1267  1.6953
  128OSM   C12F13755   1.279   2.293   7.697 -0.3152  0.2564 -0.0580
  128OSM   H12F13756   1.207   2.342   7.766 -1.1263 -0.3436 -0.4544
  128OSM   H12G13757   1.382   2.323   7.725  0.2421 -1.7138  0.1454
  128OSM   C13F13758   1.264   2.142   7.726  0.2326  0.3311  0.9524
  128OSM   H13F13759   1.323   2.074   7.661 -1.0182 -1.5684  1.7079
  128OSM   H13G13760   1.156   2.131   7.701  0.5841  0.2154 -0.6076
  128OSM   C14F13761   1.293   2.112   7.874  0.0410  0.7179 -0.7051
  128OSM   H14F13762   1.205   2.125   7.939 -0.0246 -0.6328 -0.4981
  128OSM   H14G13763   1.377   2.180   7.902  1.7709 -1.3481 -0.6253
  128OSM   C15F13764   1.331   1.966   7.887 -0.5808  0.3924 -0.5836
  128OSM   H15F13765   1.417   1.945   7.820  0.3184 -0.4641  0.7983
  128OSM   H15G13766   1.243   1.911   7.846 -1.0705  0.9028 -0.2350
  128OSM   C16F13767   1.375   1.936   8.032  1.2032 -0.2832  0.1022
  128OSM   H16F13768   1.290   1.979   8.089  1.2628  0.3020 -0.2318
  128OSM   H16G13769   1.463   1.996   8.066 -2.1302  4.4863  1.4068
  128OSM   C17F13770   1.399   1.786   8.054  0.9766  0.7237 -0.1079
  128OSM   H17F13771   1.497   1.763   8.009  1.5267 -0.0130  1.3970
  128OSM   H17G13772   1.327   1.728   7.991  1.6996  0.8636 -1.0826
  128OSM   C18F13773   1.397   1.750   8.199 -0.3171 -0.9222  0.0317
  128OSM   H18F13774   1.479   1.801   8.253  2.1213 -3.4937 -0.9704
  128OSM   H18G13775   1.412   1.640   8.210 -1.4165 -1.0375  0.5885
  128OSM   H18H13776   1.298   1.767   8.248 -1.0868  0.2839 -1.8413
  129OSM      N13777   6.483   4.030   5.903  1.1749 -0.5693 -0.0593
  129OSM    C1513778   6.471   4.181   5.894 -0.1393 -0.2954  0.2099
  129OSM   H15A13779   6.381   4.213   5.944 -0.7693  0.6072 -1.4034
  129OSM   H15B13780   6.449   4.210   5.792 -0.3752 -0.5871  0.1747
  129OSM   H15C13781   6.555   4.238   5.931 -1.3743  0.1239  2.5370
  129OSM    C1413782   6.360   3.971   5.840 -0.0806 -0.2498 -0.0103
  129OSM   H14A13783   6.331   4.022   5.749 -2.7509 -0.9471  0.3748
  129OSM   H14B13784   6.272   3.994   5.899 -0.3907 -0.6542 -0.3095
  129OSM   H14C13785   6.362   3.866   5.815  0.6828 -0.5244  1.1582
  129OSM    C1313786   6.597   3.986   5.819 -0.3058  0.6606 -0.2703
  129OSM   H13A13787   6.599   3.884   5.783 -0.4616 -0.4055  2.4942
  129OSM   H13B13788   6.692   3.990   5.870 -1.0691  0.8163  1.2161
  129OSM   H13C13789   6.606   4.049   5.732  1.0719  0.9648  0.0651
  129OSM    C1213790   6.504   3.983   6.046 -0.1224 -0.5977  0.1108
  129OSM   H12A13791   6.599   4.019   6.083 -0.3632  1.3801 -1.0240
  129OSM   H12B13792   6.498   3.876   6.042 -0.4937 -0.5513 -0.7193
  129OSM    C1113793   6.402   4.020   6.157  0.0599 -0.0262  0.1242
  129OSM   H11A13794   6.417   4.128   6.181  2.5043 -0.2185 -0.3286
  129OSM   H11B13795   6.424   3.975   6.255 -0.8981  0.7700  0.7248
  129OSM      P13796   6.197   3.855   6.139 -0.3038  0.0403  0.1853
  129OSM    O1313797   6.056   3.859   6.094  0.2849  0.2640  0.2908
  129OSM    O1413798   6.285   3.752   6.076 -0.1364  0.3725  0.1731
  129OSM    O1113799   6.206   3.829   6.288  0.2532  0.2301  0.7778
  129OSM    O1213800   6.261   3.998   6.134 -0.0428  0.5876  0.2211
  129OSM    C1S13801   6.165   3.918   6.391  0.0526 -0.2656  0.0973
  129OSM    H1S13802   6.089   3.987   6.348 -2.9061 -2.6978  1.1194
  129OSM    H1T13803   6.245   3.985   6.429 -1.7098 -0.0278  3.8692
  129OSM     NF13804   6.102   3.970   6.626 -0.6971  0.7180 -0.3075
  129OSM    HNF13805   6.174   3.975   6.695  0.4470  0.6281 -1.4487
  129OSM    C2S13806   6.113   3.861   6.525 -0.0490  0.2256  0.3731
  129OSM    H2S13807   6.019   3.806   6.501 -1.0657  1.3939  1.5369
  129OSM    C3S13808   6.207   3.743   6.579 -0.1591 -0.3150  0.4433
  129OSM    H3S13809   6.311   3.777   6.602 -0.9562  1.6590  1.4013
  129OSM     O313810   6.230   3.639   6.483  0.2397 -0.1438  0.6398
  129OSM    HO313811   6.201   3.672   6.398 -0.9571 -1.1510  0.6204
  129OSM    C4S13812   6.154   3.689   6.707  0.6758 -0.5502 -0.4913
  129OSM    H4S13813   6.184   3.742   6.798 -0.3209 -1.2992  0.2954
  129OSM    C5S13814   6.070   3.580   6.724  0.6650 -0.5260 -0.9502
  129OSM    H5S13815   6.040   3.523   6.635 -0.4215  0.4366 -1.2279
  129OSM    C6S13816   6.010   3.539   6.852  0.4883  0.1357  0.7565
  129OSM    H6S13817   6.025   3.432   6.878 -0.5914  0.0692  1.1520
  129OSM    H6T13818   5.900   3.540   6.841  0.3080  1.0025  2.2950
  129OSM    C7S13819   6.035   3.632   6.971 -0.3281 -0.5807 -0.0620
  129OSM    H7S13820   6.043   3.739   6.944  1.0414 -0.3348  1.1864
  129OSM    H7T13821   6.133   3.612   7.019 -0.0784 -1.3061 -0.8333
  129OSM    C8S13822   5.922   3.635   7.075 -0.3803  0.2421 -0.1596
  129OSM    H8S13823   5.829   3.667   7.024  0.6632 -1.0890 -3.1643
  129OSM    H8T13824   5.941   3.710   7.155 -1.0542 -0.3125  0.5356
  129OSM    C9S13825   5.892   3.492   7.127 -0.0934 -0.0079  0.0346
  129OSM    H9S13826   5.987   3.443   7.159  0.2540 -0.1658 -1.2041
  129OSM    H9T13827   5.842   3.424   7.054  2.3503 -1.9247  0.0021
  129OSM   C10S13828   5.796   3.502   7.247 -0.0706 -0.3146  0.2914
  129OSM   H10S13829   5.695   3.536   7.216 -0.1954  0.2313  1.2500
  129OSM   H10T13830   5.850   3.585   7.298 -2.0389  1.1267  0.1393
  129OSM   C11S13831   5.798   3.380   7.332 -0.2744  0.3828 -0.2377
  129OSM   H11S13832   5.897   3.331   7.338 -0.3045  0.4156  0.5163
  129OSM   H11T13833   5.735   3.310   7.272  0.0213  0.0919 -0.2103
  129OSM   C12S13834   5.751   3.404   7.478  0.1252 -0.2957 -0.5193
  129OSM   H12S13835   5.659   3.467   7.470  1.2296  1.6344  0.8686
  129OSM   H12T13836   5.822   3.476   7.524 -0.0537 -0.0412 -0.6378
  129OSM   C13S13837   5.719   3.281   7.560 -0.5491 -0.6011  0.6315
  129OSM   H13S13838   5.797   3.207   7.589 -2.1419 -1.9452  1.6539
  129OSM   H13T13839   5.638   3.220   7.514  0.5676 -1.4929 -0.2001
  129OSM   C14S13840   5.664   3.326   7.696  0.3407  0.4401 -0.3990
  129OSM   H14S13841   5.590   3.406   7.679  0.3127  0.9947  1.9821
  129OSM   H14T13842   5.738   3.381   7.758 -1.0333 -0.9112  2.6265
  129OSM   C15S13843   5.603   3.207   7.777 -0.0660 -0.4517 -0.6753
  129OSM   H15S13844   5.658   3.116   7.742  0.4770  0.0963 -1.2726
  129OSM   H15T13845   5.494   3.206   7.755 -0.5247 -1.0736  1.3694
  129OSM   C16S13846   5.623   3.236   7.928  0.5238  0.5703 -0.3291
  129OSM   H16S13847   5.567   3.157   7.982  0.5100  0.2127 -0.8593
  129OSM   H16T13848   5.568   3.328   7.959 -0.1468  0.2247 -0.4632
  129OSM   C17S13849   5.769   3.231   7.984 -0.6394  0.4819  0.1239
  129OSM   H17S13850   5.847   3.300   7.943  0.2990  1.5048  3.2962
  129OSM   H17T13851   5.814   3.131   7.963  0.1559  0.5994  1.2019
  129OSM   C18S13852   5.778   3.252   8.135  0.7120 -0.4767 -0.0227
  129OSM   H18S13853   5.750   3.355   8.162  0.8178 -0.4760  0.0857
  129OSM   H18T13854   5.880   3.236   8.177  0.7568 -3.6247 -1.0388
  129OSM   H18U13855   5.699   3.188   8.179  0.8973 -0.1566  0.7857
  129OSM    C1F13856   6.024   4.077   6.612 -0.0888  0.5510  0.2233
  129OSM     OF13857   5.944   4.073   6.519  0.6606  0.2130 -0.5638
  129OSM    C2F13858   6.036   4.189   6.713  0.0265  0.5264 -0.3549
  129OSM    H2F13859   5.960   4.269   6.701  0.8884  2.1176  3.3665
  129OSM    H2G13860   6.140   4.227   6.714  0.6528 -1.0977  0.6725
  129OSM    C3F13861   6.024   4.130   6.858  0.9368 -0.7165  0.0885
  129OSM    H3F13862   6.024   4.215   6.929  1.1872 -2.0557  1.7534
  129OSM    H3G13863   6.113   4.066   6.873  1.0156 -0.7299 -0.4186
  129OSM    C4F13864   5.891   4.062   6.896 -0.0369 -0.0695  0.3154
  129OSM    H4F13865   5.895   3.961   6.850  0.3745 -0.1061  0.4304
  129OSM    H4G13866   5.798   4.104   6.852  0.5610  1.4441  0.4502
  129OSM    C5F13867   5.885   4.064   7.049  0.1965  0.6968 -0.1766
  129OSM    H5F13868   5.875   4.172   7.074 -2.8951  0.5206 -0.3003
  129OSM    H5G13869   5.978   4.016   7.086 -1.3252 -2.4709 -0.1354
  129OSM    C6F13870   5.763   3.986   7.101  0.7887  1.0381  0.6870
  129OSM    H6F13871   5.778   3.880   7.071 -0.5020  0.5654  1.6258
  129OSM    H6G13872   5.672   4.020   7.046  0.8147 -0.8557 -0.6696
  129OSM    C7F13873   5.745   4.002   7.254 -0.9439 -0.5205  0.7100
  129OSM    H7F13874   5.693   4.099   7.267 -1.7769 -0.8079 -0.2870
  129OSM    H7G13875   5.849   4.019   7.287 -0.8906  1.7966 -0.5024
  129OSM    C8F13876   5.666   3.895   7.331 -0.7075  0.1522  0.1797
  129OSM    H8F13877   5.710   3.896   7.433 -0.8062  1.5883  0.2249
  129OSM    H8G13878   5.695   3.802   7.278 -0.9459  1.0694 -1.6621
  129OSM    C9F13879   5.515   3.912   7.345  0.1629  0.6585  0.2227
  129OSM    H9F13880   5.463   3.988   7.285  0.1765  3.2115  3.1558
  129OSM   C10F13881   5.442   3.852   7.440  0.1747  0.5781  1.2457
  129OSM   H10F13882   5.334   3.867   7.451  0.3817  3.8326 -0.1961
  129OSM   C11F13883   5.506   3.755   7.540  0.0803  0.7494 -0.2072
  129OSM   H11F13884   5.604   3.714   7.509  0.4253  1.7819 -0.5351
  129OSM   H11G13885   5.433   3.673   7.556  0.4952  0.2334 -0.9036
  129OSM   C12F13886   5.542   3.815   7.681  0.2282 -0.4481  0.3539
  129OSM   H12F13887   5.453   3.873   7.715  0.0484 -0.9053  0.6745
  129OSM   H12G13888   5.628   3.885   7.678 -1.3206  1.5013 -1.1724
  129OSM   C13F13889   5.586   3.709   7.783  0.5216  0.2220 -0.3259
  129OSM   H13F13890   5.669   3.660   7.727 -1.5408 -1.8241 -1.8046
  129OSM   H13G13891   5.508   3.631   7.795 -1.0474  1.6576 -0.8086
  129OSM   C14F13892   5.643   3.765   7.911 -0.3529 -0.1815 -0.0652
  129OSM   H14F13893   5.568   3.836   7.952  0.6992  0.6229  0.4987
  129OSM   H14G13894   5.735   3.824   7.894 -0.5919 -0.3756 -2.2130
  129OSM   C15F13895   5.663   3.662   8.022  0.5370 -0.6136  0.5254
  129OSM   H15F13896   5.763   3.615   8.007  0.7925  0.4455 -1.3637
  129OSM   H15G13897   5.581   3.588   8.023  0.2057 -0.2505  0.4963
  129OSM   C16F13898   5.666   3.738   8.155 -0.0470  0.5834  0.9772
  129OSM   H16F13899   5.562   3.761   8.185 -0.0065  1.3805  0.5210
  129OSM   H16G13900   5.712   3.837   8.136  0.7916 -0.2033 -1.3922
  129OSM   C17F13901   5.739   3.664   8.268 -0.2090 -0.9825 -0.1286
  129OSM   H17F13902   5.843   3.698   8.252 -0.7302  0.5723 -0.3540
  129OSM   H17G13903   5.718   3.557   8.246 -1.9721 -1.3078  2.6042
  129OSM   C18F13904   5.687   3.684   8.417 -0.6236 -0.2456  0.5909
  129OSM   H18F13905   5.580   3.658   8.432 -0.5497 -0.5866  0.5336
  129OSM   H18G13906   5.697   3.790   8.450  2.0151 -0.5452  0.9128
  129OSM   H18H13907   5.757   3.628   8.483 -0.9666 -1.6995 -0.2331
  130OSM      N13908   0.243   1.047   6.266 -0.9082 -0.5077 -0.6833
  130OSM    C1513909   0.142   0.950   6.312 -0.6769 -0.0307  0.4029
  130OSM   H15A13910   0.050   0.997   6.342  1.3323  4.0931  0.7649
  130OSM   H15B13911   0.173   0.894   6.399 -0.8543 -2.0385 -0.7738
  130OSM   H15C13912   0.128   0.873   6.237  2.8267 -0.9287  0.4831
  130OSM    C1413913   0.375   0.977   6.235  0.2831 -0.1778  0.1577
  130OSM   H14A13914   0.454   1.048   6.223 -0.1560  0.5437  1.3146
  130OSM   H14B13915   0.375   0.925   6.140  0.1923 -0.4580  0.3086
  130OSM   H14C13916   0.395   0.897   6.305  1.0308 -2.1209 -2.1635
  130OSM    C1313917   0.190   1.101   6.142 -0.6284 -0.1507 -0.4689
  130OSM   H13A13918   0.182   1.029   6.061  0.9061 -1.5745  0.5705
  130OSM   H13B13919   0.257   1.173   6.099  1.8767  0.0640  3.3274
  130OSM   H13C13920   0.097   1.153   6.159  0.4146  1.2069  1.4494
  130OSM    C1213921   0.270   1.148   6.369  0.6795  0.2560 -0.0168
  130OSM   H12A13922   0.347   1.220   6.348  0.4506  0.1213 -1.4133
  130OSM   H12B13923   0.301   1.092   6.456 -0.3067  1.1650  0.9560
  130OSM    C1113924   0.152   1.243   6.405 -0.6378  0.0410 -0.1856
  130OSM   H11A13925   0.174   1.280   6.508 -2.7510  0.7935  0.0400
  130OSM   H11B13926   0.058   1.193   6.437 -0.7371  1.1083  1.2926
  130OSM      P13927   0.204   1.486   6.326  0.6427  0.2237 -0.0442
  130OSM    O1313928   0.343   1.462   6.299  0.1123 -0.4755 -0.0592
  130OSM    O1413929   0.134   1.582   6.234 -0.1638 -0.5985 -0.2944
  130OSM    O1113930   0.188   1.523   6.474 -0.2247  0.0908 -0.2590
  130OSM    O1213931   0.126   1.343   6.303  0.8058 -0.1319  0.1198
  130OSM    C1S13932   0.064   1.537   6.540 -0.0429 -0.1971 -0.1167
  130OSM    H1S13933  -0.018   1.480   6.491 -0.6557  0.4386  0.1627
  130OSM    H1T13934   0.039   1.644   6.551  2.1047  0.1807  2.1199
  130OSM     NF13935  -0.075   1.464   6.731  0.0960  0.4311 -0.1018
  130OSM    HNF13936  -0.108   1.545   6.779 -1.0229  0.0670 -0.2365
  130OSM    C2S13937   0.061   1.471   6.686 -0.2799 -0.1249  0.2381
  130OSM    H2S13938   0.098   1.367   6.683  0.1080  0.0237 -1.7480
  130OSM    C3S13939   0.150   1.551   6.790 -0.9269 -0.2844 -0.6686
  130OSM    H3S13940   0.108   1.654   6.784 -1.8420 -0.4557  1.7564
  130OSM     O313941   0.287   1.532   6.750 -0.0977  0.2098 -0.3259
  130OSM    HO313942   0.288   1.530   6.654 -2.4558 -1.2249 -0.3714
  130OSM    C4S13943   0.133   1.499   6.928 -0.4297  0.3407 -0.2216
  130OSM    H4S13944   0.187   1.409   6.961  0.1781  2.0009  3.9901
  130OSM    C5S13945   0.060   1.563   7.026  0.1143 -0.2653 -0.4352
  130OSM    H5S13946   0.004   1.650   6.988 -0.1641 -1.4204 -2.8894
  130OSM    C6S13947   0.037   1.523   7.171  0.0409 -0.2128  0.1812
  130OSM    H6S13948  -0.062   1.474   7.178 -0.2075  0.3074  0.3402
  130OSM    H6T13949   0.026   1.619   7.227  2.8144 -1.0020  2.3502
  130OSM    C7S13950   0.160   1.458   7.237  0.0076  0.2013  0.6883
  130OSM    H7S13951   0.254   1.515   7.220 -0.3258 -0.0969 -3.1419
  130OSM    H7T13952   0.171   1.360   7.185 -1.3078 -0.2708  1.2833
  130OSM    C8S13953   0.146   1.424   7.386  0.3671 -0.9494 -0.1485
  130OSM    H8S13954   0.097   1.511   7.434  1.4084 -0.9752  1.0049
  130OSM    H8T13955   0.249   1.418   7.429  0.8744  0.9169 -0.9764
  130OSM    C9S13956   0.071   1.294   7.415  0.3610 -0.2606  0.0479
  130OSM    H9S13957   0.100   1.223   7.334  1.1491 -0.2314  0.2911
  130OSM    H9T13958  -0.038   1.312   7.425  0.2577 -0.3959 -0.7544
  130OSM   C10S13959   0.120   1.235   7.551 -0.5183 -0.0419  0.2392
  130OSM   H10S13960   0.097   1.307   7.633 -1.6039 -0.7687  0.5899
  130OSM   H10T13961   0.229   1.222   7.534 -0.6146  0.2858 -0.6681
  130OSM   C11S13962   0.056   1.096   7.583 -0.5535 -0.1803  0.5371
  130OSM   H11S13963   0.087   1.024   7.504 -0.0012  1.1208 -0.4666
  130OSM   H11T13964  -0.053   1.112   7.596 -0.5673  0.7853 -0.5811
  130OSM   C12S13965   0.100   1.027   7.713  1.0419 -0.2166  0.7499
  130OSM   H12S13966   0.058   1.077   7.804  0.2664 -0.9855  0.8246
  130OSM   H12T13967   0.206   0.999   7.728  0.7158 -3.0392 -1.5668
  130OSM   C13S13968   0.025   0.887   7.722 -0.0144  0.2823 -0.0966
  130OSM   H13S13969  -0.082   0.906   7.698 -0.1368 -0.7600 -0.3992
  130OSM   H13T13970   0.037   0.845   7.824  2.2068  2.7912  0.7963
  130OSM   C14S13971   0.078   0.775   7.637 -0.0765 -0.6011 -0.3632
  130OSM   H14S13972   0.178   0.739   7.668 -0.7116 -2.4524 -0.3630
  130OSM   H14T13973   0.085   0.817   7.534 -1.4259 -2.9973 -1.5156
  130OSM   C15S13974  -0.017   0.654   7.646 -0.7754  0.0278 -0.0323
  130OSM   H15S13975  -0.119   0.690   7.624 -1.0205 -1.4611 -1.5040
  130OSM   H15T13976  -0.010   0.618   7.751  1.2121  1.0406  0.2515
  130OSM   C16S13977   0.017   0.543   7.552 -0.4826 -0.4035 -0.0643
  130OSM   H16S13978   0.093   0.476   7.597  0.3790  0.4486 -0.2217
  130OSM   H16T13979   0.056   0.584   7.457 -3.2493  0.3771 -0.9747
  130OSM   C17S13980  -0.109   0.449   7.535 -0.7702 -0.0364  0.7644
  130OSM   H17S13981  -0.190   0.504   7.482  1.0439  0.8917 -1.1760
  130OSM   H17T13982  -0.143   0.419   7.637 -0.4828 -2.9107  0.0818
  130OSM   C18S13983  -0.086   0.323   7.448  0.2504 -0.2420 -0.7866
  130OSM   H18S13984  -0.153   0.243   7.486 -1.2642  1.3584  0.0498
  130OSM   H18T13985   0.022   0.299   7.458  0.8999  2.7943  0.6533
  130OSM   H18U13986  -0.109   0.343   7.341 -2.6416 -0.7838 -0.3558
  130OSM    C1F13987  -0.163   1.372   6.693 -0.3407 -0.8770 -0.5930
  130OSM     OF13988  -0.131   1.280   6.625 -0.3134  0.3406  0.3867
  130OSM    C2F13989  -0.312   1.401   6.726 -0.3529 -0.1509 -0.3074
  130OSM    H2F13990  -0.336   1.509   6.712 -1.4186 -0.0522  1.9037
  130OSM    H2G13991  -0.324   1.370   6.832 -1.6623  0.7847 -0.1511
  130OSM    C3F13992  -0.401   1.295   6.651 -0.4197 -0.2375 -0.3437
  130OSM    H3F13993  -0.373   1.192   6.684 -0.2233 -0.3691 -0.9166
  130OSM    H3G13994  -0.371   1.305   6.545  2.2146  0.0903  0.3566
  130OSM    C4F13995  -0.559   1.309   6.670 -0.2959 -0.1155  0.2315
  130OSM    H4F13996  -0.613   1.232   6.612  0.6569 -0.2509 -0.5009
  130OSM    H4G13997  -0.604   1.406   6.639 -2.0952 -1.2445 -0.8821
  130OSM    C5F13998  -0.599   1.284   6.815 -0.0370 -0.2968 -0.5271
  130OSM    H5F13999  -0.705   1.316   6.823 -0.4558 -1.7126 -0.2796
  130OSM    H5G14000  -0.543   1.348   6.886 -1.1680 -0.0548  0.1670
  130OSM    C6F14001  -0.596   1.137   6.865 -0.2311 -0.1345  0.2070
  130OSM    H6F14002  -0.488   1.110   6.865 -0.2413 -0.2466  1.3666
  130OSM    H6G14003  -0.647   1.069   6.793 -1.6698 -0.0523  1.1095
  130OSM    C7F14004  -0.671   1.116   6.998  0.2809  0.0644 -0.1010
  130OSM    H7F14005  -0.774   1.149   6.976  0.6870  1.5924  0.1065
  130OSM    H7G14006  -0.637   1.195   7.070  1.0207  0.1024 -0.4815
  130OSM    C8F14007  -0.667   0.973   7.049 -0.4452  0.2354 -0.0615
  130OSM    H8F14008  -0.708   0.958   7.151  0.8966  0.7395  0.5726
  130OSM    H8G14009  -0.557   0.959   7.053 -0.2885  1.1463 -0.8470
  130OSM    C9F14010  -0.713   0.864   6.952  0.2434  0.8248  0.3621
  130OSM    H9F14011  -0.801   0.891   6.892  1.0613 -0.5898 -1.5633
  130OSM   C10F14012  -0.655   0.741   6.949 -0.1291  0.3197 -0.5025
  130OSM   H10F14013  -0.688   0.666   6.875 -1.4795 -0.2003  0.5844
  130OSM   C11F14014  -0.537   0.709   7.045 -0.6500 -0.0751 -0.3204
  130OSM   H11F14015  -0.554   0.612   7.098  1.6820 -1.1095 -1.3416
  130OSM   H11G14016  -0.537   0.782   7.129 -1.4323  2.0900 -2.1165
  130OSM   C12F14017  -0.389   0.714   6.991 -0.1253 -0.3979  0.6608
  130OSM   H12F14018  -0.314   0.744   7.068  0.4836  0.0666 -0.0844
  130OSM   H12G14019  -0.381   0.795   6.915  0.5648  0.7072  1.8555
  130OSM   C13F14020  -0.341   0.579   6.931 -0.2399 -0.0804  0.1880
  130OSM   H13F14021  -0.264   0.601   6.853 -0.8567 -1.7556 -0.9491
  130OSM   H13G14022  -0.426   0.531   6.879 -0.4144  1.3518 -0.9098
  130OSM   C14F14023  -0.287   0.473   7.026 -0.4180 -0.3099 -0.3309
  130OSM   H14F14024  -0.314   0.370   6.993 -1.9091 -0.9595  2.6113
  130OSM   H14G14025  -0.336   0.501   7.122  0.7910 -0.4644  0.3462
  130OSM   C15F14026  -0.135   0.466   7.042 -0.2861 -0.2495  0.2337
  130OSM   H15F14027  -0.081   0.461   6.945 -0.1878 -1.2203  0.3343
  130OSM   H15G14028  -0.102   0.373   7.092 -0.2616 -1.1169 -1.3397
  130OSM   C16F14029  -0.082   0.586   7.108  0.6666  0.4136 -0.6634
  130OSM   H16F14030  -0.116   0.599   7.213  0.1137 -1.1780 -0.6041
  130OSM   H16G14031  -0.121   0.671   7.048 -0.8800  1.1652  1.3021
  130OSM   C17F14032   0.070   0.593   7.118 -0.0842 -0.1321  0.2899
  130OSM   H17F14033   0.102   0.582   7.012  1.9190  0.6241  0.7783
  130OSM   H17G14034   0.116   0.511   7.177  0.0274 -1.2286 -1.2515
  130OSM   C18F14035   0.125   0.724   7.180 -0.2589 -0.3586  0.2787
  130OSM   H18F14036   0.234   0.737   7.169 -0.5861  0.7971 -2.6086
  130OSM   H18G14037   0.092   0.730   7.286  2.1363 -2.0938  1.1852
  130OSM   H18H14038   0.079   0.811   7.128  1.3050  0.5475  0.3461
  131OSM      N14039   5.818   5.579   6.117  0.1644 -0.1660 -0.5318
  131OSM    C1514040   5.714   5.631   6.211 -0.6308 -0.3368  0.2405
  131OSM   H15A14041   5.624   5.666   6.162 -0.9920  0.5502  1.4916
  131OSM   H15B14042   5.747   5.713   6.273 -0.7778  1.9875 -2.5528
  131OSM   H15C14043   5.674   5.555   6.276 -1.2969  2.4836  3.3939
  131OSM    C1414044   5.774   5.461   6.042 -0.2077 -0.0745  0.5296
  131OSM   H14A14045   5.751   5.378   6.106 -1.7093  0.7517  1.1072
  131OSM   H14B14046   5.852   5.442   5.969  1.2452  0.7325  1.8185
  131OSM   H14C14047   5.684   5.488   5.989 -0.5351  0.8432  1.5276
  131OSM    C1314048   5.845   5.687   6.016  0.6809  0.1222 -0.3584
  131OSM   H13A14049   5.761   5.693   5.948  0.4516  0.5745 -0.0332
  131OSM   H13B14050   5.933   5.667   5.957  1.5444 -0.0339  0.9477
  131OSM   H13C14051   5.876   5.780   6.060  0.5966 -0.3371  0.6979
  131OSM    C1214052   5.943   5.542   6.193 -0.6131  0.2894 -0.0771
  131OSM   H12A14053   6.027   5.509   6.134 -1.3160  0.6549 -1.3275
  131OSM   H12B14054   5.939   5.452   6.253  2.6522 -0.2931 -0.5679
  131OSM    C1114055   5.990   5.651   6.289 -0.4286  0.6413  0.1705
  131OSM   H11A14056   6.093   5.621   6.321 -0.3930  0.1005 -0.4439
  131OSM   H11B14057   5.928   5.646   6.381  1.1640 -0.0807  1.2581
  131OSM      P14058   6.139   5.833   6.168 -0.5132  0.0667  0.4387
  131OSM    O1314059   6.198   5.723   6.081 -0.1455 -0.2978 -0.0878
  131OSM    O1414060   6.112   5.959   6.101  0.0170 -0.0328 -0.0636
  131OSM    O1114061   6.234   5.854   6.290 -0.4724 -0.1005 -0.3412
  131OSM    O1214062   6.006   5.777   6.237  0.6796 -0.4780  0.1337
  131OSM    C1S14063   6.182   5.893   6.412 -0.8138 -0.2907 -0.1721
  131OSM    H1S14064   6.093   5.840   6.451  0.6887 -0.9801  2.5646
  131OSM    H1T14065   6.161   6.002   6.404 -3.6410 -0.7901 -0.3855
  131OSM     NF14066   6.199   5.952   6.649  0.2436 -0.1483  0.4141
  131OSM    HNF14067   6.181   6.050   6.643 -3.0212 -0.6659 -0.1010
  131OSM    C2S14068   6.279   5.899   6.537  0.0605  0.2294  0.1233
  131OSM    H2S14069   6.323   5.798   6.553  1.6035  0.5797 -1.5458
  131OSM    C3S14070   6.387   6.000   6.509  0.3532  0.4611  0.6035
  131OSM    H3S14071   6.345   6.102   6.503  0.6807  0.5208 -2.4431
  131OSM     O314072   6.460   5.984   6.389 -0.4766  0.0110 -0.4737
  131OSM    HO314073   6.398   5.936   6.334 -0.5536  1.0259 -1.3181
  131OSM    C4S14074   6.483   6.018   6.624  0.0259  0.5590  0.0012
  131OSM    H4S14075   6.442   6.081   6.704 -2.2647  0.2199 -0.8269
  131OSM    C5S14076   6.608   5.959   6.646  0.0196 -0.2448  0.2922
  131OSM    H5S14077   6.637   5.873   6.584 -1.8923 -0.0802 -0.9067
  131OSM    C6S14078   6.683   5.988   6.773 -0.1896 -0.0174 -0.1543
  131OSM    H6S14079   6.671   6.097   6.793 -0.4067 -0.1978  0.7693
  131OSM    H6T14080   6.791   5.969   6.763  0.0469  1.4323 -0.5727
  131OSM    C7S14081   6.626   5.922   6.908  0.1847  0.4281  0.1775
  131OSM    H7S14082   6.610   5.816   6.882  0.2375  0.3395  0.5068
  131OSM    H7T14083   6.527   5.971   6.923 -0.5590  0.2133 -3.2076
  131OSM    C8S14084   6.712   5.929   7.028 -0.2628  0.1881  0.1426
  131OSM    H8S14085   6.739   6.035   7.050 -3.6514  0.5585  3.5405
  131OSM    H8T14086   6.813   5.886   7.010 -0.3862 -0.6709  1.4063
  131OSM    C9S14087   6.649   5.873   7.161  0.2255 -0.0772  0.4251
  131OSM    H9S14088   6.623   5.766   7.147 -1.6246  0.3743  0.0625
  131OSM    H9T14089   6.547   5.916   7.174  0.0350 -0.5500  0.4982
  131OSM   C10S14090   6.739   5.902   7.288 -0.8866 -0.0560  0.6086
  131OSM   H10S14091   6.753   6.012   7.285  0.0800 -0.1124  2.0635
  131OSM   H10T14092   6.838   5.856   7.264 -1.4743 -0.4009 -1.3558
  131OSM   C11S14093   6.688   5.867   7.418  0.7157 -1.2863  0.1862
  131OSM   H11S14094   6.588   5.914   7.435  1.2305  0.1707 -0.6324
  131OSM   H11T14095   6.758   5.922   7.485 -0.5575  0.8677 -0.1299
  131OSM   C12S14096   6.678   5.716   7.446  0.0659 -0.6837 -0.9111
  131OSM   H12S14097   6.786   5.690   7.441  0.1933 -0.2696 -0.4642
  131OSM   H12T14098   6.620   5.660   7.370 -1.2469  0.0568 -0.4943
  131OSM   C13S14099   6.610   5.700   7.582  0.8824 -0.5395 -0.6712
  131OSM   H13S14100   6.501   5.723   7.586  0.7645 -1.2340  2.2186
  131OSM   H13T14101   6.655   5.767   7.658  0.7739 -1.6758  0.4368
  131OSM   C14S14102   6.613   5.553   7.630  0.6621 -0.3190 -0.1651
  131OSM   H14S14103   6.717   5.517   7.641  0.5886  0.2022  3.5082
  131OSM   H14T14104   6.548   5.503   7.555 -0.1099  1.1622 -0.5219
  131OSM   C15S14105   6.533   5.530   7.767 -0.1255  0.5261 -0.0943
  131OSM   H15S14106   6.557   5.424   7.789 -0.1293  0.0456 -2.2291
  131OSM   H15T14107   6.427   5.544   7.737 -0.3116  2.3556  1.2346
  131OSM   C16S14108   6.572   5.623   7.876 -0.1177 -0.1644  0.4407
  131OSM   H16S14109   6.527   5.724   7.862 -0.1640 -0.3880 -1.2460
  131OSM   H16T14110   6.679   5.643   7.852 -0.6298  0.9260 -1.1293
  131OSM   C17S14111   6.548   5.583   8.021 -0.0773 -0.3272  0.1065
  131OSM   H17S14112   6.557   5.669   8.091  0.6910  1.7773 -2.4119
  131OSM   H17T14113   6.629   5.515   8.054  0.2350  0.4097  0.9077
  131OSM   C18S14114   6.413   5.527   8.062  1.2104 -0.1725  0.1558
  131OSM   H18S14115   6.394   5.430   8.013 -4.7483  1.1450 -0.9875
  131OSM   H18T14116   6.323   5.581   8.025  0.2451 -0.0433  2.5122
  131OSM   H18U14117   6.388   5.505   8.168 -1.1167  0.3994 -0.2097
  131OSM    C1F14118   6.137   5.868   6.731  0.6902 -1.0476 -0.0058
  131OSM     OF14119   6.168   5.749   6.737  0.0769 -0.3945 -0.3203
  131OSM    C2F14120   6.023   5.926   6.800  0.0393  1.1681  0.4906
  131OSM    H2F14121   5.929   5.880   6.762  0.0514  1.4558  0.1046
  131OSM    H2G14122   6.009   6.031   6.765 -3.8428  1.1243  1.4652
  131OSM    C3F14123   6.028   5.910   6.955 -0.5212 -0.0069  0.3561
  131OSM    H3F14124   6.030   5.802   6.980  0.1152  0.0740  0.6617
  131OSM    H3G14125   5.937   5.960   6.997 -1.0608  0.7627 -1.6305
  131OSM    C4F14126   6.151   5.970   7.017  0.0887 -0.1255  1.0675
  131OSM    H4F14127   6.156   6.077   6.990  0.6110  0.8706  4.6159
  131OSM    H4G14128   6.238   5.919   6.970 -0.8412 -1.6587  0.9493
  131OSM    C5F14129   6.158   5.965   7.159  0.0373 -0.0922 -0.6489
  131OSM    H5F14130   6.092   6.042   7.204  0.5749 -0.3893  0.7198
  131OSM    H5G14131   6.260   6.000   7.189 -0.4376  1.4672 -0.7391
  131OSM    C6F14132   6.121   5.830   7.223 -0.8937 -0.0666  0.9113
  131OSM    H6F14133   6.166   5.752   7.157  0.5556  2.0158 -0.6917
  131OSM    H6G14134   6.015   5.797   7.223 -0.9359  0.0641  0.6416
  131OSM    C7F14135   6.170   5.809   7.368  0.2195  0.0122  0.4897
  131OSM    H7F14136   6.141   5.895   7.432  1.0651  1.1327 -0.5901
  131OSM    H7G14137   6.281   5.803   7.369  0.1777 -2.2327 -0.6384
  131OSM    C8F14138   6.110   5.680   7.428  0.0410  0.4584 -0.6758
  131OSM    H8F14139   6.127   5.592   7.362  0.7559  1.1085 -1.3874
  131OSM    H8G14140   6.002   5.694   7.450  0.2447  1.0188 -0.0074
  131OSM    C9F14141   6.173   5.641   7.557 -0.1543  0.6908  0.1716
  131OSM    H9F14142   6.264   5.692   7.592  1.3695 -1.7640 -0.0067
  131OSM   C10F14143   6.134   5.542   7.649  0.0848 -0.1850  0.1536
  131OSM   H10F14144   6.187   5.551   7.745 -0.6309  0.6126  0.4888
  131OSM   C11F14145   6.000   5.464   7.645 -0.1046  0.4037 -0.2319
  131OSM   H11F14146   6.015   5.357   7.667 -0.8041 -0.0705 -1.9038
  131OSM   H11G14147   5.960   5.463   7.541 -1.2891 -2.1396  0.1896
  131OSM   C12F14148   5.886   5.512   7.741 -0.6733  0.6334 -0.6796
  131OSM   H12F14149   5.785   5.470   7.720 -1.6246  1.1792  2.3753
  131OSM   H12G14150   5.886   5.621   7.720  0.6316  0.4431 -1.8539
  131OSM   C13F14151   5.922   5.491   7.889  0.1353 -0.2389 -0.6698
  131OSM   H13F14152   6.031   5.492   7.911 -0.0011  0.3346  0.0033
  131OSM   H13G14153   5.883   5.390   7.914 -1.6894  0.3119 -1.1717
  131OSM   C14F14154   5.861   5.602   7.973 -0.1434 -0.3461  1.0191
  131OSM   H14F14155   5.752   5.599   7.956 -0.1277 -0.1729  0.8918
  131OSM   H14G14156   5.900   5.704   7.948 -0.7801 -0.5613 -1.0465
  131OSM   C15F14157   5.891   5.588   8.120  0.0094 -0.4470  0.1625
  131OSM   H15F14158   5.892   5.690   8.163  0.5324  0.3801 -1.7282
  131OSM   H15G14159   5.996   5.554   8.133 -0.1915 -1.2939 -0.3272
  131OSM   C16F14160   5.797   5.486   8.191 -0.0438 -0.1062 -0.5481
  131OSM   H16F14161   5.832   5.382   8.169  3.3625  0.8081  0.0722
  131OSM   H16G14162   5.700   5.491   8.136 -0.1895  2.0083 -0.1676
  131OSM   C17F14163   5.785   5.505   8.341 -0.1596  0.4941 -0.5357
  131OSM   H17F14164   5.744   5.606   8.366 -0.6634  0.3608 -0.8013
  131OSM   H17G14165   5.879   5.494   8.399 -1.4791  1.0156  1.8319
  131OSM   C18F14166   5.692   5.392   8.398 -0.2163  0.0219 -0.2131
  131OSM   H18F14167   5.590   5.397   8.354 -1.3525 -0.8805  2.1781
  131OSM   H18G14168   5.682   5.389   8.508 -1.9770  1.9592 -0.2468
  131OSM   H18H14169   5.727   5.293   8.361 -1.2347 -0.0127 -1.1334
  132OSM      N14170   1.630   4.043   6.142  0.1301  0.4724  0.5975
  132OSM    C1514171   1.509   4.129   6.130  0.1645 -0.7890 -0.3119
  132OSM   H15A14172   1.510   4.183   6.037  3.1896 -1.8539 -0.9914
  132OSM   H15B14173   1.506   4.197   6.214 -1.2575 -0.7483 -0.3703
  132OSM   H15C14174   1.427   4.058   6.125  1.9784 -3.1033  0.6765
  132OSM    C1414175   1.639   3.938   6.037  0.5179 -0.2067  0.4567
  132OSM   H14A14176   1.642   3.978   5.937  1.3488 -0.5995  0.3189
  132OSM   H14B14177   1.559   3.866   6.043 -1.9354  2.0964 -1.9253
  132OSM   H14C14178   1.717   3.868   6.064  1.8076  0.4825 -1.2750
  132OSM    C1314179   1.748   4.131   6.132  0.2194 -0.3457 -0.4938
  132OSM   H13A14180   1.771   4.185   6.222  2.8652 -2.5267  0.2449
  132OSM   H13B14181   1.715   4.202   6.057 -3.1595 -1.1839  0.0213
  132OSM   H13C14182   1.834   4.074   6.102  0.0679 -1.3601  0.9546
  132OSM    C1214183   1.631   3.963   6.276  0.3839  0.3755 -0.4389
  132OSM   H12A14184   1.619   4.039   6.352  1.3195 -1.0968  1.2475
  132OSM   H12B14185   1.731   3.926   6.293  0.4813  0.6254 -0.4565
  132OSM    C1114186   1.530   3.849   6.300 -0.4246  0.2165  0.4313
  132OSM   H11A14187   1.424   3.882   6.305 -0.2947  0.5910  0.7115
  132OSM   H11B14188   1.546   3.813   6.404 -1.8216 -0.8889  0.2973
  132OSM      P14189   1.443   3.652   6.135 -0.5117 -0.2715  0.1916
  132OSM    O1314190   1.370   3.750   6.052  0.2212 -0.8240 -0.2600
  132OSM    O1414191   1.504   3.534   6.067 -0.3180 -0.1287 -0.1847
  132OSM    O1114192   1.353   3.611   6.258 -0.3352  0.6438 -0.0641
  132OSM    O1214193   1.552   3.731   6.218  0.2363 -0.7259  0.3261
  132OSM    C1S14194   1.389   3.499   6.343  0.6346 -0.2876  0.9930
  132OSM    H1S14195   1.443   3.423   6.283  0.0871 -0.6577  0.9603
  132OSM    H1T14196   1.288   3.461   6.371  0.2521  0.0930  0.1798
  132OSM     NF14197   1.491   3.417   6.537  0.3182  0.2961  0.1485
  132OSM    HNF14198   1.440   3.387   6.618 -0.8302  0.8818 -0.3472
  132OSM    C2S14199   1.457   3.542   6.474 -0.2783 -0.0069 -0.1827
  132OSM    H2S14200   1.556   3.582   6.446  0.2582 -1.7891 -0.9807
  132OSM    C3S14201   1.366   3.635   6.561  0.5004  0.3991 -0.0869
  132OSM    H3S14202   1.284   3.574   6.604  0.7120  0.0346 -0.2020
  132OSM     O314203   1.306   3.743   6.495  0.8678 -0.4647 -0.0623
  132OSM    HO314204   1.312   3.722   6.402 -1.3043  1.8081 -0.8187
  132OSM    C4S14205   1.444   3.687   6.680  0.6350 -0.4626  0.3379
  132OSM    H4S14206   1.546   3.722   6.657  0.7934  1.6498  3.5694
  132OSM    C5S14207   1.395   3.698   6.808  0.2979 -0.1572 -0.3113
  132OSM    H5S14208   1.295   3.652   6.812  0.5304 -1.3077 -3.9388
  132OSM    C6S14209   1.450   3.750   6.937 -1.2814  0.1302 -0.0307
  132OSM    H6S14210   1.394   3.842   6.966 -0.5125  0.4653  0.4092
  132OSM    H6T14211   1.557   3.779   6.926 -0.7831 -0.2770  2.9732
  132OSM    C7S14212   1.430   3.639   7.049  0.0826 -0.0647 -0.0351
  132OSM    H7S14213   1.470   3.542   7.013 -1.5749 -0.6767 -0.3228
  132OSM    H7T14214   1.322   3.623   7.066  0.1852 -1.0688 -0.2339
  132OSM    C8S14215   1.498   3.667   7.186  0.3071  0.2643  0.2780
  132OSM    H8S14216   1.504   3.777   7.201  0.9160  0.0830  1.5040
  132OSM    H8T14217   1.598   3.619   7.188  0.5519  0.5905 -1.8719
  132OSM    C9S14218   1.421   3.598   7.303 -0.0783 -1.0104  0.1985
  132OSM    H9S14219   1.436   3.492   7.277  3.2442 -0.6190  0.1296
  132OSM    H9T14220   1.311   3.618   7.304  0.4200  2.3735  0.1106
  132OSM   C10S14221   1.486   3.626   7.438  0.0374  0.0141  0.6782
  132OSM   H10S14222   1.474   3.732   7.469  1.7421 -0.1881  2.2341
  132OSM   H10T14223   1.596   3.617   7.426  0.0627  1.4287 -0.3301
  132OSM   C11S14224   1.434   3.543   7.549  0.1204  0.1955 -0.6190
  132OSM   H11S14225   1.448   3.433   7.541 -2.6977 -0.5674  2.6796
  132OSM   H11T14226   1.323   3.551   7.551  0.0320 -0.4909  3.0886
  132OSM   C12S14227   1.478   3.603   7.689  0.0225  0.1566 -0.2785
  132OSM   H12S14228   1.422   3.699   7.698 -1.3012 -0.7053  1.3463
  132OSM   H12T14229   1.588   3.615   7.694  0.1907 -1.5454  0.8560
  132OSM   C13S14230   1.448   3.509   7.802 -0.2573  0.1669  0.2041
  132OSM   H13S14231   1.500   3.414   7.778  1.2246  1.6970 -3.2512
  132OSM   H13T14232   1.339   3.489   7.815 -0.2688 -1.1982 -1.6812
  132OSM   C14S14233   1.502   3.556   7.938  0.5546  1.0969  0.7913
  132OSM   H14S14234   1.421   3.610   7.991 -0.6486  0.4761 -0.3653
  132OSM   H14T14235   1.592   3.620   7.925  0.6439  0.8595  0.2197
  132OSM   C15S14236   1.544   3.445   8.037  0.6342 -0.1387 -0.1861
  132OSM   H15S14237   1.615   3.371   7.993  0.3745 -2.0025  2.3129
  132OSM   H15T14238   1.455   3.387   8.070  0.3783  1.6365  2.5920
  132OSM   C16S14239   1.602   3.503   8.170  0.1164 -0.1719 -0.8325
  132OSM   H16S14240   1.548   3.585   8.222  0.6276  1.1352 -2.2580
  132OSM   H16T14241   1.697   3.551   8.136  0.3300 -0.6315 -0.8875
  132OSM   C17S14242   1.637   3.393   8.279 -0.0582 -0.4527 -0.0349
  132OSM   H17S14243   1.708   3.321   8.233  0.0712 -0.2175 -0.2091
  132OSM   H17T14244   1.551   3.328   8.305  0.8927 -2.2846 -1.2566
  132OSM   C18S14245   1.689   3.440   8.416  0.5927 -0.4270 -0.1548
  132OSM   H18S14246   1.773   3.512   8.414 -0.8624  1.4241  1.5132
  132OSM   H18T14247   1.717   3.355   8.482 -0.6632 -1.1727 -0.5513
  132OSM   H18U14248   1.602   3.492   8.461  0.5822  0.1524 -0.8305
  132OSM    C1F14249   1.589   3.334   6.490 -0.6132  1.1012  0.1934
  132OSM     OF14250   1.661   3.369   6.400  0.0730  0.3087  0.2497
  132OSM    C2F14251   1.602   3.204   6.551  0.5125  0.1176 -0.2543
  132OSM    H2F14252   1.570   3.127   6.477  0.9077 -0.9473  0.6541
  132OSM    H2G14253   1.525   3.192   6.630  0.6423 -1.6602 -0.3658
  132OSM    C3F14254   1.749   3.184   6.609  0.0052  1.0528  0.2646
  132OSM    H3F14255   1.816   3.189   6.521  1.4839  0.9310  1.3460
  132OSM    H3G14256   1.755   3.083   6.655 -4.1606 -0.0345 -1.1068
  132OSM    C4F14257   1.798   3.285   6.713 -1.5974  0.2320 -0.1213
  132OSM    H4F14258   1.773   3.387   6.675  1.2123  0.1232 -2.5993
  132OSM    H4G14259   1.908   3.274   6.718 -1.3887 -0.2121 -3.2143
  132OSM    C5F14260   1.742   3.272   6.850 -0.6386 -0.3089  0.6481
  132OSM    H5F14261   1.739   3.163   6.874 -0.2971  0.0820  2.6925
  132OSM    H5G14262   1.637   3.308   6.844 -0.3114  0.7811  1.2492
  132OSM    C6F14263   1.824   3.345   6.956  0.1681 -0.4224  0.0249
  132OSM    H6F14264   1.867   3.442   6.924 -0.8722  0.3156  0.8101
  132OSM    H6G14265   1.906   3.274   6.983  0.1379  0.0337  1.4133
  132OSM    C7F14266   1.747   3.382   7.089  0.8135  0.1515 -0.1909
  132OSM    H7F14267   1.669   3.454   7.056  1.2861  0.4902 -0.5894
  132OSM    H7G14268   1.815   3.436   7.157 -0.5408  1.4167  0.2032
  132OSM    C8F14269   1.688   3.267   7.167 -0.2287  0.2930 -0.9249
  132OSM    H8F14270   1.630   3.203   7.097 -1.9777  0.9667 -0.1483
  132OSM    H8G14271   1.611   3.309   7.235  0.7210 -1.1249  1.0939
  132OSM    C9F14272   1.786   3.189   7.247 -0.0210  0.1676  0.0840
  132OSM    H9F14273   1.842   3.126   7.176  0.2557  1.9870 -1.3926
  132OSM   C10F14274   1.813   3.179   7.377 -0.6015 -0.3649  1.0909
  132OSM   H10F14275   1.899   3.120   7.411  1.5649  1.6917 -0.4795
  132OSM   C11F14276   1.740   3.254   7.493 -0.2848 -0.7734  0.7005
  132OSM   H11F14277   1.690   3.172   7.549  0.8455 -1.8326  0.1975
  132OSM   H11G14278   1.667   3.325   7.448  1.7774  0.1597 -1.3956
  132OSM   C12F14279   1.847   3.316   7.580  0.5710  0.2159 -0.3533
  132OSM   H12F14280   1.893   3.396   7.518 -1.8119  1.2096 -0.9311
  132OSM   H12G14281   1.929   3.245   7.605  0.0976 -0.7052 -1.3361
  132OSM   C13F14282   1.795   3.385   7.704 -0.0955 -0.1099  0.6460
  132OSM   H13F14283   1.762   3.311   7.780  4.6778 -0.5259  2.6790
  132OSM   H13G14284   1.711   3.455   7.687  1.3801  1.6702  0.4324
  132OSM   C14F14285   1.896   3.466   7.779 -0.0733 -0.0933 -1.0527
  132OSM   H14F14286   1.847   3.504   7.871 -1.0955 -2.3548 -0.5856
  132OSM   H14G14287   1.929   3.549   7.714 -1.6804 -0.0950 -1.9166
  132OSM   C15F14288   2.021   3.387   7.833  0.0040  0.4333 -0.4586
  132OSM   H15F14289   2.076   3.329   7.756  1.2098  0.1633  0.5708
  132OSM   H15G14290   1.968   3.309   7.892  0.4311  0.8571  0.5093
  132OSM   C16F14291   2.127   3.466   7.920 -0.6433  0.5265  0.3248
  132OSM   H16F14292   2.180   3.535   7.851 -0.1758  1.8595  1.9471
  132OSM   H16G14293   2.213   3.406   7.955  0.1870  0.0228 -2.3844
  132OSM   C17F14294   2.076   3.545   8.040  0.3212 -0.3918  0.6458
  132OSM   H17F14295   2.015   3.473   8.099 -1.5269  0.4605 -0.1408
  132OSM   H17G14296   2.003   3.620   8.004  3.2766  2.2057 -0.4548
  132OSM   C18F14297   2.180   3.601   8.122 -0.2281 -0.1974 -0.4173
  132OSM   H18F14298   2.131   3.639   8.213  0.3810 -3.1631  1.2909
  132OSM   H18G14299   2.236   3.674   8.060  0.7331 -1.7592 -1.4659
  132OSM   H18H14300   2.253   3.523   8.153  0.7882  0.7156 -0.4510
  133SAPE     N14301   3.910   3.172  10.879 -0.1666 -0.2626 -0.1028
  133SAPE   HN114302   3.896   3.258  10.937 -1.3857 -1.2830  1.2158
  133SAPE   HN214303   3.903   3.188  10.777 -1.7107  0.8347  0.1459
  133SAPE   HN314304   3.821   3.118  10.886 -0.2659 -0.1135 -0.1947
  133SAPE   C1214305   4.018   3.071  10.902 -0.2023 -0.4555 -0.0660
  133SAPE  H12A14306   3.993   2.997  10.981 -1.8945 -1.6249 -1.6240
  133SAPE  H12B14307   4.112   3.129  10.919 -0.0319 -0.7183 -0.1042
  133SAPE   C1114308   4.034   2.985  10.772 -0.5850  0.0679 -0.4868
  133SAPE  H11A14309   4.095   2.895  10.794 -2.1683 -0.8786  0.1564
  133SAPE  H11B14310   4.087   3.044  10.694  2.5538 -1.5915  0.2273
  133SAPE     P14311   3.846   2.983  10.591 -0.0126 -0.1858  0.1150
  133SAPE   O1314312   3.723   2.907  10.560 -0.3408  0.0340  0.2088
  133SAPE   O1414313   3.843   3.133  10.598 -0.4274  0.3025 -0.7315
  133SAPE   O1214314   3.910   2.929  10.729  0.2176 -0.0833 -0.1729
  133SAPE   O1114315   3.961   2.942  10.484  0.1052  0.0077 -0.6970
  133SAPE    C114316   3.993   2.810  10.457 -0.7795 -0.5112  0.1783
  133SAPE    HA14317   4.101   2.800  10.477 -0.6227 -0.2082 -0.5115
  133SAPE    HB14318   3.943   2.737  10.525  0.1232 -0.6050  0.7518
  133SAPE    C214319   3.971   2.764  10.310 -0.7923  0.1277 -0.6453
  133SAPE    HS14320   4.003   2.659  10.293  1.8826  1.1764 -2.9087
  133SAPE   O2114321   4.064   2.842  10.230 -0.0693 -0.0884 -0.2109
  133SAPE   C2114322   4.190   2.790  10.217  0.1904 -0.3970 -0.1159
  133SAPE   O2214323   4.225   2.680  10.253  0.3114 -0.4742 -0.0795
  133SAPE   C2214324   4.271   2.897  10.135 -0.1353  0.4129  0.3343
  133SAPE   H2R14325   4.209   2.989  10.124  1.3530  1.5079  0.7539
  133SAPE   H2S14326   4.363   2.921  10.192  0.5428  0.6901 -0.8444
  133SAPE    C314327   3.828   2.779  10.262 -0.6550  0.4464  0.7087
  133SAPE    HX14328   3.794   2.884  10.268  0.0544  1.0541 -3.3335
  133SAPE    HY14329   3.767   2.725  10.338 -1.0218  1.9403  1.5076
  133SAPE   O3114330   3.802   2.718  10.136 -0.2080 -0.3759 -0.2172
  133SAPE   C3114331   3.807   2.798  10.031  0.0859 -0.4588 -0.6897
  133SAPE   O3214332   3.826   2.919  10.029 -0.5108  0.0695  0.6692
  133SAPE   C3214333   3.744   2.719   9.916  0.0416  0.1317 -0.2131
  133SAPE   H2X14334   3.649   2.671   9.950  0.9962 -2.4315 -0.9102
  133SAPE   H2Y14335   3.819   2.640   9.893  0.2466  0.5854 -1.1799
  133SAPE   C2314336   4.314   2.830  10.004  0.4311 -0.0285 -0.1598
  133SAPE   H3R14337   4.374   2.738  10.021  0.3056 -0.1450 -0.3509
  133SAPE   H3S14338   4.374   2.903   9.946  1.3405  1.3357  2.3166
  133SAPE   C2414339   4.191   2.793   9.909 -0.0539 -0.5370  0.4119
  133SAPE   H4R14340   4.111   2.869   9.919  1.0790  0.9473 -1.1403
  133SAPE   H4S14341   4.136   2.703   9.944  0.8264 -0.4169  2.2187
  133SAPE   C2514342   4.242   2.766   9.771  0.1105 -1.1312 -0.6066
  133SAPE   H5R14343   4.324   2.692   9.770 -0.1654 -1.4386 -0.5980
  133SAPE   C2614344   4.212   2.822   9.653  0.1401 -0.2210 -0.2382
  133SAPE   H6R14345   4.264   2.784   9.564  0.5891  2.2183 -1.1138
  133SAPE   C2714346   4.101   2.922   9.613 -0.2939 -0.4026 -0.1089
  133SAPE   H7R14347   4.029   2.942   9.695 -0.0412  0.8710 -0.1782
  133SAPE   H7S14348   4.034   2.870   9.541 -2.2612  0.9790  0.6263
  133SAPE   C2814349   4.154   3.055   9.567  0.0460 -0.0710 -0.1602
  133SAPE   H8R14350   4.202   3.118   9.644 -2.8736  1.3178  0.6638
  133SAPE   C2914351   4.140   3.111   9.445 -0.0797  0.1741 -0.4284
  133SAPE   H9R14352   4.194   3.205   9.427 -0.1298  0.0541 -1.2420
  133SAPE  C21014353   4.078   3.058   9.325 -0.5915  0.0076  0.6417
  133SAPE  H10R14354   4.006   3.124   9.272  0.0970  0.6801  0.5325
  133SAPE  H10S14355   4.026   2.960   9.336 -0.2528 -0.4432 -1.4064
  133SAPE  C21114356   4.195   3.007   9.239  0.2174  0.5776  0.2378
  133SAPE  H11R14357   4.254   2.926   9.284  0.7135  1.6253  1.5645
  133SAPE  C21214358   4.228   3.044   9.108  0.0679  0.0461  0.6858
  133SAPE  H12R14359   4.301   2.989   9.047 -0.0504  0.1816  0.4207
  133SAPE  C21314360   4.156   3.146   9.023 -0.5012  0.0444 -0.0116
  133SAPE  H13R14361   4.222   3.234   9.011 -0.5407  0.6451  3.2413
  133SAPE  H13S14362   4.077   3.194   9.084  1.1135  0.1110  2.1545
  133SAPE  C21414363   4.105   3.081   8.895 -0.5120  0.2586 -0.1585
  133SAPE  H14R14364   4.000   3.050   8.896 -0.5880  0.5017  1.0358
  133SAPE  C21514365   4.170   3.075   8.776 -0.2777 -0.2872 -0.2095
  133SAPE  H15R14366   4.115   3.035   8.690 -0.6755 -0.5720  0.1759
  133SAPE  C21614367   4.318   3.102   8.758 -0.0089 -0.7923  0.5139
  133SAPE  H16R14368   4.355   3.011   8.706 -0.1500 -1.2131  1.1418
  133SAPE  H16S14369   4.375   3.124   8.851  2.1927  0.8266 -1.0946
  133SAPE  C21714370   4.330   3.223   8.661  0.0256  0.7096 -0.2185
  133SAPE  H17R14371   4.293   3.317   8.707  1.7816  1.1182  0.4568
  133SAPE  H17S14372   4.264   3.210   8.573  1.1077 -1.5431 -0.7641
  133SAPE  C21814373   4.470   3.245   8.597  0.5958  0.5192  0.2682
  133SAPE  H18R14374   4.474   3.333   8.529 -0.7829 -1.4940 -2.6236
  133SAPE  H18S14375   4.492   3.165   8.523  1.1522  1.2267 -0.3420
  133SAPE  C21914376   4.591   3.252   8.687  0.3559  0.0654  0.8699
  133SAPE  H19R14377   4.602   3.148   8.724  0.8091 -0.0594  0.4026
  133SAPE  H19S14378   4.567   3.325   8.767 -0.1886  0.5421  0.2770
  133SAPE  C22014379   4.711   3.309   8.610 -0.8308  0.8206 -0.1581
  133SAPE  H20R14380   4.745   3.239   8.531 -0.6121  1.0696 -0.2850
  133SAPE  H20S14381   4.797   3.329   8.678  2.1894  0.0469 -3.4482
  133SAPE  H20T14382   4.685   3.404   8.559  0.3276  0.2799 -1.8775
  133SAPE   C3314383   3.717   2.801   9.792  0.6593 -0.2904  0.3872
  133SAPE   H3X14384   3.808   2.861   9.770  0.9978 -0.4670  1.2599
  133SAPE   H3Y14385   3.631   2.869   9.810 -0.1251 -1.1432 -0.0688
  133SAPE   C3414386   3.694   2.712   9.670  0.2332  0.6478  0.7959
  133SAPE   H4X14387   3.615   2.639   9.696 -0.4392  0.5030 -1.4120
  133SAPE   H4Y14388   3.771   2.636   9.642 -0.5694  0.4203 -0.9482
  133SAPE   C3514389   3.638   2.785   9.540  0.1717 -0.4210  0.2948
  133SAPE   H5X14390   3.553   2.846   9.576  0.8039 -0.4403  1.9041
  133SAPE   H5Y14391   3.596   2.720   9.460  0.3600 -0.4693  0.2347
  133SAPE   C3614392   3.745   2.887   9.484  0.5138  0.3593  0.0949
  133SAPE   H6X14393   3.840   2.835   9.461 -0.0081 -0.2653 -0.7014
  133SAPE   H6Y14394   3.757   2.960   9.568  1.6371 -0.9999  1.1593
  133SAPE   C3714395   3.694   2.972   9.365  0.7101 -0.2294  0.0622
  133SAPE   H7X14396   3.775   3.049   9.359  1.1763 -0.5148  2.0699
  133SAPE   H7Y14397   3.599   3.026   9.383  0.5812  0.5799 -2.6360
  133SAPE   C3814398   3.700   2.905   9.232  0.3429 -0.2322  0.2408
  133SAPE   H8X14399   3.618   2.831   9.216  0.3181  0.3400 -2.9165
  133SAPE   H8Y14400   3.797   2.854   9.216  0.6166  0.2303  0.4050
  133SAPE   C3914401   3.671   2.997   9.112 -0.6707 -0.3233 -0.2715
  133SAPE   H9X14402   3.751   3.074   9.111  0.6394 -1.4885  2.6879
  133SAPE   H9Y14403   3.569   3.038   9.125 -0.7395 -0.8368  0.9606
  133SAPE  C31014404   3.697   2.907   8.990  0.3749  0.0496 -0.0873
  133SAPE  H10X14405   3.610   2.838   8.983  0.3154  0.2285 -1.3533
  133SAPE  H10Y14406   3.792   2.849   8.988  0.0943 -0.3985 -0.7982
  133SAPE  C31114407   3.700   2.995   8.857  0.1103  0.2549 -0.0706
  133SAPE  H11X14408   3.785   3.067   8.860 -1.0407  1.6580  0.7162
  133SAPE  H11Y14409   3.616   3.066   8.879  0.4329  0.2640  1.2358
  133SAPE  C31214410   3.679   2.925   8.731  0.3069  0.3302 -0.0737
  133SAPE  H12X14411   3.643   2.997   8.655 -0.3950  1.4323  1.2379
  133SAPE  H12Y14412   3.601   2.851   8.757 -0.4742  1.2527  0.2591
  133SAPE  C31314413   3.800   2.842   8.680 -0.8457  0.0968  0.2871
  133SAPE  H13X14414   3.836   2.774   8.760  0.4613  0.2973 -0.1022
  133SAPE  H13Y14415   3.883   2.910   8.652  0.6796 -2.0811 -0.7496
  133SAPE  C31414416   3.765   2.755   8.554 -0.6167 -0.2838  0.5327
  133SAPE  H14X14417   3.853   2.715   8.500 -0.8773  0.2179 -0.2869
  133SAPE  H14Y14418   3.705   2.820   8.487 -1.3037 -0.0120  1.3933
  133SAPE  C31514419   3.674   2.639   8.604  0.3899  0.2654 -0.2449
  133SAPE  H15X14420   3.583   2.679   8.653  0.1360 -0.4346 -0.1406
  133SAPE  H15Y14421   3.742   2.590   8.677  0.2660 -1.9674 -1.5707
  133SAPE  C31614422   3.635   2.523   8.507  0.2844  0.3849  0.7991
  133SAPE  H16X14423   3.553   2.548   8.436  1.4305 -0.4808 -0.8963
  133SAPE  H16Y14424   3.591   2.434   8.555  0.4218  0.0669  0.3429
  133SAPE  C31714425   3.754   2.466   8.423 -0.0122 -0.0754  0.2215
  133SAPE  H17X14426   3.843   2.462   8.490  0.9241 -0.7032 -1.0127
  133SAPE  H17Y14427   3.780   2.541   8.345  2.0843 -0.3285  0.6197
  133SAPE  C31814428   3.750   2.328   8.362 -0.4305  0.5637  0.4588
  133SAPE  H18X14429   3.743   2.253   8.444  1.0954 -0.2439 -0.1155
  133SAPE  H18Y14430   3.841   2.295   8.308 -1.2928 -0.1861 -0.5617
  133SAPE  H18Z14431   3.663   2.326   8.294 -0.3504  0.2583  0.3644
  134SAPE     N14432   0.578   2.488  10.905 -0.5109 -0.0669 -0.6445
  134SAPE   HN114433   0.598   2.388  10.883  2.3806  0.3221 -0.1760
  134SAPE   HN214434   0.554   2.511  11.003 -2.3411 -0.5670 -0.9401
  134SAPE   HN314435   0.484   2.503  10.863 -1.8193  1.9149  2.6186
  134SAPE   C1214436   0.672   2.584  10.837 -1.0800 -0.6694  0.0140
  134SAPE  H12A14437   0.773   2.540  10.844  0.1804  1.9730 -0.2945
  134SAPE  H12B14438   0.664   2.678  10.895  1.1484 -1.4492  1.7045
  134SAPE   C1114439   0.628   2.590  10.688  0.2319  0.1060  0.0077
  134SAPE  H11A14440   0.672   2.503  10.635 -1.7698  0.0481 -1.6910
  134SAPE  H11B14441   0.676   2.686  10.657  0.4909  1.0443  3.0279
  134SAPE     P14442   0.378   2.491  10.635  0.2571  0.3439  0.0337
  134SAPE   O1314443   0.339   2.430  10.761 -0.9540  0.5252  0.1353
  134SAPE   O1414444   0.274   2.544  10.548 -0.3521 -0.0446  0.1814
  134SAPE   O1214445   0.484   2.599  10.666  0.2482 -0.2209  0.1842
  134SAPE   O1114446   0.448   2.380  10.562  0.1048  1.0378 -0.3112
  134SAPE    C114447   0.546   2.369  10.459  0.7512  0.6193  0.2743
  134SAPE    HA14448   0.570   2.468  10.416  1.5966 -0.8675 -3.0033
  134SAPE    HB14449   0.643   2.328  10.496 -0.9615 -1.6111  2.7579
  134SAPE    C214450   0.483   2.282  10.342 -0.0100 -0.3860 -0.2494
  134SAPE    HS14451   0.440   2.192  10.391 -0.8117 -0.4455 -1.0407
  134SAPE   O2114452   0.595   2.257  10.246  0.2089 -0.9797 -0.2759
  134SAPE   C2114453   0.594   2.133  10.196 -0.2740  0.0961 -0.5933
  134SAPE   O2214454   0.519   2.042  10.230 -1.2960  0.0163 -0.7449
  134SAPE   C2214455   0.700   2.134  10.082 -0.2106 -0.0178  0.4708
  134SAPE   H2R14456   0.750   2.232  10.079 -2.3726  1.3070  2.9472
  134SAPE   H2S14457   0.772   2.057  10.116 -1.5989 -1.2931  0.6560
  134SAPE    C314458   0.370   2.354  10.262 -0.4903 -0.5006  0.9418
  134SAPE    HX14459   0.405   2.454  10.231  1.6407 -1.0968  1.2724
  134SAPE    HY14460   0.291   2.369  10.339  0.5844 -0.0265  1.9834
  134SAPE   O3114461   0.323   2.274  10.150  0.2224  0.4978 -0.0169
  134SAPE   C3114462   0.224   2.328  10.084  0.5933 -0.1025 -0.4805
  134SAPE   O3214463   0.162   2.432  10.118 -0.0538  0.7557 -0.3244
  134SAPE   C3214464   0.188   2.244   9.966  0.7155 -0.3933  0.0812
  134SAPE   H2X14465   0.086   2.210   9.994  0.5813 -0.2785 -0.2676
  134SAPE   H2Y14466   0.254   2.154   9.961  0.4485 -0.5078 -3.3694
  134SAPE   C2314467   0.644   2.094   9.941  0.1562 -0.0192 -0.6247
  134SAPE   H3R14468   0.599   1.994   9.954 -0.3663  0.3913  0.9425
  134SAPE   H3S14469   0.728   2.090   9.868  2.3381  0.7582  1.7043
  134SAPE   C2414470   0.544   2.201   9.888  0.3379 -1.1576 -0.4404
  134SAPE   H4R14471   0.466   2.224   9.964  1.7244 -1.0071  0.9874
  134SAPE   H4S14472   0.491   2.161   9.799 -1.5915 -1.8836  0.9573
  134SAPE   C2514473   0.622   2.323   9.846 -0.4621  0.0274  0.3556
  134SAPE   H5R14474   0.641   2.398   9.925  0.0821 -0.0212  0.2721
  134SAPE   C2614475   0.667   2.352   9.721  0.2061 -0.1760  0.3323
  134SAPE   H6R14476   0.722   2.447   9.713 -0.9916  0.8276  2.7921
  134SAPE   C2714477   0.651   2.265   9.601 -0.1212  0.3725 -0.3706
  134SAPE   H7R14478   0.682   2.164   9.635  2.7596  1.3966  0.3095
  134SAPE   H7S14479   0.730   2.295   9.529 -1.4720 -1.7883 -2.9600
  134SAPE   C2814480   0.516   2.270   9.528 -0.7361  0.0429  0.0055
  134SAPE   H8R14481   0.433   2.297   9.595 -0.2848  0.7466  0.2979
  134SAPE   C2914482   0.500   2.249   9.396  0.5562  0.5163 -0.1257
  134SAPE   H9R14483   0.397   2.241   9.357  0.3155 -1.6511  0.7949
  134SAPE  C21014484   0.598   2.212   9.302 -0.3668 -0.1601 -0.7186
  134SAPE  H10R14485   0.547   2.148   9.228 -0.9891 -1.0444  0.4477
  134SAPE  H10S14486   0.674   2.142   9.344 -2.1353 -1.7745 -0.0976
  134SAPE  C21114487   0.673   2.325   9.240  0.9222  0.1587 -0.2143
  134SAPE  H11R14488   0.735   2.364   9.323  0.5242  0.9459 -0.2848
  134SAPE  C21214489   0.656   2.377   9.117 -0.0342 -0.6024  0.1679
  134SAPE  H12R14490   0.711   2.470   9.099  0.7550 -0.8561  1.1619
  134SAPE  C21314491   0.554   2.336   9.017  0.2094  0.2841  0.7715
  134SAPE  H13R14492   0.462   2.370   9.069  0.7063 -0.2273  2.0128
  134SAPE  H13S14493   0.549   2.225   9.019  2.3082  0.1429  0.7058
  134SAPE  C21414494   0.560   2.378   8.871 -0.0393  0.2181  0.5287
  134SAPE  H14R14495   0.488   2.458   8.849  0.4194  0.6598  0.6154
  134SAPE  C21514496   0.645   2.326   8.777  0.1272  0.4060 -0.3035
  134SAPE  H15R14497   0.650   2.379   8.681 -2.8707  0.8294 -0.3172
  134SAPE  C21614498   0.758   2.223   8.789  0.8916  0.0591 -0.0977
  134SAPE  H16R14499   0.733   2.132   8.730  3.0134 -0.0559 -0.8813
  134SAPE  H16S14500   0.769   2.187   8.894  1.2530 -1.2241 -0.5474
  134SAPE  C21714501   0.891   2.252   8.732 -0.0806 -0.4907  0.1385
  134SAPE  H17R14502   0.956   2.165   8.757  2.2404  0.8322 -0.9317
  134SAPE  H17S14503   0.933   2.350   8.764 -0.6654 -0.4641  0.8464
  134SAPE  C21814504   0.899   2.261   8.578 -1.1433 -0.7456 -0.3922
  134SAPE  H18R14505   0.836   2.340   8.534  0.0110  0.3306 -0.1786
  134SAPE  H18S14506   0.869   2.159   8.547 -0.9465 -1.0115  0.2573
  134SAPE  C21914507   1.041   2.270   8.521  0.0847 -0.0542 -0.3865
  134SAPE  H19R14508   1.039   2.271   8.410  1.2907  1.3969 -0.4227
  134SAPE  H19S14509   1.083   2.178   8.567 -0.8915  0.1462  0.9640
  134SAPE  C22014510   1.133   2.385   8.571  0.9897 -0.4211  0.1616
  134SAPE  H20R14511   1.167   2.379   8.677  2.1869  2.7004  0.0753
  134SAPE  H20S14512   1.083   2.484   8.555  1.7459 -0.0341  0.1506
  134SAPE  H20T14513   1.228   2.394   8.515 -0.7253  1.8935 -2.6798
  134SAPE   C3314514   0.184   2.317   9.826 -0.5902 -0.0464 -0.1565
  134SAPE   H3X14515   0.281   2.364   9.802 -0.4302 -0.4624 -0.3415
  134SAPE   H3Y14516   0.108   2.397   9.836 -0.1969  0.0831  2.4086
  134SAPE   C3414517   0.132   2.232   9.713  0.3315  0.1447  0.0629
  134SAPE   H4X14518   0.036   2.184   9.744 -0.9660  2.1200 -0.7029
  134SAPE   H4Y14519   0.205   2.153   9.688  1.4487  1.2031 -0.0964
  134SAPE   C3514520   0.116   2.315   9.584 -0.0652  1.0626 -0.1267
  134SAPE   H5X14521   0.205   2.375   9.555  0.3456 -0.2434 -1.6945
  134SAPE   H5Y14522   0.026   2.381   9.583 -0.7545  0.2323  1.9467
  134SAPE   C3614523   0.107   2.213   9.465  0.1660 -0.0985 -0.1003
  134SAPE   H6X14524   0.006   2.168   9.471  0.1111 -0.1103 -0.9491
  134SAPE   H6Y14525   0.185   2.134   9.470 -1.1584 -1.4131  0.5049
  134SAPE   C3714526   0.105   2.287   9.334  0.2766  0.0923 -0.6685
  134SAPE   H7X14527   0.190   2.354   9.311  0.2990  0.1971 -0.2748
  134SAPE   H7Y14528   0.020   2.357   9.347 -3.0169 -3.6233 -0.1227
  134SAPE   C3814529   0.052   2.203   9.217 -0.6348 -0.3250  0.2753
  134SAPE   H8X14530  -0.025   2.130   9.251  0.4127 -0.6273  2.1287
  134SAPE   H8Y14531   0.133   2.134   9.184 -0.6499 -0.2097 -0.0052
  134SAPE   C3914532   0.009   2.297   9.101  0.2052 -0.4606  0.1411
  134SAPE   H9X14533   0.093   2.366   9.075 -1.2924  1.7572  0.8536
  134SAPE   H9Y14534  -0.075   2.354   9.148  1.5964 -0.8562  3.3380
  134SAPE  C31014535  -0.032   2.227   8.967  0.0806 -0.1369  1.0710
  134SAPE  H10X14536  -0.132   2.260   8.932 -0.4828 -0.9218  1.8795
  134SAPE  H10Y14537  -0.039   2.119   8.989 -1.4137  0.0987  1.9103
  134SAPE  C31114538   0.097   2.229   8.881  0.3527 -0.4876  0.2038
  134SAPE  H11X14539   0.094   2.136   8.821 -2.1269 -0.3520 -0.0072
  134SAPE  H11Y14540   0.191   2.213   8.938  0.4160 -0.7995  0.0090
  134SAPE  C31214541   0.104   2.337   8.775 -0.0716  0.3532  0.0683
  134SAPE  H12X14542   0.143   2.428   8.825  0.7951  0.5636 -0.9459
  134SAPE  H12Y14543   0.002   2.371   8.746 -0.4924 -1.8864 -1.3408
  134SAPE  C31314544   0.199   2.309   8.662  0.2163 -0.3545  0.6429
  134SAPE  H13X14545   0.149   2.228   8.605 -1.5971  0.5254  0.9030
  134SAPE  H13Y14546   0.296   2.273   8.703  1.0951  1.0530 -0.1464
  134SAPE  C31414547   0.215   2.432   8.565  0.2615  0.3755 -0.5066
  134SAPE  H14X14548   0.243   2.513   8.636 -0.3034 -0.6333  0.8899
  134SAPE  H14Y14549   0.115   2.455   8.522 -0.2241  1.7150  1.2343
  134SAPE  C31514550   0.328   2.411   8.463 -0.7267  0.2778  0.0724
  134SAPE  H15X14551   0.426   2.420   8.515  0.0718 -2.3625 -0.8344
  134SAPE  H15Y14552   0.324   2.496   8.392  0.4759  1.2224  1.0708
  134SAPE  C31614553   0.321   2.280   8.391 -1.0733  0.5136  0.1475
  134SAPE  H16X14554   0.220   2.255   8.353 -1.2721 -1.8093  1.9664
  134SAPE  H16Y14555   0.337   2.206   8.473  1.4226 -0.5577 -1.1695
  134SAPE  C31714556   0.429   2.259   8.281 -0.2670 -0.4355  0.3435
  134SAPE  H17X14557   0.425   2.344   8.209  0.9544  0.6935  1.5404
  134SAPE  H17Y14558   0.417   2.163   8.226 -0.1840  0.1436 -0.7115
  134SAPE  C31814559   0.570   2.239   8.343 -1.0302  0.5607  0.0498
  134SAPE  H18X14560   0.569   2.148   8.407 -0.5602 -0.5393 -1.4709
  134SAPE  H18Y14561   0.611   2.330   8.391 -0.0989  0.0819  0.1763
  134SAPE  H18Z14562   0.638   2.202   8.264  0.0530 -1.7595  1.9315
  135SAPE     N14563   5.716   1.002  10.784 -0.4082  0.2017 -0.1830
  135SAPE   HN114564   5.723   0.902  10.758 -0.2585 -0.1511  1.1302
  135SAPE   HN214565   5.805   1.043  10.749  1.9468 -2.1164  2.5330
  135SAPE   HN314566   5.716   1.000  10.888  0.7458  1.1418 -0.1324
  135SAPE   C1214567   5.594   1.060  10.721 -0.1150 -0.8122  0.0802
  135SAPE  H12A14568   5.582   1.160  10.768  0.0170 -0.7759  0.0368
  135SAPE  H12B14569   5.504   1.003  10.753  0.0758 -1.3944 -0.4102
  135SAPE   C1114570   5.608   1.055  10.567 -0.3632 -0.1698  0.3265
  135SAPE  H11A14571   5.517   1.112  10.536 -0.3831 -0.7522 -0.7083
  135SAPE  H11B14572   5.599   0.951  10.531 -1.2648  0.1649 -0.4634
  135SAPE     P14573   5.742   1.148  10.363 -0.2537 -0.4652  0.6982
  135SAPE   O1314574   5.885   1.124  10.321 -0.6209 -0.0531 -0.7516
  135SAPE   O1414575   5.634   1.094  10.275 -0.3684 -0.2457 -0.6295
  135SAPE   O1214576   5.727   1.114  10.513  0.2135  0.0493 -0.9112
  135SAPE   O1114577   5.727   1.308  10.392 -0.2851 -0.0737  0.0144
  135SAPE    C114578   5.620   1.386  10.338  0.1973  0.3505  0.7299
  135SAPE    HA14579   5.530   1.320  10.333  2.2139 -2.5595  0.3321
  135SAPE    HB14580   5.603   1.480  10.394 -0.0869  2.3020 -2.3678
  135SAPE    C214581   5.670   1.443  10.199  0.0773 -0.0598 -0.0632
  135SAPE    HS14582   5.606   1.531  10.179 -1.9591 -1.4145  0.1957
  135SAPE   O2114583   5.677   1.338  10.099 -0.3832  0.2997  0.6455
  135SAPE   C2114584   5.555   1.303  10.062 -0.8264 -0.7050 -0.3968
  135SAPE   O2214585   5.453   1.363  10.096  0.6400 -0.6304  0.1490
  135SAPE   C2214586   5.559   1.182   9.971 -0.1800  0.3126  0.3941
  135SAPE   H2R14587   5.583   1.214   9.867 -0.5598 -2.4451 -0.6132
  135SAPE   H2S14588   5.630   1.115  10.025  1.1669  2.0885  0.9294
  135SAPE    C314589   5.812   1.503  10.220  0.0313  0.0577  0.0056
  135SAPE    HX14590   5.879   1.417  10.244  0.7150 -0.0360 -1.9852
  135SAPE    HY14591   5.814   1.581  10.299 -1.0749  0.1844 -0.0842
  135SAPE   O3114592   5.864   1.543  10.092  0.0351 -0.6340 -0.8142
  135SAPE   C3114593   5.868   1.680  10.081 -0.3003 -0.1825 -0.5280
  135SAPE   O3214594   5.867   1.756  10.179 -0.0849  0.1636 -0.4288
  135SAPE   C3214595   5.847   1.726   9.943 -0.4315  0.4753  0.7060
  135SAPE   H2X14596   5.924   1.681   9.877  0.2393 -0.3644  2.0182
  135SAPE   H2Y14597   5.866   1.836   9.952 -2.8051  1.1549 -1.3824
  135SAPE   C2314598   5.419   1.126   9.961  0.3657  0.1184  0.1579
  135SAPE   H3R14599   5.366   1.150  10.055  1.5666  0.3911  0.7815
  135SAPE   H3S14600   5.426   1.016   9.945  1.5544  0.3183 -0.8787
  135SAPE   C2414601   5.331   1.195   9.851 -0.3575 -0.5728 -0.2676
  135SAPE   H4R14602   5.389   1.186   9.756 -0.8360  4.2593 -1.2831
  135SAPE   H4S14603   5.317   1.302   9.879  0.1723  0.0115 -2.0605
  135SAPE   C2514604   5.200   1.129   9.839 -0.0444 -0.3700 -0.1583
  135SAPE   H5R14605   5.137   1.160   9.924  0.9500 -2.5092  1.4389
  135SAPE   C2614606   5.153   1.047   9.748  0.2565 -0.7532  0.1377
  135SAPE   H6R14607   5.053   1.002   9.762  0.1529 -0.5999 -0.0958
  135SAPE   C2714608   5.225   1.008   9.623  0.7965 -0.1014  0.6384
  135SAPE   H7R14609   5.180   0.918   9.576  2.0149  0.2223 -1.2654
  135SAPE   H7S14610   5.320   0.964   9.661  0.5059 -0.8839  0.4683
  135SAPE   C2814611   5.246   1.111   9.517  0.9551 -0.3752 -0.0199
  135SAPE   H8R14612   5.347   1.103   9.474  1.1468  0.9240  0.1346
  135SAPE   C2914613   5.169   1.210   9.464  0.4273 -0.0446  0.3161
  135SAPE   H9R14614   5.212   1.275   9.387 -1.9375 -1.8131 -2.7356
  135SAPE  C21014615   5.031   1.251   9.499 -0.1973 -0.3809 -1.0542
  135SAPE  H10R14616   4.998   1.177   9.575 -1.4758  0.7658 -0.4544
  135SAPE  H10S14617   4.955   1.238   9.420 -1.4081  0.0225  0.0111
  135SAPE  C21114618   5.006   1.385   9.571 -0.5014 -0.3960  0.7821
  135SAPE  H11R14619   5.092   1.453   9.567 -1.1816  0.4317 -0.4139
  135SAPE  C21214620   4.889   1.422   9.633 -1.1285 -0.2674  0.7386
  135SAPE  H12R14621   4.886   1.525   9.672 -2.5577 -0.7996  2.1154
  135SAPE  C21314622   4.764   1.344   9.651 -0.6560 -0.7498 -0.9272
  135SAPE  H13R14623   4.783   1.235   9.647  1.4658 -0.5141  0.8513
  135SAPE  H13S14624   4.687   1.368   9.575 -0.2786 -0.8526 -1.3458
  135SAPE  C21414625   4.693   1.383   9.782 -0.5505  0.2882  1.0803
  135SAPE  H14R14626   4.640   1.479   9.774 -0.2716  0.2961 -1.6056
  135SAPE  C21514627   4.686   1.315   9.893 -0.1772  0.0545  0.3865
  135SAPE  H15R14628   4.613   1.354   9.965 -1.2550 -0.7357 -0.2430
  135SAPE  C21614629   4.741   1.178   9.916  0.5300 -0.3091  0.5769
  135SAPE  H16R14630   4.762   1.113   9.829 -1.6152 -1.4177  0.8195
  135SAPE  H16S14631   4.667   1.117   9.973  1.0633 -0.1078  1.5099
  135SAPE  C21714632   4.869   1.183  10.009  0.5362 -0.9832 -0.1326
  135SAPE  H17R14633   4.846   1.230  10.108  0.6277 -1.7966  0.2805
  135SAPE  H17S14634   4.946   1.237   9.950 -1.2861  1.0583 -0.7828
  135SAPE  C21814635   4.910   1.044  10.041  0.2670  0.1519 -0.0520
  135SAPE  H18R14636   4.932   1.003   9.940 -0.0540  1.2581 -0.5824
  135SAPE  H18S14637   4.824   0.990  10.088  0.3947  2.3492  2.9763
  135SAPE  C21914638   5.025   1.029  10.142 -0.2874 -0.2069 -0.0991
  135SAPE  H19R14639   4.981   1.031  10.245 -2.1880  1.4611 -0.8748
  135SAPE  H19S14640   5.084   1.123  10.135 -1.0537  0.6254  3.0656
  135SAPE  C22014641   5.101   0.896  10.118 -0.2827 -0.2973  0.2267
  135SAPE  H20R14642   5.180   0.880  10.194 -1.3236  2.7143  2.1314
  135SAPE  H20S14643   5.156   0.896  10.022 -0.6780 -1.6840 -0.0187
  135SAPE  H20T14644   5.023   0.817  10.111 -1.3554  0.6858  0.5705
  135SAPE   C3314645   5.712   1.698   9.878 -0.4305  0.5593  0.7223
  135SAPE   H3X14646   5.626   1.705   9.948 -2.2663 -0.4600 -1.3186
  135SAPE   H3Y14647   5.709   1.591   9.850 -1.3720  0.5190  0.9286
  135SAPE   C3414648   5.684   1.794   9.755 -0.1080  0.5063  0.0875
  135SAPE   H4X14649   5.651   1.894   9.790  1.0170  0.4465  1.4504
  135SAPE   H4Y14650   5.599   1.758   9.694  0.4812  1.2084 -1.1781
  135SAPE   C3514651   5.805   1.811   9.655 -0.2353  0.2674 -0.7470
  135SAPE   H5X14652   5.837   1.711   9.617 -0.7327  0.2958 -1.2351
  135SAPE   H5Y14653   5.888   1.859   9.711  0.0056 -0.7778 -0.1778
  135SAPE   C3614654   5.781   1.911   9.546 -0.4473  0.3139  0.1370
  135SAPE   H6X14655   5.883   1.933   9.507 -0.5810 -0.1580 -0.4895
  135SAPE   H6Y14656   5.739   2.006   9.587  0.8216  0.2895  1.5907
  135SAPE   C3714657   5.702   1.856   9.437  0.0263 -0.3512  0.0476
  135SAPE   H7X14658   5.598   1.861   9.476  1.1110  2.0312  2.9811
  135SAPE   H7Y14659   5.727   1.752   9.406 -3.1999 -1.0679 -0.4807
  135SAPE   C3814660   5.708   1.950   9.316 -0.2741  0.3552  0.2740
  135SAPE   H8X14661   5.812   1.971   9.282  0.1251 -1.9918 -0.0673
  135SAPE   H8Y14662   5.644   2.039   9.333 -0.9792 -0.2039  0.5560
  135SAPE   C3914663   5.643   1.876   9.198  1.0718  0.4003  0.1582
  135SAPE   H9X14664   5.554   1.833   9.248  2.8971  0.2349  3.5290
  135SAPE   H9Y14665   5.705   1.785   9.184  0.0671  0.0447 -2.5285
  135SAPE  C31014666   5.633   1.953   9.068  0.9269  0.1906  0.2363
  135SAPE  H10X14667   5.736   1.983   9.038  1.3553 -0.1296  1.3476
  135SAPE  H10Y14668   5.572   2.043   9.089 -0.3666 -0.7346  0.5609
  135SAPE  C31114669   5.552   1.874   8.967 -0.0203  0.3501  0.2157
  135SAPE  H11X14670   5.445   1.856   8.994 -0.7599  1.0263 -2.0809
  135SAPE  H11Y14671   5.593   1.771   8.974  1.1691  0.8921  1.8926
  135SAPE  C31214672   5.563   1.917   8.819 -0.4355 -0.1325 -0.3264
  135SAPE  H12X14673   5.671   1.934   8.799 -0.3348  0.0215  0.3263
  135SAPE  H12Y14674   5.513   2.014   8.800 -1.1571 -0.2276  0.9883
  135SAPE  C31314675   5.526   1.804   8.724  0.7399  0.1886  0.3238
  135SAPE  H13X14676   5.553   1.703   8.760 -0.2201 -0.0481  0.4089
  135SAPE  H13Y14677   5.575   1.803   8.624 -1.9753  1.5967 -1.1313
  135SAPE  C31414678   5.372   1.811   8.696 -0.5495  0.1930 -0.8894
  135SAPE  H14X14679   5.356   1.894   8.624  2.3695  1.1056 -0.6187
  135SAPE  H14Y14680   5.329   1.840   8.795 -0.2272  0.6604 -0.8818
  135SAPE  C31514681   5.310   1.681   8.649 -0.8404 -0.4291 -0.4027
  135SAPE  H15X14682   5.319   1.609   8.733 -1.4620  0.1874  0.2052
  135SAPE  H15Y14683   5.374   1.664   8.559 -1.7598 -0.0908 -1.1364
  135SAPE  C31614684   5.159   1.694   8.617 -0.6139 -0.0650  0.3407
  135SAPE  H16X14685   5.144   1.774   8.541  0.3544  0.2503  0.4605
  135SAPE  H16Y14686   5.111   1.727   8.712 -1.2632 -0.8737  0.3052
  135SAPE  C31714687   5.089   1.569   8.571  1.0332  0.2287  0.5867
  135SAPE  H17X14688   5.112   1.495   8.650 -1.6805  1.4127  2.6470
  135SAPE  H17Y14689   5.129   1.526   8.477  0.7950  0.3302  0.4379
  135SAPE  C31814690   4.930   1.582   8.578 -1.6437  0.3636 -0.1178
  135SAPE  H18X14691   4.893   1.659   8.508 -2.3664 -2.0429 -2.5467
  135SAPE  H18Y14692   4.915   1.611   8.684  1.0928 -1.3030  0.8554
  135SAPE  H18Z14693   4.876   1.487   8.560  0.2836 -1.9146  4.2940
  136SAPE     N14694   1.147   1.028  10.972  0.5470  0.1988  0.1010
  136SAPE   HN114695   1.209   1.096  11.022 -0.5927 -0.6925  2.9019
  136SAPE   HN214696   1.099   1.093  10.907 -1.5092  1.1893  2.4316
  136SAPE   HN314697   1.081   0.997  11.046  0.8792  1.7863  1.1246
  136SAPE   C1214698   1.228   0.920  10.897  0.6919  0.0026  0.1484
  136SAPE  H12A14699   1.272   0.860  10.980  2.6227  0.1148 -0.7220
  136SAPE  H12B14700   1.314   0.962  10.840  0.6793 -0.2729 -0.0744
  136SAPE   C1114701   1.136   0.839  10.808 -0.0767 -1.0628  0.1951
  136SAPE  H11A14702   1.211   0.794  10.740  0.7422  1.7438 -0.8871
  136SAPE  H11B14703   1.075   0.913  10.752  0.1660 -2.1434 -1.5687
  136SAPE     P14704   1.106   0.602  10.906 -0.3893 -0.1852 -0.1545
  136SAPE   O1314705   1.255   0.601  10.906 -0.2663 -0.2337 -0.4270
  136SAPE   O1414706   1.037   0.567  11.032  0.3903 -0.0680 -0.6316
  136SAPE   O1214707   1.056   0.754  10.876  0.4449 -0.0611  0.1104
  136SAPE   O1114708   1.047   0.510  10.790 -0.1272  0.2963 -0.7765
  136SAPE    C114709   0.944   0.563  10.704 -0.0326 -0.3970  0.1553
  136SAPE    HA14710   0.867   0.620  10.760 -0.5693 -0.1726 -0.7809
  136SAPE    HB14711   0.992   0.632  10.632  1.2556  0.1150  1.4801
  136SAPE    C214712   0.875   0.447  10.623  0.3702 -0.0663 -0.1737
  136SAPE    HS14713   0.883   0.362  10.694  0.6372 -0.1852 -0.3400
  136SAPE   O2114714   0.951   0.425  10.506  0.3860 -0.0999  0.4230
  136SAPE   C2114715   0.941   0.308  10.452  0.4730  0.4547  1.1196
  136SAPE   O2214716   0.882   0.214  10.506 -0.0672 -0.0938  0.2953
  136SAPE   C2214717   1.038   0.306  10.335 -0.4059 -0.0451  0.0249
  136SAPE   H2R14718   1.006   0.356  10.240 -0.7208 -0.4788 -0.0984
  136SAPE   H2S14719   1.131   0.359  10.364  2.0600 -3.6845 -0.6584
  136SAPE    C314720   0.727   0.472  10.592 -0.7449  0.2648 -0.1676
  136SAPE    HX14721   0.681   0.472  10.693  1.3323  0.8580  0.8240
  136SAPE    HY14722   0.689   0.388  10.530  0.0852 -0.5452  0.4035
  136SAPE   O3114723   0.689   0.601  10.535  0.1651 -0.6418  0.6795
  136SAPE   C3114724   0.694   0.602  10.397  0.1205  0.4848  0.0920
  136SAPE   O3214725   0.720   0.502  10.330  0.0117  0.1083  0.7188
  136SAPE   C3214726   0.667   0.737  10.331 -0.1835  0.0396 -0.4935
  136SAPE   H2X14727   0.760   0.796  10.347  0.5502 -1.0915 -0.4074
  136SAPE   H2Y14728   0.590   0.791  10.390  1.6852  1.6973  0.5540
  136SAPE   C2314729   1.083   0.158  10.317  0.7593 -0.3416 -0.2489
  136SAPE   H3R14730   0.994   0.095  10.299  0.0546  0.8533 -1.0104
  136SAPE   H3S14731   1.138   0.120  10.407 -0.4126  0.9900  1.0743
  136SAPE   C2414732   1.174   0.136  10.195  0.2635 -0.4144  0.3633
  136SAPE   H4R14733   1.192   0.026  10.195 -3.1370 -1.0924 -0.3629
  136SAPE   H4S14734   1.273   0.183  10.215 -0.2300  0.2676  1.2983
  136SAPE   C2514735   1.119   0.180  10.066 -0.2259 -0.0536  0.7657
  136SAPE   H5R14736   1.011   0.201  10.062 -0.3097 -0.2536  1.7796
  136SAPE   C2614737   1.189   0.190   9.950  0.2025  0.5807  0.0408
  136SAPE   H6R14738   1.126   0.220   9.864 -1.8890 -0.8061  0.9953
  136SAPE   C2714739   1.341   0.164   9.929 -0.1974 -0.0139  0.6195
  136SAPE   H7R14740   1.341   0.095   9.841  0.4723  0.2435  0.4143
  136SAPE   H7S14741   1.382   0.102  10.011  1.2598  1.4602  1.0383
  136SAPE   C2814742   1.428   0.274   9.881 -0.4900 -0.2454  0.4802
  136SAPE   H8R14743   1.480   0.321   9.966 -0.5108  0.8713 -0.0974
  136SAPE   C2914744   1.461   0.316   9.751  0.0095 -0.9161  0.2295
  136SAPE   H9R14745   1.531   0.398   9.729 -1.3135 -0.1310 -1.3400
  136SAPE  C21014746   1.404   0.264   9.619  0.0231  0.5811 -0.2343
  136SAPE  H10R14747   1.373   0.351   9.557  0.8752  0.0268 -1.4926
  136SAPE  H10S14748   1.311   0.207   9.641 -0.3531  1.0754 -0.5537
  136SAPE  C21114749   1.504   0.185   9.551 -0.7922  0.2165 -0.4232
  136SAPE  H11R14750   1.575   0.123   9.608  0.1418  0.3488 -1.4086
  136SAPE  C21214751   1.534   0.189   9.423  0.1193  0.0119  0.0918
  136SAPE  H12R14752   1.605   0.116   9.383  0.5659 -0.3356  1.4721
  136SAPE  C21314753   1.461   0.271   9.317  0.4691  0.1199 -0.3114
  136SAPE  H13R14754   1.373   0.335   9.339  0.4956  0.0808 -0.0875
  136SAPE  H13S14755   1.408   0.192   9.261 -0.4930  1.6398 -1.6172
  136SAPE  C21414756   1.555   0.343   9.226  0.1203 -0.0424  0.1155
  136SAPE  H14R14757   1.562   0.445   9.267 -1.7798  0.8066 -1.4606
  136SAPE  C21514758   1.616   0.298   9.124  0.2102  0.2733  0.1781
  136SAPE  H15R14759   1.685   0.367   9.072  0.7236 -1.8720 -2.1992
  136SAPE  C21614760   1.612   0.155   9.074 -0.4457  0.0172 -0.6255
  136SAPE  H16R14761   1.584   0.087   9.157  0.6824  0.2383 -0.0407
  136SAPE  H16S14762   1.714   0.131   9.039 -0.8072  0.3697 -1.9812
  136SAPE  C21714763   1.515   0.149   8.957 -0.0050 -0.8028  0.4178
  136SAPE  H17R14764   1.539   0.223   8.878 -1.3083 -1.5198 -0.6819
  136SAPE  H17S14765   1.414   0.159   9.001  0.0284 -2.4222  0.9108
  136SAPE  C21814766   1.519   0.013   8.880  0.6404 -0.6653  0.1228
  136SAPE  H18R14767   1.430   0.009   8.814  0.2311  0.0872  0.6227
  136SAPE  H18S14768   1.501  -0.073   8.948 -0.6753 -0.8377 -0.4082
  136SAPE  C21914769   1.656  -0.004   8.810  0.0082 -0.5279  0.3558
  136SAPE  H19R14770   1.725  -0.025   8.894 -1.3319 -1.9115  1.1665
  136SAPE  H19S14771   1.701   0.087   8.765 -0.5268  0.0190  0.9140
  136SAPE  C22014772   1.670  -0.124   8.716 -0.2013  0.6734 -0.2580
  136SAPE  H20R14773   1.657  -0.217   8.775 -3.4551  2.1312  1.6389
  136SAPE  H20S14774   1.769  -0.124   8.665 -0.1437 -0.7215 -0.1629
  136SAPE  H20T14775   1.594  -0.119   8.636 -0.9201  1.3712  0.4421
  136SAPE   C3314776   0.636   0.735  10.179  0.1486 -0.4635  0.1611
  136SAPE   H3X14777   0.556   0.661  10.157 -0.3953 -0.2410  1.2946
  136SAPE   H3Y14778   0.738   0.703  10.150  0.4094 -1.2151  1.8259
  136SAPE   C3414779   0.612   0.877  10.123 -0.4085 -0.0262  0.4279
  136SAPE   H4X14780   0.699   0.945  10.132 -2.1770  3.1657 -3.0822
  136SAPE   H4Y14781   0.537   0.923  10.192 -1.0264 -1.4037  0.7068
  136SAPE   C3514782   0.564   0.880   9.982 -0.5445  0.7531  0.8286
  136SAPE   H5X14783   0.546   0.980   9.939  1.1703  0.3153 -1.0906
  136SAPE   H5Y14784   0.470   0.821   9.979 -0.5737  0.7904  1.0524
  136SAPE   C3614785   0.656   0.821   9.878  0.1052  0.5126 -0.2787
  136SAPE   H6X14786   0.667   0.713   9.903 -0.1810  0.8185  1.2189
  136SAPE   H6Y14787   0.757   0.867   9.880  0.6060 -0.4999 -1.2779
  136SAPE   C3714788   0.596   0.829   9.735  0.0573 -0.0618 -0.8295
  136SAPE   H7X14789   0.577   0.938   9.727 -1.2107 -0.1153  0.8941
  136SAPE   H7Y14790   0.504   0.767   9.732  0.2627 -0.4756  0.6595
  136SAPE   C3814791   0.688   0.790   9.620 -0.0811 -0.4254 -0.1982
  136SAPE   H8X14792   0.710   0.682   9.625  3.4788  0.1798 -0.0774
  136SAPE   H8Y14793   0.792   0.829   9.622 -0.7047  1.3034  0.3927
  136SAPE   C3914794   0.633   0.826   9.486 -0.4481  0.1174  0.6480
  136SAPE   H9X14795   0.609   0.933   9.466 -3.3585 -0.7116 -0.8584
  136SAPE   H9Y14796   0.540   0.769   9.468 -0.3961  0.2444 -0.0825
  136SAPE  C31014797   0.729   0.777   9.374 -0.0599 -0.1873  0.0924
  136SAPE  H10X14798   0.737   0.667   9.383  1.4152 -0.1764 -0.8025
  136SAPE  H10Y14799   0.818   0.837   9.402 -0.1822 -0.2759  0.6889
  136SAPE  C31114800   0.690   0.820   9.232  1.3177  0.3119 -0.5141
  136SAPE  H11X14801   0.675   0.930   9.232 -0.7518  0.0890  1.2830
  136SAPE  H11Y14802   0.597   0.766   9.205  0.3628  0.1474  2.7134
  136SAPE  C31214803   0.790   0.789   9.118 -0.0608 -0.2611  0.1614
  136SAPE  H12X14804   0.807   0.679   9.116  0.1473 -0.2598 -2.6920
  136SAPE  H12Y14805   0.889   0.818   9.160  1.1122 -0.9396 -1.9882
  136SAPE  C31314806   0.755   0.848   8.983 -0.4913  0.6139 -1.0730
  136SAPE  H13X14807   0.841   0.850   8.912  0.0906  0.1819 -0.3906
  136SAPE  H13Y14808   0.725   0.955   8.990  0.1561  0.6962  0.9037
  136SAPE  C31414809   0.636   0.765   8.912 -0.7853  0.0993 -0.7043
  136SAPE  H14X14810   0.548   0.745   8.977 -0.2054 -0.2296 -0.0041
  136SAPE  H14Y14811   0.674   0.666   8.881 -1.8968 -0.3018 -0.8385
  136SAPE  C31514812   0.584   0.815   8.777 -0.2138  0.4196 -0.1785
  136SAPE  H15X14813   0.665   0.828   8.702 -0.5737  5.1006 -0.0340
  136SAPE  H15Y14814   0.555   0.922   8.782 -1.8516 -0.0496  2.0906
  136SAPE  C31614815   0.457   0.744   8.730 -0.1786  0.3940  0.1734
  136SAPE  H16X14816   0.451   0.638   8.763 -4.8054  0.2119 -0.5884
  136SAPE  H16Y14817   0.444   0.731   8.621  0.7853 -0.5627  0.1607
  136SAPE  C31714818   0.333   0.831   8.775 -0.1825 -0.2280  0.0363
  136SAPE  H17X14819   0.315   0.927   8.720 -0.0304  0.4100  1.0742
  136SAPE  H17Y14820   0.343   0.875   8.877  0.0569  0.3839 -0.2439
  136SAPE  C31814821   0.203   0.763   8.750  1.0969  1.2423  1.2094
  136SAPE  H18X14822   0.114   0.829   8.758 -0.5596 -0.6143 -0.5596
  136SAPE  H18Y14823   0.185   0.675   8.816 -4.1161  1.0627  0.0046
  136SAPE  H18Z14824   0.196   0.737   8.642 -0.1522  1.6879  1.1645
  137SAPE     N14825   6.306   4.861  10.839 -0.4626 -0.4696  0.0480
  137SAPE   HN114826   6.278   4.775  10.786 -0.3471  0.0459 -0.8693
  137SAPE   HN214827   6.220   4.915  10.862  1.0107  2.4668 -0.8370
  137SAPE   HN314828   6.363   4.923  10.779 -0.7825  1.5421  1.7272
  137SAPE   C1214829   6.382   4.823  10.964 -0.8155 -0.6933 -0.0260
  137SAPE  H12A14830   6.334   4.739  11.018  1.4723 -0.4102  2.6471
  137SAPE  H12B14831   6.373   4.912  11.031 -0.1639  0.5578 -1.5374
  137SAPE   C1114832   6.529   4.774  10.927 -0.0639  0.3213  0.0803
  137SAPE  H11A14833   6.583   4.762  11.024  2.8642  2.1174 -1.1934
  137SAPE  H11B14834   6.584   4.862  10.888 -0.3060  0.2919 -0.3245
  137SAPE     P14835   6.677   4.602  10.802  0.1325  0.0519  0.0399
  137SAPE   O1314836   6.757   4.718  10.762  0.3797 -0.0954 -0.2041
  137SAPE   O1414837   6.736   4.521  10.913  0.2007  0.1333  0.0027
  137SAPE   O1214838   6.538   4.661  10.840 -0.4754  0.3538 -0.4575
  137SAPE   O1114839   6.645   4.511  10.683 -0.4177 -0.5119 -0.0839
  137SAPE    C114840   6.556   4.565  10.578 -0.3878 -0.0769  0.0098
  137SAPE    HA14841   6.472   4.494  10.567  0.5316 -1.2687  0.4269
  137SAPE    HB14842   6.494   4.655  10.601 -2.0847 -1.5495  1.5181
  137SAPE    C214843   6.619   4.592  10.438 -0.2432  0.2985 -0.3965
  137SAPE    HS14844   6.685   4.504  10.424 -2.3212 -1.8139  1.9611
  137SAPE   O2114845   6.679   4.719  10.439 -0.2082 -0.3022  1.0498
  137SAPE   C2114846   6.809   4.716  10.469  0.1359 -0.4615  0.3044
  137SAPE   O2214847   6.878   4.617  10.480  0.4513  0.1865 -0.2414
  137SAPE   C2214848   6.864   4.868  10.482  0.5124  0.0021 -0.1338
  137SAPE   H2R14849   6.807   4.917  10.563 -0.5969 -3.6195  1.4836
  137SAPE   H2S14850   6.973   4.875  10.501  0.5913 -1.6558  0.2003
  137SAPE    C314851   6.499   4.595  10.339  0.4363  0.9717  0.4824
  137SAPE    HX14852   6.418   4.667  10.361 -0.3501  0.7214 -1.3791
  137SAPE    HY14853   6.454   4.493  10.340 -0.1263  1.2179  0.9955
  137SAPE   O3114854   6.541   4.604  10.202  0.3217 -1.1489  0.2814
  137SAPE   C3114855   6.552   4.722  10.150 -0.2373  0.9027  0.5365
  137SAPE   O3214856   6.521   4.829  10.199  0.3284 -0.1496  0.8476
  137SAPE   C3214857   6.627   4.689  10.023 -0.9087 -0.1597 -0.1447
  137SAPE   H2X14858   6.615   4.582   9.997  2.6400 -1.1435  1.6376
  137SAPE   H2Y14859   6.735   4.715  10.024 -1.2474  1.3600 -0.2796
  137SAPE   C2314860   6.840   4.943  10.346 -0.5824 -0.1410  0.4522
  137SAPE   H3R14861   6.831   5.053  10.357 -0.9529  0.2626 -2.8520
  137SAPE   H3S14862   6.750   4.905  10.292 -0.7276 -0.0172  0.6105
  137SAPE   C2414863   6.963   4.929  10.253 -0.5491 -0.1195  0.6063
  137SAPE   H4R14864   6.933   4.961  10.151  0.1332 -1.3619 -0.0022
  137SAPE   H4S14865   6.986   4.822  10.237  2.4249  0.6069 -0.8047
  137SAPE   C2514866   7.092   4.998  10.284 -0.4604  0.3704 -0.1060
  137SAPE   H5R14867   7.104   5.021  10.391  0.0120 -1.2757  0.2257
  137SAPE   C2614868   7.190   5.024  10.199 -0.8460  0.3772  0.1030
  137SAPE   H6R14869   7.281   5.075  10.235 -1.5230  0.6728  1.4324
  137SAPE   C2714870   7.189   4.976  10.054 -0.5037 -0.9671 -0.4674
  137SAPE   H7R14871   7.264   5.042  10.006 -0.3243  1.7915  3.1428
  137SAPE   H7S14872   7.093   5.019  10.020  0.1417  2.2571  1.3968
  137SAPE   C2814873   7.201   4.833  10.025  0.5904 -0.4356  0.9059
  137SAPE   H8R14874   7.209   4.765  10.112 -0.3156 -0.5845  0.8830
  137SAPE   C2914875   7.222   4.779   9.899  0.0088  0.0796 -0.8731
  137SAPE   H9R14876   7.204   4.671   9.887 -1.6963  0.3555 -1.0523
  137SAPE  C21014877   7.246   4.858   9.771  0.6414  0.0766 -0.5807
  137SAPE  H10R14878   7.332   4.813   9.717  0.7050  0.8637 -1.1525
  137SAPE  H10S14879   7.271   4.965   9.788 -1.0244  0.2133  1.4102
  137SAPE  C21114880   7.124   4.846   9.690 -0.1453  0.0235  0.0962
  137SAPE  H11R14881   7.026   4.866   9.737 -1.8614 -1.9433 -2.3898
  137SAPE  C21214882   7.112   4.826   9.554 -0.4986 -0.5258 -0.3727
  137SAPE  H12R14883   7.013   4.809   9.510 -1.3126  2.9859 -0.2057
  137SAPE  C21314884   7.232   4.801   9.468 -0.7020  0.6784  0.1497
  137SAPE  H13R14885   7.242   4.694   9.440 -0.3732  1.1544 -1.6690
  137SAPE  H13S14886   7.329   4.828   9.515  0.4565 -1.4512 -0.8549
  137SAPE  C21414887   7.215   4.860   9.335  0.0027 -0.3122 -0.2532
  137SAPE  H14R14888   7.117   4.836   9.289  0.9540 -0.0216 -2.5828
  137SAPE  C21514889   7.303   4.939   9.265 -0.1910 -0.3020  0.0309
  137SAPE  H15R14890   7.273   4.981   9.169 -0.2910  2.1459  1.0560
  137SAPE  C21614891   7.435   4.981   9.322 -0.3310 -0.4183 -0.3099
  137SAPE  H16R14892   7.473   4.902   9.389 -1.6736  0.1015  1.1360
  137SAPE  H16S14893   7.413   5.071   9.383  0.8928  0.0529 -0.5416
  137SAPE  C21714894   7.544   5.034   9.224  0.3293 -0.6191  0.0510
  137SAPE  H17R14895   7.628   5.070   9.287  0.6273 -0.7489 -0.2615
  137SAPE  H17S14896   7.490   5.110   9.163 -0.3691 -1.6208 -0.6044
  137SAPE  C21814897   7.595   4.939   9.119  0.4324 -0.1524 -0.0092
  137SAPE  H18R14898   7.515   4.888   9.061  2.0691 -1.3266 -1.3386
  137SAPE  H18S14899   7.657   4.860   9.166  0.7928 -0.7020 -1.3572
  137SAPE  C21914900   7.691   5.011   9.028  0.1832 -0.5278 -0.1433
  137SAPE  H19R14901   7.655   5.116   9.021 -1.1263 -0.7694  1.9637
  137SAPE  H19S14902   7.689   4.963   8.928 -2.6013  2.4646 -1.7206
  137SAPE  C22014903   7.828   4.999   9.084 -0.4263 -0.5652 -0.1295
  137SAPE  H20R14904   7.833   5.033   9.190 -2.8628 -0.9894  0.1756
  137SAPE  H20S14905   7.903   5.055   9.024 -0.5547 -2.0970 -1.7968
  137SAPE  H20T14906   7.859   4.894   9.097 -1.2785 -0.6203  1.8050
  137SAPE   C3314907   6.560   4.773   9.911 -0.5711  0.8532  0.4138
  137SAPE   H3X14908   6.563   4.880   9.941 -1.3091  0.9979 -0.0185
  137SAPE   H3Y14909   6.457   4.733   9.901  0.2866 -1.4554  0.2494
  137SAPE   C3414910   6.623   4.758   9.773  0.0223 -0.0937  0.5288
  137SAPE   H4X14911   6.609   4.654   9.737  2.0453  0.0853 -0.9676
  137SAPE   H4Y14912   6.733   4.773   9.784 -0.2375  1.1851  1.7329
  137SAPE   C3514913   6.582   4.866   9.670 -0.3089 -0.1038 -0.1519
  137SAPE   H5X14914   6.591   4.972   9.703  0.2865  0.4278 -1.9567
  137SAPE   H5Y14915   6.473   4.853   9.652  0.0094 -0.1784 -2.2078
  137SAPE   C3614916   6.671   4.855   9.548 -0.4135 -0.6314  0.0474
  137SAPE   H6X14917   6.678   4.748   9.520 -0.2532 -0.2459 -1.5237
  137SAPE   H6Y14918   6.775   4.894   9.562 -1.7595  3.8535 -0.7668
  137SAPE   C3714919   6.624   4.944   9.430  0.1496 -0.1897  0.5727
  137SAPE   H7X14920   6.626   5.053   9.450 -0.7598  0.1642 -1.0751
  137SAPE   H7Y14921   6.522   4.909   9.402  0.6520 -1.6235  0.4646
  137SAPE   C3814922   6.714   4.915   9.307 -0.1505  0.0688  0.0639
  137SAPE   H8X14923   6.758   4.813   9.315  0.7731  0.6104  3.4483
  137SAPE   H8Y14924   6.795   4.991   9.311 -2.7845  3.0171  0.5454
  137SAPE   C3914925   6.643   4.941   9.176 -0.2621  0.2787  0.7827
  137SAPE   H9X14926   6.567   4.861   9.163  1.5911 -1.4641  0.0579
  137SAPE   H9Y14927   6.712   4.918   9.092 -1.9961 -1.2926 -0.3003
  137SAPE  C31014928   6.587   5.082   9.152  0.7536  0.0795 -0.8603
  137SAPE  H10X14929   6.657   5.162   9.184  2.6051 -1.9828  0.4972
  137SAPE  H10Y14930   6.498   5.097   9.217  1.9400 -0.8516  1.0675
  137SAPE  C31114931   6.545   5.101   9.004 -0.4903 -0.6984 -0.4231
  137SAPE  H11X14932   6.465   5.027   8.981  0.3217 -0.6881 -3.7424
  137SAPE  H11Y14933   6.629   5.082   8.934  0.5076 -0.6634  0.7297
  137SAPE  C31214934   6.503   5.250   8.981  0.3580 -0.0774 -0.1195
  137SAPE  H12X14935   6.578   5.308   9.040  1.6513 -0.5354 -1.2478
  137SAPE  H12Y14936   6.407   5.267   9.034  0.1018 -0.1454 -0.5594
  137SAPE  C31314937   6.487   5.291   8.833 -0.5255 -0.0975  0.0264
  137SAPE  H13X14938   6.588   5.305   8.789 -0.6729 -1.1258 -0.6781
  137SAPE  H13Y14939   6.438   5.391   8.831  0.0864  0.2127  0.3013
  137SAPE  C31414940   6.394   5.199   8.749  0.7809  0.0396 -0.2590
  137SAPE  H14X14941   6.295   5.191   8.799  0.9448 -2.0907 -0.1876
  137SAPE  H14Y14942   6.440   5.100   8.726  1.1117  0.4204 -1.2719
  137SAPE  C31514943   6.375   5.244   8.609  0.4023 -0.0714  0.4477
  137SAPE  H15X14944   6.466   5.283   8.559  0.3315 -0.5039 -0.0249
  137SAPE  H15Y14945   6.310   5.334   8.615  0.3244 -0.2023  1.9446
  137SAPE  C31614946   6.327   5.137   8.518 -0.2431 -0.4126 -0.0372
  137SAPE  H16X14947   6.239   5.095   8.572 -1.1449  1.1735 -0.2187
  137SAPE  H16Y14948   6.410   5.062   8.512  0.3302  0.1944  0.1665
  137SAPE  C31714949   6.293   5.175   8.376 -0.4312 -0.0025  0.1666
  137SAPE  H17X14950   6.249   5.091   8.317  0.6807  0.3385 -1.1739
  137SAPE  H17Y14951   6.387   5.208   8.327 -0.5051 -1.3505 -0.9789
  137SAPE  C31814952   6.183   5.282   8.351 -0.0504  0.4337 -0.5319
  137SAPE  H18X14953   6.201   5.376   8.408  1.7981  0.8968 -1.7748
  137SAPE  H18Y14954   6.079   5.253   8.375 -0.0246  0.6314 -0.1727
  137SAPE  H18Z14955   6.196   5.312   8.245  1.3650  0.7872 -0.2783
  138SAPE     N14956   2.760   6.115  10.826  0.2273 -0.6920  0.1755
  138SAPE   HN114957   2.783   6.022  10.868 -2.7023 -3.7818 -4.1449
  138SAPE   HN214958   2.813   6.119  10.737  0.3597  0.5410  0.2921
  138SAPE   HN314959   2.784   6.196  10.886  0.3751 -1.4824  1.2175
  138SAPE   C1214960   2.616   6.120  10.786 -0.2245  0.6882  0.0792
  138SAPE  H12A14961   2.589   6.226  10.768  3.0261  1.7070  0.5789
  138SAPE  H12B14962   2.551   6.077  10.866 -0.9360  0.4610 -0.6115
  138SAPE   C1114963   2.599   6.041  10.655 -0.4196 -0.5268  0.1511
  138SAPE  H11A14964   2.668   6.095  10.586 -0.2482  0.2715  0.9269
  138SAPE  H11B14965   2.499   6.053  10.608  0.3348  1.3328 -1.1225
  138SAPE     P14966   2.566   5.785  10.680 -0.0089 -0.2300  0.2945
  138SAPE   O1314967   2.650   5.665  10.717  0.1800 -0.8129 -0.0059
  138SAPE   O1414968   2.459   5.819  10.778  0.1200 -0.0893 -0.0567
  138SAPE   O1214969   2.656   5.908  10.667  0.2506 -0.0541  0.3379
  138SAPE   O1114970   2.495   5.753  10.539 -0.5162 -0.3620 -0.2512
  138SAPE    C114971   2.578   5.705  10.433  0.5483  0.4494 -0.0024
  138SAPE    HA14972   2.529   5.731  10.337  0.2545 -0.5508 -0.1365
  138SAPE    HB14973   2.682   5.745  10.431  1.3634 -1.5542 -0.7612
  138SAPE    C214974   2.606   5.548  10.439  0.7357  0.0280  0.2126
  138SAPE    HS14975   2.684   5.520  10.512  0.6972 -0.8495 -0.0684
  138SAPE   O2114976   2.660   5.503  10.314  0.2060  0.2204 -0.1589
  138SAPE   C2114977   2.744   5.401  10.305  0.4559 -0.7837 -0.2568
  138SAPE   O2214978   2.788   5.340  10.397 -0.3737 -0.6390 -0.1448
  138SAPE   C2214979   2.749   5.354  10.160 -0.1033 -0.3385  0.0466
  138SAPE   H2R14980   2.725   5.440  10.095 -1.2684 -0.9498 -0.3513
  138SAPE   H2S14981   2.849   5.309  10.142 -0.4143 -0.6731 -0.9329
  138SAPE    C314982   2.475   5.469  10.481 -1.6331 -0.4962 -0.3978
  138SAPE    HX14983   2.413   5.491  10.391  2.1022  0.6199 -2.9626
  138SAPE    HY14984   2.440   5.506  10.580 -0.2953  0.9447 -0.4236
  138SAPE   O3114985   2.489   5.327  10.483 -0.2478  0.2601  0.4228
  138SAPE   C3114986   2.568   5.287  10.586  0.3885  0.1140  0.3904
  138SAPE   O3214987   2.613   5.361  10.673  0.2481  0.2873  0.1172
  138SAPE   C3214988   2.600   5.132  10.564 -0.3528  0.4526 -0.5550
  138SAPE   H2X14989   2.588   5.085  10.663  0.6352 -0.5437 -0.8921
  138SAPE   H2Y14990   2.701   5.121  10.520 -1.3853 -1.9208 -2.5985
  138SAPE   C2314991   2.642   5.244  10.140 -0.3342  0.6411  0.1336
  138SAPE   H3R14992   2.539   5.283  10.134  0.0172  1.9056  1.8233
  138SAPE   H3S14993   2.645   5.168  10.221 -1.6638  2.0175  1.5254
  138SAPE   C2414994   2.657   5.173  10.003  0.3893  0.1034  0.3266
  138SAPE   H4R14995   2.595   5.235   9.935  1.9386  2.2128  0.7391
  138SAPE   H4S14996   2.611   5.071  10.005  2.7815 -1.0605 -0.0609
  138SAPE   C2514997   2.794   5.165   9.950  0.1236  0.1337  0.2798
  138SAPE   H5R14998   2.863   5.111  10.017 -0.2973 -1.3763 -0.4428
  138SAPE   C2614999   2.842   5.225   9.843 -0.6494  1.0553  0.0994
  138SAPE   H6R15000   2.950   5.210   9.831 -1.2202 -4.5396 -0.2326
  138SAPE   C2715001   2.767   5.304   9.741 -0.6832 -0.1148 -0.5677
  138SAPE   H7R15002   2.710   5.379   9.801  1.9440  2.1046 -0.6295
  138SAPE   H7S15003   2.694   5.252   9.676 -1.1307  0.3776 -0.4744
  138SAPE   C2815004   2.867   5.383   9.657  0.0249  0.3430 -0.3599
  138SAPE   H8R15005   2.898   5.478   9.703  1.3070  0.7236 -1.9017
  138SAPE   C2915006   2.920   5.356   9.538 -0.5694  0.6170 -0.3180
  138SAPE   H9R15007   2.997   5.424   9.499  0.0656 -0.5004 -1.0652
  138SAPE  C21015008   2.893   5.234   9.453 -0.7145  0.4123  0.4221
  138SAPE  H10R15009   2.845   5.154   9.513  1.3883 -0.1689  1.4243
  138SAPE  H10S15010   2.990   5.192   9.418 -1.6628 -0.3848 -1.3729
  138SAPE  C21115011   2.811   5.261   9.328  0.3350 -0.1022 -0.2691
  138SAPE  H11R15012   2.706   5.231   9.337 -0.0996  0.9019 -1.6554
  138SAPE  C21215013   2.852   5.329   9.218  0.3042 -0.0448 -0.2626
  138SAPE  H12R15014   2.787   5.332   9.130 -1.0442  1.3418  0.7468
  138SAPE  C21315015   2.991   5.394   9.204  0.5787 -0.0378  0.8065
  138SAPE  H13R15016   3.050   5.339   9.128 -2.1432 -3.5987  1.0372
  138SAPE  H13S15017   3.048   5.380   9.298  0.6713 -2.3558  0.4440
  138SAPE  C21415018   2.966   5.539   9.169 -0.1856 -0.2619  0.2413
  138SAPE  H14R15019   2.992   5.603   9.255  2.0193 -2.5449  1.4078
  138SAPE  C21515020   2.938   5.586   9.051  0.9826 -0.6314  0.3455
  138SAPE  H15R15021   2.928   5.695   9.039 -0.3271 -0.8827 -1.1849
  138SAPE  C21615022   2.912   5.506   8.926 -0.9850 -0.1598  0.2388
  138SAPE  H16R15023   2.876   5.406   8.958 -0.6310 -0.0363  1.0535
  138SAPE  H16S15024   3.007   5.493   8.869  0.0021 -0.1401  1.8347
  138SAPE  C21715025   2.801   5.558   8.833 -0.1282  0.0460  0.6586
  138SAPE  H17R15026   2.702   5.568   8.882  0.5445  0.7718  1.9249
  138SAPE  H17S15027   2.770   5.474   8.767  0.4114  2.8103 -3.5195
  138SAPE  C21815028   2.841   5.674   8.745 -0.5221 -0.3855  0.1020
  138SAPE  H18R15029   2.937   5.653   8.693 -0.5592 -1.5826  0.4809
  138SAPE  H18S15030   2.864   5.766   8.803 -0.4306 -0.1227 -0.3488
  138SAPE  C21915031   2.739   5.705   8.640 -0.1187 -0.2550  0.3063
  138SAPE  H19R15032   2.639   5.723   8.684 -0.9596  0.9606 -1.9580
  138SAPE  H19S15033   2.725   5.610   8.584 -1.2518  0.9582 -1.5865
  138SAPE  C22015034   2.780   5.801   8.533  0.6143  0.2333  0.3498
  138SAPE  H20R15035   2.722   5.801   8.438  1.8423 -1.3398 -0.4556
  138SAPE  H20S15036   2.884   5.783   8.496  0.6091  2.1117 -0.7313
  138SAPE  H20T15037   2.796   5.902   8.576 -1.2896  0.3884  0.7722
  138SAPE   C3315038   2.505   5.057  10.465 -0.0163 -1.1374  0.7305
  138SAPE   H3X15039   2.519   5.094  10.361  0.5696  0.6796  1.4207
  138SAPE   H3Y15040   2.403   5.089  10.496  0.6040  2.4479 -0.4999
  138SAPE   C3415041   2.514   4.908  10.467 -0.0840 -0.0964 -0.4333
  138SAPE   H4X15042   2.419   4.859  10.434 -0.3319 -1.3147  1.8425
  138SAPE   H4Y15043   2.513   4.872  10.573  1.2904 -0.6399 -0.5825
  138SAPE   C3515044   2.630   4.836  10.387  0.3840 -0.5708 -0.6695
  138SAPE   H5X15045   2.679   4.753  10.443 -1.4093 -0.0484  1.8127
  138SAPE   H5Y15046   2.702   4.913  10.352 -0.5467 -0.5193 -2.6447
  138SAPE   C3615047   2.576   4.771  10.262  0.2975  0.5386  0.1629
  138SAPE   H6X15048   2.526   4.681  10.303  1.3962 -0.4130 -0.5015
  138SAPE   H6Y15049   2.664   4.731  10.206 -1.6332  0.5679 -3.1474
  138SAPE   C3715050   2.490   4.848  10.163  0.5028  0.6697 -0.5007
  138SAPE   H7X15051   2.559   4.927  10.127 -0.3336  1.4987 -0.3433
  138SAPE   H7Y15052   2.401   4.894  10.211 -1.3632 -0.0541 -3.0321
  138SAPE   C3815053   2.456   4.760  10.047 -0.2265  0.2656  0.2463
  138SAPE   H8X15054   2.368   4.712  10.095 -1.2903  0.6621 -1.2306
  138SAPE   H8Y15055   2.539   4.689  10.023 -0.9422 -0.8728  1.0293
  138SAPE   C3915056   2.421   4.837   9.924 -0.0251  0.0139 -0.0078
  138SAPE   H9X15057   2.380   4.928   9.972  2.3545  1.0434  0.2212
  138SAPE   H9Y15058   2.344   4.780   9.868 -0.2574 -0.1667  0.4960
  138SAPE  C31015059   2.530   4.861   9.824  0.4926  0.1779  0.4032
  138SAPE  H10X15060   2.568   4.762   9.790 -0.5570  0.1570 -0.7855
  138SAPE  H10Y15061   2.617   4.915   9.866  0.8232  2.7841 -3.1855
  138SAPE  C31115062   2.476   4.943   9.708  0.1801 -0.1719  0.2439
  138SAPE  H11X15063   2.453   5.044   9.749  0.7879  0.5777 -1.2032
  138SAPE  H11Y15064   2.381   4.897   9.673  0.0823 -1.1605  1.7090
  138SAPE  C31215065   2.582   4.955   9.597  0.7937  0.6550 -0.4078
  138SAPE  H12X15066   2.683   4.981   9.635  0.3140 -0.0500  1.4558
  138SAPE  H12Y15067   2.538   5.034   9.533 -0.2145  0.7267  0.3383
  138SAPE  C31315068   2.586   4.827   9.507 -0.5749  0.9628 -0.3901
  138SAPE  H13X15069   2.480   4.800   9.491 -0.6035  2.1230 -2.4798
  138SAPE  H13Y15070   2.654   4.745   9.539 -1.0328  0.8191  0.2250
  138SAPE  C31415071   2.625   4.868   9.367 -0.4415  0.7541  0.6848
  138SAPE  H14X15072   2.696   4.951   9.387 -2.5265  2.4637  1.4616
  138SAPE  H14Y15073   2.541   4.917   9.313 -0.5578  1.1723  1.2382
  138SAPE  C31515074   2.704   4.753   9.289 -0.2376  0.0352  0.3900
  138SAPE  H15X15075   2.629   4.678   9.257  0.2806 -0.8502  1.2101
  138SAPE  H15Y15076   2.770   4.692   9.355  0.6721  2.1561  1.5398
  138SAPE  C31615077   2.789   4.805   9.170 -1.0631 -0.3124  0.7963
  138SAPE  H16X15078   2.852   4.719   9.137 -0.7691  0.4068 -0.5586
  138SAPE  H16Y15079   2.856   4.883   9.212 -0.1532  1.2681 -3.1577
  138SAPE  C31715080   2.724   4.870   9.045  0.0318  0.1758 -0.1922
  138SAPE  H17X15081   2.683   4.970   9.070  1.2158  0.3580  1.1199
  138SAPE  H17Y15082   2.639   4.804   9.016 -1.1090  1.0851  0.9397
  138SAPE  C31815083   2.820   4.892   8.927 -0.2964 -0.0018  0.0731
  138SAPE  H18X15084   2.876   4.798   8.904  1.7726  1.6386 -2.0187
  138SAPE  H18Y15085   2.905   4.954   8.962 -0.3311 -0.0416  0.2310
  138SAPE  H18Z15086   2.768   4.937   8.840  1.4319  1.5308 -0.2235
  139SAPE     N15087   3.355   2.741  10.725  0.0516  0.2008 -0.0986
  139SAPE   HN115088   3.435   2.675  10.731  0.6713  0.9929  0.5119
  139SAPE   HN215089   3.332   2.755  10.624  1.8915 -0.4146 -0.6562
  139SAPE   HN315090   3.396   2.825  10.770  0.4261  0.2553 -0.5259
  139SAPE   C1215091   3.232   2.695  10.794 -1.0637 -0.2673  0.1201
  139SAPE  H12A15092   3.201   2.767  10.873 -0.2006 -0.6751  0.8417
  139SAPE  H12B15093   3.258   2.610  10.860  0.6211  1.9998  2.5779
  139SAPE   C1115094   3.125   2.640  10.703  0.1237  0.2198 -0.0423
  139SAPE  H11A15095   3.039   2.600  10.761  0.5445  0.8754  1.0741
  139SAPE  H11B15096   3.170   2.556  10.646 -0.1369 -0.2355  0.4096
  139SAPE     P15097   3.109   2.772  10.477  0.2169  0.1766 -0.4890
  139SAPE   O1315098   3.028   2.888  10.429  0.1684  0.7299  0.3891
  139SAPE   O1415099   3.260   2.777  10.469  0.4243 -0.4569 -0.6006
  139SAPE   O1215100   3.072   2.748  10.633 -0.4797 -0.1358  0.2722
  139SAPE   O1115101   3.058   2.636  10.413 -0.3961  0.4107 -0.1798
  139SAPE    C115102   2.921   2.618  10.378 -1.3648 -0.4975  0.1279
  139SAPE    HA15103   2.873   2.715  10.353  1.1430  1.3358  1.8769
  139SAPE    HB15104   2.926   2.553  10.288  1.9709 -0.4287  0.1401
  139SAPE    C215105   2.841   2.537  10.485  0.0774 -0.0801  0.9073
  139SAPE    HS15106   2.868   2.582  10.582  0.9199  0.3432  0.4946
  139SAPE   O2115107   2.902   2.402  10.477 -0.3299 -0.3158  0.2067
  139SAPE   C2115108   2.889   2.336  10.587  0.6641  0.5092 -0.0138
  139SAPE   O2215109   2.829   2.373  10.688 -0.0295  0.2371 -0.4239
  139SAPE   C2215110   2.976   2.207  10.575  0.3609  0.7073  0.2687
  139SAPE   H2R15111   3.034   2.198  10.480 -0.3339 -2.2028  0.0278
  139SAPE   H2S15112   3.042   2.221  10.664  1.4500  3.2346 -0.8045
  139SAPE    C315113   2.690   2.541  10.464  0.4050 -0.0047  0.3211
  139SAPE    HX15114   2.655   2.636  10.510  2.6398  0.4357  1.2416
  139SAPE    HY15115   2.643   2.464  10.529 -1.6396  1.3592  0.5481
  139SAPE   O3115116   2.654   2.522  10.327 -0.5983 -0.0322  0.2828
  139SAPE   C3115117   2.528   2.505  10.293  0.5193 -0.6809 -0.1691
  139SAPE   O3215118   2.437   2.504  10.376  0.0715 -0.4714  0.3420
  139SAPE   C3215119   2.513   2.481  10.145 -0.3929  0.0606  0.1612
  139SAPE   H2X15120   2.594   2.410  10.119  1.4784  2.2757 -0.3798
  139SAPE   H2Y15121   2.536   2.578  10.096 -1.8210 -0.5886 -1.9668
  139SAPE   C2315122   2.897   2.068  10.590 -1.0989 -0.8456 -0.6420
  139SAPE   H3R15123   2.826   2.073  10.675  0.4156  0.4787  0.5898
  139SAPE   H3S15124   2.972   1.987  10.596 -2.0573 -1.7267 -0.3150
  139SAPE   C2415125   2.815   2.032  10.456 -0.1529  0.0384 -0.4664
  139SAPE   H4R15126   2.798   1.923  10.468  0.5128  0.0424  0.6365
  139SAPE   H4S15127   2.893   2.050  10.380  0.4250  3.7389  0.7614
  139SAPE   C2515128   2.685   2.105  10.444 -0.2331 -0.5164  0.0798
  139SAPE   H5R15129   2.631   2.132  10.536  1.0497  0.3630  0.6111
  139SAPE   C2615130   2.646   2.154  10.327  0.5561 -0.0755 -0.0865
  139SAPE   H6R15131   2.555   2.215  10.322 -0.0499 -0.8280  1.1367
  139SAPE   C2715132   2.718   2.128  10.193 -0.2143 -0.4738 -0.5239
  139SAPE   H7R15133   2.645   2.131  10.110  0.8094  1.1537 -1.4280
  139SAPE   H7S15134   2.761   2.026  10.194 -1.7633 -1.1601  0.1980
  139SAPE   C2815135   2.825   2.228  10.173 -0.0843  0.6279  0.1053
  139SAPE   H8R15136   2.879   2.259  10.264  1.0722 -0.0775 -0.3154
  139SAPE   C2915137   2.866   2.283  10.059 -0.1044  0.7143  0.7207
  139SAPE   H9R15138   2.948   2.356  10.062  0.7145 -0.2181  1.4610
  139SAPE  C21015139   2.810   2.262   9.918  0.0475 -0.2839 -0.2654
  139SAPE  H10R15140   2.758   2.163   9.916 -2.6430  0.8966  2.8536
  139SAPE  H10S15141   2.894   2.254   9.846 -0.4159  1.7477 -1.1000
  139SAPE  C21115142   2.719   2.375   9.864 -1.5616  0.4673 -0.1271
  139SAPE  H11R15143   2.739   2.475   9.905  1.0915  0.0689 -0.2524
  139SAPE  C21215144   2.653   2.367   9.745 -0.6711  0.1908 -0.1446
  139SAPE  H12R15145   2.619   2.464   9.706  2.9889  2.9065  2.6864
  139SAPE  C21315146   2.643   2.247   9.666 -1.1435  0.6743  0.0324
  139SAPE  H13R15147   2.612   2.161   9.728 -0.4353  1.1483  1.0681
  139SAPE  H13S15148   2.743   2.216   9.627 -2.6276 -3.1200 -1.1656
  139SAPE  C21415149   2.536   2.252   9.563  0.4760 -0.4683 -0.2187
  139SAPE  H14R15150   2.439   2.205   9.583  0.1142 -0.7394 -2.3457
  139SAPE  C21515151   2.544   2.310   9.443  0.3181  0.2031  0.0770
  139SAPE  H15R15152   2.456   2.304   9.376  0.0318  1.3185  0.3432
  139SAPE  C21615153   2.658   2.382   9.386 -0.7478 -0.1750  0.2801
  139SAPE  H16R15154   2.746   2.316   9.396 -0.3613  0.3185  0.1694
  139SAPE  H16S15155   2.684   2.472   9.446  1.3667 -0.4609 -0.1593
  139SAPE  C21715156   2.660   2.410   9.237  0.5458  0.4121 -0.0966
  139SAPE  H17R15157   2.583   2.489   9.219 -0.4312 -0.8949 -2.0164
  139SAPE  H17S15158   2.630   2.312   9.194  2.1542 -0.6302  1.0541
  139SAPE  C21815159   2.797   2.445   9.175  0.8085  0.2956 -0.0926
  139SAPE  H18R15160   2.867   2.362   9.199  0.3387  0.1445  0.8276
  139SAPE  H18S15161   2.831   2.544   9.211  1.2667  0.5599 -1.2107
  139SAPE  C21915162   2.787   2.455   9.021  1.0906 -0.6637  0.4181
  139SAPE  H19R15163   2.737   2.552   9.007  2.8848  0.3641  0.8031
  139SAPE  H19S15164   2.724   2.370   8.988 -1.6331 -0.1115  3.6589
  139SAPE  C22015165   2.923   2.449   8.959  0.3542 -0.4989  0.1847
  139SAPE  H20R15166   2.979   2.365   9.006  0.5939  0.3584  1.4669
  139SAPE  H20S15167   2.981   2.541   8.982 -0.4516 -0.0466  0.4093
  139SAPE  H20T15168   2.929   2.444   8.848  0.6517 -0.2840  0.1876
  139SAPE   C3315169   2.379   2.430  10.094  0.2500  0.5572 -0.1782
  139SAPE   H3X15170   2.301   2.508  10.103 -0.2289  0.2305 -1.3747
  139SAPE   H3Y15171   2.342   2.340  10.147 -0.4356  0.8945 -0.0765
  139SAPE   C3415172   2.376   2.411   9.934 -0.4591  0.3029 -0.5609
  139SAPE   H4X15173   2.410   2.308   9.906 -0.9868  0.4312 -1.7212
  139SAPE   H4Y15174   2.439   2.489   9.886 -0.4369  0.4876 -0.2364
  139SAPE   C3515175   2.231   2.433   9.876 -0.6332  0.4063  1.1393
  139SAPE   H5X15176   2.203   2.537   9.903 -0.6613  0.8132 -0.3609
  139SAPE   H5Y15177   2.163   2.357   9.919  1.1764 -2.0282 -0.0519
  139SAPE   C3615178   2.228   2.406   9.727 -0.0851  0.2891  1.0939
  139SAPE   H6X15179   2.245   2.297   9.712 -0.7646  0.4513 -1.5054
  139SAPE   H6Y15180   2.307   2.474   9.689 -1.4941  1.0687 -0.5847
  139SAPE   C3715181   2.087   2.445   9.676 -0.1166 -0.2326 -0.0691
  139SAPE   H7X15182   2.077   2.555   9.689  0.6175 -0.2856  1.1005
  139SAPE   H7Y15183   2.012   2.396   9.741  1.7307 -0.5925  1.8915
  139SAPE   C3815184   2.072   2.410   9.527 -0.0233 -0.7628 -0.6179
  139SAPE   H8X15185   1.981   2.462   9.487  0.8207  0.8272 -0.5711
  139SAPE   H8Y15186   2.071   2.300   9.517 -1.6333 -0.7719 -0.5874
  139SAPE   C3915187   2.171   2.458   9.420 -0.1490 -0.5648  0.2568
  139SAPE   H9X15188   2.269   2.411   9.445  0.5886  0.8301  0.0684
  139SAPE   H9Y15189   2.181   2.568   9.423  2.5633 -0.7548  0.8462
  139SAPE  C31015190   2.139   2.404   9.281  0.8432  0.3678 -0.3061
  139SAPE  H10X15191   2.056   2.464   9.238 -1.1895 -1.8492  0.2958
  139SAPE  H10Y15192   2.113   2.296   9.275  2.0153  0.0967 -0.8958
  139SAPE  C31115193   2.254   2.443   9.186  0.9364  0.4840 -0.0551
  139SAPE  H11X15194   2.335   2.371   9.212 -0.4617 -0.9096  0.5629
  139SAPE  H11Y15195   2.283   2.549   9.199  2.3252  0.3101 -1.4733
  139SAPE  C31215196   2.210   2.412   9.038 -0.5645  0.2576  0.3139
  139SAPE  H12X15197   2.131   2.485   9.010 -0.5391 -0.1039 -0.7469
  139SAPE  H12Y15198   2.154   2.315   9.037  0.5404 -0.4222  1.4522
  139SAPE  C31315199   2.323   2.408   8.932 -1.3000  0.1761 -0.4532
  139SAPE  H13X15200   2.398   2.330   8.958 -1.4820  0.9368  2.9215
  139SAPE  H13Y15201   2.397   2.489   8.950 -0.5188 -0.6178  0.0011
  139SAPE  C31415202   2.272   2.410   8.790 -0.6433  0.0164  0.3666
  139SAPE  H14X15203   2.232   2.511   8.768 -0.2731  0.0831 -0.0229
  139SAPE  H14Y15204   2.196   2.329   8.784 -0.7748  0.1345  0.4180
  139SAPE  C31515205   2.382   2.378   8.686  0.5892 -0.3928  0.5546
  139SAPE  H15X15206   2.432   2.283   8.715  2.1882  0.7567  1.7494
  139SAPE  H15Y15207   2.455   2.460   8.701  1.1956 -0.5502 -1.3080
  139SAPE  C31615208   2.336   2.365   8.540 -0.3371 -0.2699  0.0846
  139SAPE  H16X15209   2.291   2.457   8.497 -0.2404 -1.0360 -1.7516
  139SAPE  H16Y15210   2.427   2.350   8.478 -0.8994 -0.8611 -0.6183
  139SAPE  C31715211   2.242   2.244   8.525  0.5185  0.4030  0.7619
  139SAPE  H17X15212   2.140   2.289   8.522  0.0312 -0.7202 -0.1262
  139SAPE  H17Y15213   2.251   2.180   8.616 -0.0473  1.0111  1.2579
  139SAPE  C31815214   2.257   2.166   8.391  0.1320  0.0432 -0.2052
  139SAPE  H18X15215   2.362   2.131   8.380  0.5173  0.8844  0.6153
  139SAPE  H18Y15216   2.241   2.240   8.310 -0.7612 -0.1111 -0.1788
  139SAPE  H18Z15217   2.179   2.091   8.367  1.0359 -0.7511 -0.7482
  140SAPE     N15218   0.410   5.688  11.192  0.0814 -0.1675 -0.5088
  140SAPE   HN115219   0.402   5.778  11.140 -1.2398 -0.0523 -0.1374
  140SAPE   HN215220   0.326   5.681  11.253  2.4797  2.0390  3.4524
  140SAPE   HN315221   0.492   5.692  11.255  0.0437 -2.8852 -0.1610
  140SAPE   C1215222   0.445   5.580  11.091  0.1815  0.4829 -1.1273
  140SAPE  H12A15223   0.346   5.571  11.041 -0.8395  2.3866  0.4093
  140SAPE  H12B15224   0.472   5.493  11.155  1.1005  1.9545  0.5633
  140SAPE   C1115225   0.544   5.630  10.990  0.9377 -0.3446 -0.7821
  140SAPE  H11A15226   0.519   5.728  10.944  1.6102  0.8275  1.2368
  140SAPE  H11B15227   0.541   5.556  10.908  1.8960  0.0689 -1.2050
  140SAPE     P15228   0.782   5.540  11.033 -0.0357  0.3124 -0.3198
  140SAPE   O1315229   0.887   5.574  11.133  0.4049 -0.0962  0.0362
  140SAPE   O1415230   0.727   5.404  11.050  0.0420 -0.9728 -0.2861
  140SAPE   O1215231   0.673   5.646  11.051 -0.5909  0.3822  0.2243
  140SAPE   O1115232   0.841   5.563  10.892  0.1083 -0.3362  0.0394
  140SAPE    C115233   0.900   5.685  10.847 -0.2737  0.6059  0.1633
  140SAPE    HA15234   0.945   5.742  10.932  1.0642 -1.3013  0.7859
  140SAPE    HB15235   0.984   5.656  10.781 -0.1295  2.0643 -0.3432
  140SAPE    C215236   0.797   5.771  10.777  0.6932  0.1737  0.3369
  140SAPE    HS15237   0.716   5.786  10.852  1.5762 -0.0913  1.3820
  140SAPE   O2115238   0.757   5.700  10.660 -0.2443  0.6611  0.4426
  140SAPE   C2115239   0.630   5.701  10.607 -0.0368 -0.6471 -0.0683
  140SAPE   O2215240   0.540   5.772  10.653 -0.1306 -0.2440 -0.0488
  140SAPE   C2215241   0.631   5.623  10.477 -0.3505  0.5834 -0.0076
  140SAPE   H2R15242   0.737   5.621  10.445 -0.2507  1.0530  0.2796
  140SAPE   H2S15243   0.608   5.517  10.503 -0.8354  0.3867 -1.1692
  140SAPE    C315244   0.853   5.912  10.746  0.3249  0.4940  0.2833
  140SAPE    HX15245   0.964   5.904  10.751  0.2284 -0.4600  3.2334
  140SAPE    HY15246   0.815   5.972  10.832 -3.8887 -1.2141 -0.1798
  140SAPE   O3115247   0.795   5.967  10.625  0.3171 -0.2867 -0.1312
  140SAPE   C3115248   0.877   5.986  10.521  0.2962 -0.3033 -0.2233
  140SAPE   O3215249   0.989   5.936  10.509  0.1619  0.4014 -0.2664
  140SAPE   C3215250   0.806   6.061  10.415  0.0227 -0.4083  0.0525
  140SAPE   H2X15251   0.700   6.077  10.445 -0.4757  0.4349 -2.0043
  140SAPE   H2Y15252   0.815   6.001  10.322 -0.7540  0.2212 -0.4490
  140SAPE   C2315253   0.516   5.663  10.378  0.7449  0.4821 -0.3402
  140SAPE   H3R15254   0.419   5.655  10.430  0.7871 -0.4374 -0.3947
  140SAPE   H3S15255   0.527   5.581  10.304  0.6670  0.0841  0.0860
  140SAPE   C2415256   0.551   5.786  10.281 -0.3579 -0.8187 -0.0117
  140SAPE   H4R15257   0.640   5.765  10.218  1.0215  1.7502  0.9376
  140SAPE   H4S15258   0.586   5.872  10.341 -1.2315  0.1379 -0.8447
  140SAPE   C2515259   0.437   5.825  10.193 -0.0673  0.5648  0.0112
  140SAPE   H5R15260   0.393   5.921  10.223  3.9026  2.7658 -0.4838
  140SAPE   C2615261   0.390   5.755  10.091 -0.0004  0.6427 -0.2806
  140SAPE   H6R15262   0.303   5.780  10.029 -0.8467 -2.3042 -0.4161
  140SAPE   C2715263   0.439   5.629  10.033 -0.5176 -0.1610 -0.1586
  140SAPE   H7R15264   0.546   5.610  10.057 -0.1186  1.4918 -0.4824
  140SAPE   H7S15265   0.439   5.639   9.922 -0.3523 -0.6170 -0.2037
  140SAPE   C2815266   0.361   5.512  10.080  0.4299  0.2767  0.4437
  140SAPE   H8R15267   0.348   5.504  10.189 -1.4241 -1.6289  0.1702
  140SAPE   C2915268   0.323   5.411  10.000 -0.0215 -0.6742  0.1290
  140SAPE   H9R15269   0.281   5.320  10.047  1.8295 -0.9315  1.3615
  140SAPE  C21015270   0.352   5.409   9.852  0.3734  0.2447 -0.0267
  140SAPE  H10R15271   0.444   5.465   9.823 -0.4336  2.5931  1.5934
  140SAPE  H10S15272   0.277   5.471   9.798  0.2813 -2.0654 -2.7432
  140SAPE  C21115273   0.333   5.268   9.789  0.5294 -0.4388 -0.0721
  140SAPE  H11R15274   0.270   5.203   9.852 -1.4398  1.1050 -0.3515
  140SAPE  C21215275   0.377   5.239   9.663  0.2800 -0.9502 -0.1491
  140SAPE  H12R15276   0.354   5.142   9.618  0.8633 -0.2443 -2.0765
  140SAPE  C21315277   0.461   5.322   9.569  1.2223 -0.2273 -0.3045
  140SAPE  H13R15278   0.501   5.263   9.484  1.0037 -0.0684 -0.5210
  140SAPE  H13S15279   0.551   5.367   9.616  1.3674  1.3993 -2.0436
  140SAPE  C21415280   0.372   5.441   9.506 -0.1836  0.6497 -0.2784
  140SAPE  H14R15281   0.275   5.454   9.554 -0.2991  1.3689 -0.6971
  140SAPE  C21515282   0.414   5.520   9.407  0.5716 -0.0936  0.0008
  140SAPE  H15R15283   0.348   5.597   9.364 -0.2031 -2.0854 -2.6289
  140SAPE  C21615284   0.549   5.511   9.342 -0.4098  0.2484  0.6963
  140SAPE  H16R15285   0.618   5.457   9.411  1.4682  1.2211 -0.3301
  140SAPE  H16S15286   0.610   5.601   9.317  0.9481 -1.0990 -1.0907
  140SAPE  C21715287   0.548   5.417   9.222  0.1901 -0.8836 -0.2476
  140SAPE  H17R15288   0.489   5.328   9.253  0.2887 -1.4435 -1.5980
  140SAPE  H17S15289   0.651   5.385   9.196 -0.5112 -2.0017 -1.8440
  140SAPE  C21815290   0.472   5.457   9.091 -0.0026  0.1440  0.3709
  140SAPE  H18R15291   0.407   5.545   9.109 -0.0726 -0.3097  2.6513
  140SAPE  H18S15292   0.397   5.383   9.054 -1.1299  0.2141  2.3773
  140SAPE  C21915293   0.573   5.474   8.968 -0.2754 -0.5336 -0.5745
  140SAPE  H19R15294   0.621   5.376   8.948 -0.6610 -0.8449  0.0008
  140SAPE  H19S15295   0.658   5.537   9.002 -0.9675  0.0167  0.2039
  140SAPE  C22015296   0.521   5.541   8.839 -0.4155  0.2375 -0.5100
  140SAPE  H20R15297   0.607   5.542   8.769 -0.4337 -0.7341 -0.5589
  140SAPE  H20S15298   0.478   5.642   8.856 -0.6009  0.4461 -2.0565
  140SAPE  H20T15299   0.435   5.487   8.794  0.0232 -0.4364 -0.5595
  140SAPE   C3315300   0.880   6.192  10.375  0.5060 -0.6080  0.3209
  140SAPE   H3X15301   0.990   6.180  10.360  0.9256  2.0599  0.6813
  140SAPE   H3Y15302   0.866   6.276  10.446  0.0483  0.0133 -0.4929
  140SAPE   C3415303   0.847   6.236  10.228 -0.0672  0.5732 -0.2006
  140SAPE   H4X15304   0.856   6.346  10.218  2.0820  0.5662  1.0571
  140SAPE   H4Y15305   0.739   6.222  10.207 -0.3042  1.5435  0.3310
  140SAPE   C3515306   0.937   6.155  10.127  0.8274 -0.5104 -0.0798
  140SAPE   H5X15307   0.952   6.051  10.163  0.6841  0.2261  2.2580
  140SAPE   H5Y15308   1.040   6.196  10.139  0.4431  0.7408 -0.8455
  140SAPE   C3615309   0.890   6.177   9.985 -0.8453  0.0382 -0.0569
  140SAPE   H6X15310   0.854   6.282   9.982 -0.9470  0.0045 -0.0232
  140SAPE   H6Y15311   0.809   6.103   9.965  0.5636 -0.8928 -2.6997
  140SAPE   C3715312   0.995   6.145   9.878 -0.3183 -0.5199  0.3839
  140SAPE   H7X15313   1.057   6.059   9.911  2.2168  0.6059 -1.0979
  140SAPE   H7Y15314   1.069   6.228   9.879 -0.4159 -0.3591 -1.9042
  140SAPE   C3815315   0.954   6.140   9.735 -0.1121  0.0751 -0.6224
  140SAPE   H8X15316   0.878   6.217   9.707 -1.4549 -2.2317 -3.9833
  140SAPE   H8Y15317   0.901   6.047   9.704 -2.1395  0.8412  0.3301
  140SAPE   C3915318   1.075   6.143   9.640  0.8307  0.6850  0.1150
  140SAPE   H9X15319   1.143   6.062   9.673  0.3050  0.4997  0.7719
  140SAPE   H9Y15320   1.105   6.250   9.644 -0.6407  1.0965  1.2538
  140SAPE  C31015321   1.042   6.128   9.490  0.6572  0.1577 -0.2197
  140SAPE  H10X15322   0.954   6.187   9.456  0.4533 -0.9665 -1.7437
  140SAPE  H10Y15323   1.008   6.023   9.486  0.2947  0.2344  0.5740
  140SAPE  C31115324   1.154   6.149   9.401 -0.4907 -0.0689  0.1404
  140SAPE  H11X15325   1.250   6.117   9.447  0.3412  1.1295 -0.7060
  140SAPE  H11Y15326   1.161   6.260   9.402  0.1853 -0.1073  1.3325
  140SAPE  C31215327   1.117   6.085   9.260  0.4169 -0.1614 -0.3413
  140SAPE  H12X15328   1.016   6.038   9.264  0.9472 -1.2616  2.6136
  140SAPE  H12Y15329   1.187   6.005   9.227 -1.8333 -1.9470 -1.0733
  140SAPE  C31315330   1.122   6.194   9.148 -0.4112 -0.6228 -0.4933
  140SAPE  H13X15331   1.222   6.237   9.131 -0.6649  0.7524  1.2198
  140SAPE  H13Y15332   1.055   6.281   9.167 -0.1196 -0.6265  0.6118
  140SAPE  C31415333   1.078   6.142   9.010  0.3823  1.0462  0.4488
  140SAPE  H14X15334   0.972   6.118   9.034  1.2194 -1.8243  1.6382
  140SAPE  H14Y15335   1.119   6.042   8.986  0.2120  1.4455 -1.7045
  140SAPE  C31515336   1.081   6.243   8.894  0.5491 -0.2136  0.2155
  140SAPE  H15X15337   1.045   6.337   8.942  1.4372 -0.2998  1.0775
  140SAPE  H15Y15338   1.019   6.211   8.807  1.0817 -2.3132  0.5553
  140SAPE  C31615339   1.224   6.256   8.840  0.3858 -0.2315  0.4724
  140SAPE  H16X15340   1.247   6.165   8.781 -0.1169  0.2400 -0.4823
  140SAPE  H16Y15341   1.305   6.250   8.916  1.2999  1.2842 -0.3300
  140SAPE  C31715342   1.247   6.381   8.751 -0.0113 -0.3046 -0.4003
  140SAPE  H17X15343   1.207   6.471   8.802  0.1560 -0.9411  0.8830
  140SAPE  H17Y15344   1.182   6.373   8.661  0.1279 -2.4132 -0.3718
  140SAPE  C31815345   1.395   6.401   8.727 -0.4827  0.6290 -0.6722
  140SAPE  H18X15346   1.452   6.392   8.822 -2.1313 -0.1419  0.2736
  140SAPE  H18Y15347   1.423   6.506   8.703  2.9104 -0.3134 -1.3885
  140SAPE  H18Z15348   1.434   6.330   8.650 -1.0673  0.3913 -0.7501
  141SAPE     N15349   1.864   4.959  11.023  0.2110  0.2601 -0.0208
  141SAPE   HN115350   1.789   4.965  11.096  0.2729  0.4259  0.0276
  141SAPE   HN215351   1.831   4.920  10.932 -1.1837  0.5011  0.3578
  141SAPE   HN315352   1.941   4.902  11.062  0.8516  0.8654 -0.3846
  141SAPE   C1215353   1.916   5.091  11.013 -0.4016 -0.5474 -0.2548
  141SAPE  H12A15354   1.934   5.137  11.113 -0.7921 -2.4835  0.7651
  141SAPE  H12B15355   1.838   5.154  10.964  1.3907  1.4964 -0.6672
  141SAPE   C1115356   2.042   5.096  10.926 -0.1573  0.2099 -0.3973
  141SAPE  H11A15357   2.008   5.082  10.822 -0.8531 -1.1785 -0.0090
  141SAPE  H11B15358   2.111   5.011  10.945  1.6789  0.9080 -3.2776
  141SAPE     P15359   2.112   5.345  10.880 -0.0340 -0.5651  0.0635
  141SAPE   O1315360   2.003   5.420  10.947  0.4566 -0.3345 -0.1534
  141SAPE   O1415361   2.248   5.415  10.871 -0.0182  1.0017  0.1269
  141SAPE   O1215362   2.120   5.211  10.958 -0.3522  0.3662 -0.0968
  141SAPE   O1115363   2.063   5.304  10.726 -0.1592  0.3704 -0.5146
  141SAPE    C115364   2.158   5.233  10.645  0.2742 -0.6892  0.0800
  141SAPE    HA15365   2.255   5.284  10.626 -0.6098  0.1540 -2.6133
  141SAPE    HB15366   2.176   5.132  10.689 -1.5435 -1.9435 -1.8132
  141SAPE    C215367   2.092   5.196  10.507  0.9159 -0.5740 -0.1458
  141SAPE    HS15368   2.145   5.106  10.470 -1.5109 -1.6366 -1.2515
  141SAPE   O2115369   2.108   5.310  10.419 -0.4008  0.4407  0.1112
  141SAPE   C2115370   2.174   5.289  10.306 -0.2530 -0.3110  0.1738
  141SAPE   O2215371   2.213   5.181  10.261 -0.2745  0.3110  0.0883
  141SAPE   C2215372   2.199   5.420  10.236  0.5033  0.7080 -0.3498
  141SAPE   H2R15373   2.095   5.443  10.205  0.1027 -1.5617 -0.9579
  141SAPE   H2S15374   2.247   5.499  10.297  3.2387 -1.8044  0.9929
  141SAPE    C315375   1.940   5.164  10.525 -0.3081  0.0766 -0.5965
  141SAPE    HX15376   1.897   5.256  10.571 -0.5951 -0.9701  1.3592
  141SAPE    HY15377   1.921   5.087  10.603 -0.5386  2.7995  2.2799
  141SAPE   O3115378   1.877   5.130  10.399 -0.0289  0.7427  0.2320
  141SAPE   C3115379   1.826   5.004  10.384 -0.1227 -0.4872 -0.3709
  141SAPE   O3215380   1.815   4.921  10.469  0.0117 -0.2880 -0.2375
  141SAPE   C3215381   1.760   4.995  10.242 -0.8670  0.1731 -0.3922
  141SAPE   H2X15382   1.701   4.901  10.235  0.2999 -0.4907 -1.8357
  141SAPE   H2Y15383   1.847   5.004  10.174 -0.4163  2.2412  0.3905
  141SAPE   C2315384   2.287   5.413  10.112  0.4876  0.3796 -0.2425
  141SAPE   H3R15385   2.295   5.310  10.072  1.6816  0.5210 -0.3884
  141SAPE   H3S15386   2.388   5.441  10.148  0.9986  0.8938 -1.9764
  141SAPE   C2415387   2.244   5.517  10.004 -0.2232 -0.2937 -0.3617
  141SAPE   H4R15388   2.136   5.503   9.981 -0.1127 -0.2272 -0.9186
  141SAPE   H4S15389   2.306   5.503   9.913  0.4737  0.9943 -0.1074
  141SAPE   C2515390   2.262   5.660  10.049 -0.6921 -0.1605 -0.0477
  141SAPE   H5R15391   2.189   5.695  10.124 -1.1896 -0.1053 -0.5497
  141SAPE   C2615392   2.346   5.755  10.000  0.1261 -0.2492 -0.5120
  141SAPE   H6R15393   2.352   5.848  10.058 -2.4486 -0.1979 -0.1921
  141SAPE   C2715394   2.446   5.724   9.891 -0.6319  0.1603 -0.2730
  141SAPE   H7R15395   2.410   5.651   9.816  1.4307 -0.3832 -0.7929
  141SAPE   H7S15396   2.540   5.676   9.926 -1.3153 -1.9308 -1.1641
  141SAPE   C2815397   2.494   5.848   9.825  0.3857 -0.2448 -0.2946
  141SAPE   H8R15398   2.519   5.932   9.893 -0.3414 -0.2425 -0.0259
  141SAPE   C2915399   2.501   5.865   9.690 -0.1799  0.1620 -0.3479
  141SAPE   H9R15400   2.533   5.968   9.666  1.0408 -0.2418 -0.5119
  141SAPE  C21015401   2.478   5.772   9.577  0.0622  0.2647 -0.1667
  141SAPE  H10R15402   2.431   5.823   9.491 -0.4793 -0.2551 -0.1818
  141SAPE  H10S15403   2.426   5.677   9.603  0.3627  0.2495  0.3953
  141SAPE  C21115404   2.612   5.717   9.539  0.1446 -0.1226  0.3491
  141SAPE  H11R15405   2.687   5.711   9.619  2.2258  0.3152 -1.4952
  141SAPE  C21215406   2.650   5.672   9.418  0.1016  0.3038 -0.3387
  141SAPE  H12R15407   2.754   5.637   9.412 -0.2826 -1.1175  0.6240
  141SAPE  C21315408   2.572   5.649   9.290  0.1152 -0.0200  0.0697
  141SAPE  H13R15409   2.473   5.699   9.303  0.8337  2.5821 -3.0767
  141SAPE  H13S15410   2.568   5.540   9.268  0.7325  0.7034 -4.9659
  141SAPE  C21415411   2.626   5.720   9.172 -0.3036 -0.5061  0.0001
  141SAPE  H14R15412   2.719   5.775   9.192 -0.1684 -1.3915  1.9172
  141SAPE  C21515413   2.570   5.729   9.049  1.1319 -0.2586  0.0851
  141SAPE  H15R15414   2.622   5.788   8.973 -1.5785  2.4280  0.0970
  141SAPE  C21615415   2.442   5.669   9.004 -0.3530  0.6477  0.0430
  141SAPE  H16R15416   2.389   5.614   9.084 -1.1178  1.3166  0.0072
  141SAPE  H16S15417   2.460   5.600   8.918 -1.2840  0.0623  0.3111
  141SAPE  C21715418   2.349   5.781   8.960  1.0499 -0.8368 -0.1233
  141SAPE  H17R15419   2.302   5.829   9.049  0.9048 -1.7621  0.3153
  141SAPE  H17S15420   2.260   5.739   8.910 -0.6555  2.9702 -0.6431
  141SAPE  C21815421   2.400   5.883   8.852  0.2642 -0.2925 -0.1383
  141SAPE  H18R15422   2.449   5.834   8.766 -0.6163 -1.2375 -0.1223
  141SAPE  H18S15423   2.479   5.948   8.895  0.6384 -0.9609  0.1957
  141SAPE  C21915424   2.292   5.977   8.804  0.4160 -0.4675  0.0856
  141SAPE  H19R15425   2.269   6.054   8.881  2.4789  0.9210 -0.6018
  141SAPE  H19S15426   2.198   5.921   8.791 -0.6388  0.7188  2.0579
  141SAPE  C22015427   2.344   6.056   8.682 -0.0169 -0.7632  0.2475
  141SAPE  H20R15428   2.265   6.108   8.624 -0.1278  0.1460  1.1673
  141SAPE  H20S15429   2.411   5.993   8.620 -1.9259 -1.0599 -1.6261
  141SAPE  H20T15430   2.416   6.131   8.721 -1.4901 -0.0207  1.7002
  141SAPE   C3315431   1.682   5.123  10.199  0.7273  0.9651  0.1441
  141SAPE   H3X15432   1.653   5.094  10.096 -0.6918 -0.4340  0.8841
  141SAPE   H3Y15433   1.735   5.220  10.190  1.7844  0.4223  0.3632
  141SAPE   C3415434   1.558   5.135  10.289 -0.3196  0.4413 -0.1319
  141SAPE   H4X15435   1.589   5.147  10.395  1.0277  0.5555 -0.5217
  141SAPE   H4Y15436   1.496   5.043  10.278 -1.1965  1.0460 -0.2801
  141SAPE   C3515437   1.468   5.250  10.254 -1.0619 -0.5755  0.1465
  141SAPE   H5X15438   1.515   5.348  10.279 -0.7991 -0.8988  0.9438
  141SAPE   H5Y15439   1.368   5.242  10.303 -0.7158 -1.5321  0.7119
  141SAPE   C3615440   1.445   5.273  10.103 -0.4837 -0.2674  0.6724
  141SAPE   H6X15441   1.443   5.173  10.055 -1.7180 -1.2344  2.6034
  141SAPE   H6Y15442   1.531   5.332  10.065 -0.3820 -1.7444 -1.6080
  141SAPE   C3715443   1.315   5.352  10.076  0.8249  0.2775  0.3096
  141SAPE   H7X15444   1.313   5.448  10.131  1.2527 -1.0213  2.6973
  141SAPE   H7Y15445   1.234   5.295  10.126  1.2900 -0.1369  0.5945
  141SAPE   C3815446   1.269   5.378   9.928 -0.5831 -0.1987  0.0065
  141SAPE   H8X15447   1.162   5.404   9.937 -0.9221 -0.9279 -1.5371
  141SAPE   H8Y15448   1.262   5.288   9.863 -0.4904 -0.7281  0.7239
  141SAPE   C3915449   1.352   5.492   9.860  0.8897  0.8191 -0.4062
  141SAPE   H9X15450   1.306   5.507   9.760  1.3390 -1.1910 -0.9683
  141SAPE   H9Y15451   1.460   5.466   9.852  1.3310  2.3944  0.1530
  141SAPE  C31015452   1.324   5.626   9.927  0.4654 -0.8523  0.3435
  141SAPE  H10X15453   1.367   5.635  10.029  2.3977  0.1266 -0.5011
  141SAPE  H10Y15454   1.217   5.653   9.938  0.8696  1.0104  0.1724
  141SAPE  C31115455   1.386   5.741   9.844 -0.3996 -0.1127  0.2007
  141SAPE  H11X15456   1.330   5.757   9.750 -0.5399 -2.3064 -0.1425
  141SAPE  H11Y15457   1.492   5.714   9.824 -0.1359 -0.5624  1.9911
  141SAPE  C31215458   1.376   5.880   9.913 -0.2507  1.1673 -0.1272
  141SAPE  H12X15459   1.429   5.877  10.010  0.7514  0.9856 -0.6573
  141SAPE  H12Y15460   1.267   5.894   9.929 -0.4193 -0.2611  0.1044
  141SAPE  C31315461   1.418   6.002   9.825 -0.4141 -0.0121 -0.1053
  141SAPE  H13X15462   1.389   6.097   9.874  0.7353 -0.1558  0.8994
  141SAPE  H13Y15463   1.379   5.995   9.722  3.0483  0.4485 -1.5710
  141SAPE  C31415464   1.568   6.032   9.813 -0.4018 -0.1184  0.0269
  141SAPE  H14X15465   1.614   5.952   9.750 -0.4421 -1.3881  1.5216
  141SAPE  H14Y15466   1.625   6.026   9.909  1.0748 -1.8217 -0.8888
  141SAPE  C31515467   1.608   6.165   9.755 -0.3401  0.5579 -0.1379
  141SAPE  H15X15468   1.697   6.200   9.811  0.3042  0.7598 -1.2444
  141SAPE  H15Y15469   1.529   6.240   9.775  0.3744  1.1202  0.6276
  141SAPE  C31615470   1.647   6.158   9.612  0.3354  0.1956 -0.2255
  141SAPE  H16X15471   1.704   6.065   9.593  0.3427 -0.2902  1.9992
  141SAPE  H16Y15472   1.715   6.240   9.579  0.3223  0.3939  0.2390
  141SAPE  C31715473   1.526   6.146   9.518 -0.5219  0.0741 -0.8155
  141SAPE  H17X15474   1.466   6.239   9.533 -2.2614 -1.2226  0.7187
  141SAPE  H17Y15475   1.452   6.072   9.556 -3.1125  2.4795 -0.8010
  141SAPE  C31815476   1.567   6.139   9.374  0.2264 -0.4568 -0.3893
  141SAPE  H18X15477   1.491   6.177   9.302  1.7326  0.1070 -1.7605
  141SAPE  H18Y15478   1.582   6.033   9.345  1.5007 -0.8572  1.5920
  141SAPE  H18Z15479   1.663   6.195   9.365 -0.0646  0.0514 -0.3792
  142SAPE     N15480   1.804   0.468  11.066  0.0829  0.1239 -0.5762
  142SAPE   HN115481   1.895   0.417  11.059 -0.2693 -0.3834 -1.7624
  142SAPE   HN215482   1.808   0.571  11.060 -0.1361  0.1449 -0.3354
  142SAPE   HN315483   1.775   0.427  11.157  0.3680  0.9111 -0.1183
  142SAPE   C1215484   1.702   0.409  10.972  0.1670  0.0771 -0.1460
  142SAPE  H12A15485   1.730   0.435  10.868 -0.2282 -1.5351 -0.6839
  142SAPE  H12B15486   1.607   0.461  10.997  0.5489  0.1365  1.2945
  142SAPE   C1115487   1.683   0.254  10.989  0.4243  0.2569  0.0303
  142SAPE  H11A15488   1.608   0.207  10.921  0.1593 -0.7581  1.0065
  142SAPE  H11B15489   1.644   0.239  11.092  1.3949  1.1794  0.5465
  142SAPE     P15490   1.810   0.029  10.978 -0.0102 -0.2251 -0.0422
  142SAPE   O1315491   1.805  -0.016  11.123  0.2377  0.0955  0.4674
  142SAPE   O1415492   1.712  -0.035  10.884  0.0432  0.0423 -0.2072
  142SAPE   O1215493   1.808   0.190  10.961  0.0311  0.0659 -0.1655
  142SAPE   O1115494   1.960   0.005  10.928 -0.5520 -0.2326 -0.1071
  142SAPE    C115495   2.043   0.091  10.845  0.1692  0.1362  0.2142
  142SAPE    HA15496   2.036   0.196  10.883  1.6883  0.5354 -0.5241
  142SAPE    HB15497   2.148   0.056  10.849  0.2453  0.4642  2.2294
  142SAPE    C215498   2.000   0.100  10.695 -0.4091 -0.2017  0.3817
  142SAPE    HS15499   1.899   0.146  10.693  0.9290  2.9679 -1.5141
  142SAPE   O2115500   1.991  -0.035  10.646 -0.1211  0.2498  0.5571
  142SAPE   C2115501   1.900  -0.058  10.554 -0.1941 -0.3226 -0.6733
  142SAPE   O2215502   1.805   0.025  10.538 -0.4235  0.5201 -0.0713
  142SAPE   C2215503   1.928  -0.187  10.471  0.3375 -0.4543  0.6757
  142SAPE   H2R15504   1.972  -0.268  10.532  0.1588 -2.6929 -1.9730
  142SAPE   H2S15505   1.825  -0.223  10.450  0.7855 -1.9500  0.9866
  142SAPE    C315506   2.095   0.188  10.604  0.5995 -0.6554 -0.7423
  142SAPE    HX15507   2.183   0.126  10.577  1.1506  0.6290 -2.0686
  142SAPE    HY15508   2.128   0.274  10.666 -0.4748 -0.7048 -0.0817
  142SAPE   O3115509   2.034   0.220  10.476 -0.0957 -0.4441 -0.3163
  142SAPE   C3115510   1.950   0.320  10.474 -0.4340  0.0844 -0.1005
  142SAPE   O3215511   1.924   0.391  10.569  0.2654 -0.1428  0.2297
  142SAPE   C3215512   1.888   0.335  10.330  0.6496  0.3691  0.1922
  142SAPE   H2X15513   1.815   0.252  10.328  1.7916 -0.6523 -1.1104
  142SAPE   H2Y15514   1.955   0.321  10.243  0.9915 -0.0870  0.5211
  142SAPE   C2315515   2.009  -0.152  10.343 -0.6046  0.1580  0.9164
  142SAPE   H3R15516   2.102  -0.104  10.380 -0.9561  1.5022  0.1235
  142SAPE   H3S15517   1.960  -0.072  10.283  0.0733 -2.1869 -3.1505
  142SAPE   C2415518   2.032  -0.270  10.252 -0.1132  0.0225  0.2134
  142SAPE   H4R15519   2.105  -0.333  10.308 -0.6859  0.1533  1.1281
  142SAPE   H4S15520   2.094  -0.231  10.168  2.2143  3.1834  3.1199
  142SAPE   C2515521   1.914  -0.344  10.209 -0.6239 -0.5379  0.1039
  142SAPE   H5R15522   1.853  -0.392  10.287 -0.6390 -0.2483  0.2719
  142SAPE   C2615523   1.873  -0.354  10.079 -0.2284 -0.0763 -0.2921
  142SAPE   H6R15524   1.775  -0.401  10.065  0.3370 -1.4378  0.1517
  142SAPE   C2715525   1.942  -0.299   9.956  0.1431  0.6465  0.1118
  142SAPE   H7R15526   1.993  -0.203   9.979  0.7234  0.0552  1.3430
  142SAPE   H7S15527   1.879  -0.276   9.867 -1.0894 -1.5370  0.3590
  142SAPE   C2815528   2.038  -0.403   9.911 -0.0684  0.1906  0.3833
  142SAPE   H8R15529   2.116  -0.436   9.981  1.1296  0.5786 -0.7231
  142SAPE   C2915530   2.042  -0.458   9.790  0.3109 -0.4335  0.2624
  142SAPE   H9R15531   2.104  -0.545   9.764  0.2010 -0.0830 -1.2384
  142SAPE  C21015532   1.953  -0.427   9.667  0.4681  0.5281  0.3520
  142SAPE  H10R15533   1.848  -0.448   9.696  0.5462  1.1325  1.1158
  142SAPE  H10S15534   1.976  -0.493   9.581  2.0091 -0.0465  1.1651
  142SAPE  C21115535   1.984  -0.288   9.625 -0.1860  0.7445 -0.6736
  142SAPE  H11R15536   2.026  -0.226   9.705  0.5429 -2.6075  1.6978
  142SAPE  C21215537   1.972  -0.236   9.501 -0.7449 -0.2369  0.4001
  142SAPE  H12R15538   1.982  -0.127   9.496 -0.6120 -0.2351  0.6677
  142SAPE  C21315539   1.933  -0.293   9.368  0.0578  0.1186  0.0087
  142SAPE  H13R15540   1.898  -0.210   9.303 -0.3844  0.4148  0.6131
  142SAPE  H13S15541   1.841  -0.350   9.392 -0.9700  2.0145  0.8059
  142SAPE  C21415542   2.033  -0.372   9.290 -0.2291  0.4134  0.6738
  142SAPE  H14R15543   2.117  -0.416   9.344 -0.0294 -0.7727 -0.5364
  142SAPE  C21515544   2.046  -0.373   9.152 -0.1109 -0.0430 -0.1378
  142SAPE  H15R15545   2.134  -0.413   9.100  0.2505  0.8481 -0.2392
  142SAPE  C21615546   1.944  -0.306   9.063  0.6523  0.3983 -0.2564
  142SAPE  H16R15547   1.993  -0.234   8.993  1.4892 -1.5948 -1.8446
  142SAPE  H16S15548   1.859  -0.264   9.121  1.2937 -0.3305  1.2702
  142SAPE  C21715549   1.883  -0.408   8.958  0.4386 -0.8398  0.1036
  142SAPE  H17R15550   1.961  -0.450   8.891 -0.9089  1.1567 -2.9423
  142SAPE  H17S15551   1.808  -0.352   8.899 -1.6816 -1.4674  2.0749
  142SAPE  C21815552   1.801  -0.524   9.025  0.8722  0.2596  0.0910
  142SAPE  H18R15553   1.715  -0.481   9.080  1.7452 -1.5868  3.1207
  142SAPE  H18S15554   1.862  -0.582   9.098 -1.6806  0.9536  3.0040
  142SAPE  C21915555   1.747  -0.632   8.928 -0.9484 -0.2068  0.8601
  142SAPE  H19R15556   1.835  -0.680   8.881 -0.6094  1.2015 -0.0038
  142SAPE  H19S15557   1.685  -0.591   8.846  2.4921  0.0273 -1.8317
  142SAPE  C22015558   1.674  -0.746   9.008 -0.4409 -0.1308  0.5095
  142SAPE  H20R15559   1.565  -0.731   8.993 -0.8187 -1.9156  1.2056
  142SAPE  H20S15560   1.701  -0.754   9.115  0.2317  0.8561  0.4271
  142SAPE  H20T15561   1.704  -0.842   8.961 -2.5547 -0.2228 -0.7388
  142SAPE   C3315562   1.809   0.466  10.300  0.7104 -0.3995 -0.0889
  142SAPE   H3X15563   1.875   0.553  10.315  1.8861 -1.2288 -0.3427
  142SAPE   H3Y15564   1.716   0.479  10.361 -1.0490  1.9611 -2.9919
  142SAPE   C3415565   1.758   0.472  10.153 -0.4540  0.5324  0.0618
  142SAPE   H4X15566   1.655   0.514  10.148 -1.6270 -2.2914 -1.0686
  142SAPE   H4Y15567   1.768   0.368  10.117 -0.3770  0.0657  1.3690
  142SAPE   C3515568   1.840   0.580  10.074 -0.2495 -0.4290  0.3482
  142SAPE   H5X15569   1.944   0.541  10.081 -0.6446 -1.7601 -0.7120
  142SAPE   H5Y15570   1.818   0.669  10.137  0.6868 -0.8225  1.2718
  142SAPE   C3615571   1.803   0.598   9.929  1.3252  0.9030 -0.4957
  142SAPE   H6X15572   1.697   0.625   9.911  1.2960  0.6860 -0.6433
  142SAPE   H6Y15573   1.832   0.512   9.866  1.8967  0.8118 -0.1188
  142SAPE   C3715574   1.868   0.721   9.865  0.1343 -0.2466  0.3362
  142SAPE   H7X15575   1.978   0.709   9.873  0.2399  1.1427  1.1832
  142SAPE   H7Y15576   1.855   0.809   9.932  1.8839  0.5895 -0.3841
  142SAPE   C3815577   1.833   0.757   9.718 -0.4543 -0.2348 -0.0917
  142SAPE   H8X15578   1.894   0.850   9.714  0.8940 -0.9932  1.5346
  142SAPE   H8Y15579   1.725   0.782   9.712 -1.0368 -2.6667 -0.7663
  142SAPE   C3915580   1.868   0.641   9.614  0.1616  0.5229 -0.3477
  142SAPE   H9X15581   1.783   0.570   9.619 -1.2913  2.1587 -0.6250
  142SAPE   H9Y15582   1.957   0.594   9.660 -0.8857  0.3626  1.6658
  142SAPE  C31015583   1.886   0.687   9.464 -0.9066  0.4080 -0.6637
  142SAPE  H10X15584   1.980   0.745   9.452 -1.8130  1.7766 -1.4417
  142SAPE  H10Y15585   1.807   0.761   9.436 -0.0315  2.8268  2.6209
  142SAPE  C31115586   1.884   0.567   9.368  0.3907 -0.1515 -0.6644
  142SAPE  H11X15587   1.795   0.505   9.392 -0.4310  1.1466 -0.2326
  142SAPE  H11Y15588   1.980   0.518   9.394  0.4050  0.8412  1.3206
  142SAPE  C31215589   1.881   0.606   9.215  0.1540 -0.0060  0.1323
  142SAPE  H12X15590   1.795   0.674   9.197 -0.7465 -0.5503  2.0735
  142SAPE  H12Y15591   1.877   0.515   9.152  1.0620  0.5146 -0.7061
  142SAPE  C31315592   2.013   0.683   9.181  0.7187 -0.1409  0.2073
  142SAPE  H13X15593   2.105   0.632   9.216  0.7477 -0.9808 -1.0244
  142SAPE  H13Y15594   2.002   0.778   9.237  0.4037  0.5421 -0.9934
  142SAPE  C31415595   2.014   0.718   9.030  0.6144  0.2043 -0.0192
  142SAPE  H14X15596   1.928   0.784   9.001 -0.0643 -0.9597 -0.7515
  142SAPE  H14Y15597   1.990   0.628   8.970  1.2310 -0.9004  1.3555
  142SAPE  C31515598   2.149   0.768   8.976  0.1182 -0.1947  0.3701
  142SAPE  H15X15599   2.162   0.742   8.869  0.8566  2.0016 -0.1397
  142SAPE  H15Y15600   2.233   0.719   9.030  1.3120  0.2416 -1.0211
  142SAPE  C31615601   2.168   0.920   9.014 -0.2217  0.2895  0.3952
  142SAPE  H16X15602   2.276   0.946   9.011  0.2933 -1.3238  2.2395
  142SAPE  H16Y15603   2.141   0.938   9.120 -2.2600  0.5422 -0.1387
  142SAPE  C31715604   2.097   1.018   8.912  0.1800  0.3340  0.3355
  142SAPE  H17X15605   1.991   0.985   8.903  0.5134 -1.6477  2.6693
  142SAPE  H17Y15606   2.133   1.005   8.808 -0.0358  0.6121  0.2275
  142SAPE  C31815607   2.096   1.164   8.953 -0.0380 -0.3091 -0.5692
  142SAPE  H18X15608   2.195   1.212   8.939 -0.3829  0.7497  0.4940
  142SAPE  H18Y15609   2.078   1.171   9.062  0.0915 -3.0845 -0.2906
  142SAPE  H18Z15610   2.025   1.221   8.889 -0.6700  0.4645  0.7802
  143SAPE     N15611   2.912   5.581  10.701 -0.0386  0.0106  0.4438
  143SAPE   HN115612   2.959   5.528  10.624  0.2947 -0.6836  1.1204
  143SAPE   HN215613   2.816   5.605  10.667  0.9235 -1.4979 -4.1661
  143SAPE   HN315614   2.962   5.671  10.715  0.6923 -0.2353 -0.5022
  143SAPE   C1215615   2.918   5.501  10.830 -0.0578  1.4986 -0.3428
  143SAPE  H12A15616   3.028   5.485  10.838  0.2007  2.2757 -1.8970
  143SAPE  H12B15617   2.874   5.399  10.822  0.7521  1.1994 -1.3653
  143SAPE   C1115618   2.851   5.570  10.951 -0.3644 -0.7759  0.3789
  143SAPE  H11A15619   2.838   5.492  11.029  0.3311 -0.7346  0.5430
  143SAPE  H11B15620   2.752   5.615  10.930  0.2383  0.0648 -0.8098
  143SAPE     P15621   2.937   5.813  10.955 -0.1451 -0.1936  0.2488
  143SAPE   O1315622   2.801   5.871  10.941 -0.4396  0.2688  0.3475
  143SAPE   O1415623   3.035   5.876  11.041 -0.0516  0.2434 -0.0116
  143SAPE   O1215624   2.928   5.667  11.010 -0.5105 -0.4702 -0.5179
  143SAPE   O1115625   2.996   5.796  10.812 -0.7628 -0.1442  0.3727
  143SAPE    C115626   3.139   5.805  10.796  0.1829  0.3379  0.6747
  143SAPE    HA15627   3.202   5.798  10.887  1.0209  1.8852  0.2532
  143SAPE    HB15628   3.171   5.719  10.734 -0.8222  0.8552 -0.6038
  143SAPE    C215629   3.187   5.920  10.715 -0.4791  0.0307 -0.5871
  143SAPE    HS15630   3.171   6.011  10.776  0.7447 -0.0340 -0.1376
  143SAPE   O2115631   3.114   5.916  10.590  0.1181  0.4449 -0.4359
  143SAPE   C2115632   3.014   5.994  10.570 -0.2775 -0.1853 -1.1435
  143SAPE   O2215633   2.969   6.076  10.656  0.1529  0.7932  0.9132
  143SAPE   C2215634   2.961   5.960  10.430 -0.5168  0.1022 -0.0986
  143SAPE   H2R15635   3.041   5.903  10.377 -2.7336 -0.1201 -3.5133
  143SAPE   H2S15636   2.873   5.895  10.446 -2.5212  2.5448 -0.5818
  143SAPE    C315637   3.340   5.905  10.676 -0.0982  0.1373  0.0507
  143SAPE    HX15638   3.340   5.807  10.624  0.2525  0.1935 -0.0598
  143SAPE    HY15639   3.395   5.899  10.773 -0.1971 -0.6059  0.0677
  143SAPE   O3115640   3.394   6.011  10.597 -0.1326 -0.0214 -0.5123
  143SAPE   C3115641   3.376   6.019  10.466 -0.6819  0.7898  0.1237
  143SAPE   O3215642   3.329   5.926  10.399 -0.7268  0.2712 -0.3587
  143SAPE   C3215643   3.434   6.154  10.427  0.4781 -0.8862  0.5946
  143SAPE   H2X15644   3.543   6.140  10.441  0.6351 -1.0516 -0.6439
  143SAPE   H2Y15645   3.387   6.217  10.506 -1.3041 -1.3850 -0.0075
  143SAPE   C2315646   2.921   6.081  10.343 -0.8392 -0.5034  0.7172
  143SAPE   H3R15647   3.015   6.134  10.315 -0.8286 -0.4916  0.7728
  143SAPE   H3S15648   2.862   6.151  10.406 -0.5369  0.5676 -0.1658
  143SAPE   C2415649   2.843   6.051  10.213 -0.6442  0.0703  0.3559
  143SAPE   H4R15650   2.904   5.974  10.162 -1.8270 -0.6247 -0.0591
  143SAPE   H4S15651   2.839   6.143  10.152  0.9577 -0.2884 -0.3430
  143SAPE   C2515652   2.704   5.993  10.243 -0.9825 -0.0739 -0.0599
  143SAPE   H5R15653   2.705   5.915  10.321 -2.1540 -0.1621 -0.1103
  143SAPE   C2615654   2.589   6.044  10.203  0.8455 -0.3746 -0.2770
  143SAPE   H6R15655   2.494   6.003  10.240 -0.2300  1.2101 -1.1738
  143SAPE   C2715656   2.572   6.165  10.112  0.1477 -0.0056  0.5025
  143SAPE   H7R15657   2.648   6.168  10.031 -0.9268  4.1900 -0.5868
  143SAPE   H7S15658   2.588   6.250  10.181  1.9185 -1.5856  2.1512
  143SAPE   C2815659   2.430   6.185  10.067 -0.0563 -0.3321  0.2786
  143SAPE   H8R15660   2.363   6.170  10.153 -1.4955 -0.2085 -0.7943
  143SAPE   C2915661   2.382   6.210   9.939 -0.1184  0.2099  0.2295
  143SAPE   H9R15662   2.275   6.233   9.923 -0.3552  0.2351  1.7049
  143SAPE  C21015663   2.467   6.222   9.821 -0.5090 -0.6964  0.2613
  143SAPE  H10R15664   2.465   6.120   9.776 -1.5346 -1.0693  1.1346
  143SAPE  H10S15665   2.576   6.240   9.839 -0.0813 -2.0261 -0.8065
  143SAPE  C21115666   2.416   6.328   9.733  0.7328 -0.6033 -0.0258
  143SAPE  H11R15667   2.377   6.417   9.785 -1.2008  0.0203 -2.3532
  143SAPE  C21215668   2.419   6.326   9.599 -0.4951  0.7812 -0.0259
  143SAPE  H12R15669   2.371   6.414   9.553 -0.6160  0.7955  0.1291
  143SAPE  C21315670   2.484   6.218   9.507 -0.0493 -0.2669  0.4723
  143SAPE  H13R15671   2.563   6.156   9.556 -0.9546 -1.8753 -0.0231
  143SAPE  H13S15672   2.548   6.275   9.436 -1.0283  1.1596  0.7050
  143SAPE  C21415673   2.386   6.118   9.445  0.3214 -0.7985 -1.2431
  143SAPE  H14R15674   2.354   6.037   9.512  0.5198 -0.8534 -1.2139
  143SAPE  C21515675   2.331   6.123   9.323  0.6820  0.6310 -0.0558
  143SAPE  H15R15676   2.265   6.038   9.302  0.1608  0.6209  1.5164
  143SAPE  C21615677   2.355   6.224   9.211 -0.0787  0.3501  0.7991
  143SAPE  H16R15678   2.416   6.313   9.240  2.0579 -0.3691 -1.1983
  143SAPE  H16S15679   2.259   6.254   9.163 -0.9002  0.0884  2.2118
  143SAPE  C21715680   2.449   6.168   9.103 -0.0022  0.3828  0.3668
  143SAPE  H17R15681   2.416   6.064   9.084  0.5062 -0.4466  3.5197
  143SAPE  H17S15682   2.549   6.158   9.150  0.5826  2.5376 -0.3113
  143SAPE  C21815683   2.479   6.260   8.981  0.1643  0.3926  0.4117
  143SAPE  H18R15684   2.378   6.280   8.939 -0.3473 -0.3115  1.2717
  143SAPE  H18S15685   2.535   6.201   8.905 -0.9899  0.4210 -0.5008
  143SAPE  C21915686   2.540   6.395   9.011  0.5663  0.5593  0.1272
  143SAPE  H19R15687   2.607   6.397   9.100  1.8022 -0.7331 -0.7257
  143SAPE  H19S15688   2.455   6.465   9.023 -1.1027 -1.1097 -1.2375
  143SAPE  C22015689   2.625   6.448   8.898 -0.7366  0.1498 -0.0112
  143SAPE  H20R15690   2.714   6.383   8.887  0.1545  1.5760 -1.8378
  143SAPE  H20S15691   2.668   6.545   8.932 -0.3616  0.7670 -2.1057
  143SAPE  H20T15692   2.576   6.460   8.799 -1.2536 -1.7905 -0.0170
  143SAPE   C3315693   3.385   6.199  10.291  0.3064  0.9311  0.2225
  143SAPE   H3X15694   3.414   6.305  10.273  0.8457  0.8950  0.8506
  143SAPE   H3Y15695   3.275   6.214  10.289  0.0317 -0.9323  0.2556
  143SAPE   C3415696   3.428   6.100  10.177 -0.1899 -0.2268 -0.7142
  143SAPE   H4X15697   3.370   6.005  10.183 -0.0450 -0.2813 -0.1434
  143SAPE   H4Y15698   3.533   6.067  10.190 -0.5717 -1.3463 -0.4000
  143SAPE   C3515699   3.392   6.156  10.032  0.1265  0.5244 -0.6581
  143SAPE   H5X15700   3.423   6.262  10.027 -0.2953  0.7862  1.3519
  143SAPE   H5Y15701   3.283   6.138  10.028 -0.1613  1.6384  1.2743
  143SAPE   C3615702   3.467   6.072   9.929  0.3326  0.1881 -0.2161
  143SAPE   H6X15703   3.454   5.964   9.953 -0.2221  0.6172  1.6017
  143SAPE   H6Y15704   3.576   6.084   9.943  0.3940 -1.2397  0.7943
  143SAPE   C3715705   3.431   6.099   9.784  0.0107 -0.2974  0.0087
  143SAPE   H7X15706   3.477   6.200   9.777  2.5297 -1.2294  1.7954
  143SAPE   H7Y15707   3.323   6.080   9.766 -0.0632  0.0618  0.0691
  143SAPE   C3815708   3.512   6.013   9.690  0.3853  0.3986 -0.1350
  143SAPE   H8X15709   3.462   5.914   9.692  2.0806 -0.4922 -0.3367
  143SAPE   H8Y15710   3.619   6.001   9.716  0.8283  3.6798  0.0236
  143SAPE   C3915711   3.504   6.076   9.550  0.3875  0.2802 -0.3645
  143SAPE   H9X15712   3.553   6.175   9.561 -1.6354  1.1363  1.9298
  143SAPE   H9Y15713   3.400   6.093   9.513 -0.6979 -1.5645  1.6093
  143SAPE  C31015714   3.570   5.984   9.447 -0.3799 -0.1352 -0.1085
  143SAPE  H10X15715   3.517   5.887   9.439 -1.2599  0.3635 -0.5793
  143SAPE  H10Y15716   3.671   5.951   9.480 -0.3643 -1.8001 -1.6239
  143SAPE  C31115717   3.570   6.045   9.307  0.0784 -0.4628 -0.3682
  143SAPE  H11X15718   3.570   6.155   9.312 -1.4322 -0.4431 -0.4342
  143SAPE  H11Y15719   3.478   6.011   9.254 -0.1718 -1.8600  0.8787
  143SAPE  C31215720   3.689   5.996   9.225 -0.0120 -0.6726  0.3900
  143SAPE  H12X15721   3.695   5.885   9.237 -1.1485 -0.6074  1.8189
  143SAPE  H12Y15722   3.781   6.027   9.278 -0.1556  1.2281 -0.4093
  143SAPE  C31315723   3.686   6.054   9.082  0.0414  0.3057  0.1543
  143SAPE  H13X15724   3.692   6.163   9.100 -2.7592  0.6653 -0.4956
  143SAPE  H13Y15725   3.583   6.037   9.042 -0.0484 -2.7291  1.4262
  143SAPE  C31415726   3.797   5.993   8.990  0.3516  0.6029 -0.3208
  143SAPE  H14X15727   3.768   5.890   8.961 -1.5277  1.1171 -0.4175
  143SAPE  H14Y15728   3.887   5.991   9.055 -0.7541  0.2444  1.2821
  143SAPE  C31515729   3.813   6.071   8.860  0.4620  0.7379 -0.1894
  143SAPE  H15X15730   3.773   6.169   8.893 -2.0268 -1.3511  3.8790
  143SAPE  H15Y15731   3.744   6.022   8.787 -0.5730 -1.3765  2.0601
  143SAPE  C31615732   3.951   6.092   8.811 -0.2905 -0.1812  0.2720
  143SAPE  H16X15733   3.998   6.001   8.768 -1.3568 -0.3310 -0.6241
  143SAPE  H16Y15734   4.027   6.121   8.887  0.6468 -1.0805 -0.2963
  143SAPE  C31715735   3.959   6.214   8.714 -0.3835  0.4877 -0.0541
  143SAPE  H17X15736   4.060   6.213   8.666 -1.6076  2.9405 -3.0329
  143SAPE  H17Y15737   3.941   6.303   8.778  2.9509  2.0060 -0.9730
  143SAPE  C31815738   3.860   6.212   8.599  0.0619 -0.1136 -0.4907
  143SAPE  H18X15739   3.910   6.251   8.509  1.4303 -0.8254 -0.0733
  143SAPE  H18Y15740   3.770   6.274   8.617 -1.0788 -1.2937 -1.8556
  143SAPE  H18Z15741   3.820   6.109   8.581  0.9276 -0.4770 -0.3955
  144SAPE     N15742   4.697   4.993  10.794 -0.5600  0.1482 -0.2249
  144SAPE   HN115743   4.667   4.925  10.866 -0.8105  2.1776  1.6863
  144SAPE   HN215744   4.801   4.987  10.788 -0.4218  0.1133  1.6494
  144SAPE   HN315745   4.686   5.091  10.828 -0.3378  0.3583 -0.7292
  144SAPE   C1215746   4.625   4.968  10.662 -0.5713 -0.2665 -0.4013
  144SAPE  H12A15747   4.658   5.042  10.586  0.2852  0.2801  0.4788
  144SAPE  H12B15748   4.517   4.988  10.679 -0.8860 -1.1181 -1.2885
  144SAPE   C1115749   4.655   4.823  10.618  0.3419 -0.2858  0.6580
  144SAPE  H11A15750   4.764   4.822  10.597 -0.2260  0.0264 -2.8658
  144SAPE  H11B15751   4.599   4.809  10.523 -0.2929  0.7159  0.8672
  144SAPE     P15752   4.465   4.686  10.727 -0.0555 -0.2833  0.2378
  144SAPE   O1315753   4.466   4.560  10.804  0.4839 -0.0081 -0.2332
  144SAPE   O1415754   4.385   4.804  10.767 -0.2589 -0.4222 -0.4605
  144SAPE   O1215755   4.607   4.728  10.709 -0.4365 -0.3002  0.2666
  144SAPE   O1115756   4.416   4.657  10.577 -0.0693 -0.5845  0.2354
  144SAPE    C115757   4.477   4.551  10.496  0.2692  0.0103 -0.7818
  144SAPE    HA15758   4.574   4.515  10.537 -0.4619 -0.3162  0.7328
  144SAPE    HB15759   4.411   4.464  10.516  0.0986  0.0075 -1.3440
  144SAPE    C215760   4.496   4.587  10.353 -0.5514  0.6082  0.8454
  144SAPE    HS15761   4.585   4.654  10.350  0.7948 -1.1619 -1.9820
  144SAPE   O2115762   4.373   4.641  10.306  0.2200  0.1869  0.1589
  144SAPE   C2115763   4.391   4.734  10.210 -0.0580  0.2022 -0.1561
  144SAPE   O2215764   4.502   4.774  10.179 -0.3453 -0.1454  0.1772
  144SAPE   C2215765   4.259   4.780  10.147  0.0853  0.2141 -0.5095
  144SAPE   H2R15766   4.189   4.698  10.175  1.0127 -0.5933 -0.4950
  144SAPE   H2S15767   4.217   4.876  10.183 -2.4876  0.0702 -2.7825
  144SAPE    C315768   4.532   4.456  10.270  0.4885  0.8910  0.1306
  144SAPE    HX15769   4.450   4.389  10.302 -0.2084  0.6520 -1.9948
  144SAPE    HY15770   4.635   4.429  10.304 -0.4514 -0.1130  2.3761
  144SAPE   O3115771   4.528   4.466  10.127 -0.3555 -0.1911 -0.1335
  144SAPE   C3115772   4.639   4.464  10.059  0.7986 -0.3976  0.1223
  144SAPE   O3215773   4.753   4.458  10.103 -0.0206 -0.1810  0.1723
  144SAPE   C3215774   4.608   4.483   9.908  0.0151 -0.1776 -0.5070
  144SAPE   H2X15775   4.682   4.555   9.866 -0.8451  0.7425 -0.4736
  144SAPE   H2Y15776   4.510   4.535   9.905  0.0450 -0.1577 -1.1543
  144SAPE   C2315777   4.275   4.792   9.991 -0.0126  0.0742 -0.1416
  144SAPE   H3R15778   4.310   4.690   9.965  1.8226  0.1049  1.9132
  144SAPE   H3S15779   4.353   4.867   9.966 -0.3301  0.8003  0.9647
  144SAPE   C2415780   4.145   4.810   9.915  0.8247  0.0667  0.7704
  144SAPE   H4R15781   4.183   4.804   9.811 -0.1193 -0.9804  0.4736
  144SAPE   H4S15782   4.130   4.920   9.924  1.5134  0.4179 -1.6480
  144SAPE   C2515783   4.032   4.713   9.934  0.9583  0.2937  0.4595
  144SAPE   H5R15784   3.999   4.715  10.039 -1.4728 -0.0416 -0.2270
  144SAPE   C2615785   3.981   4.632   9.832  0.5318  0.4048 -0.1707
  144SAPE   H6R15786   3.908   4.554   9.858  1.7630 -0.4630  0.8394
  144SAPE   C2715787   4.017   4.628   9.689 -0.0763  0.5081  0.8866
  144SAPE   H7R15788   4.062   4.530   9.665 -1.8645 -0.3833  0.9586
  144SAPE   H7S15789   4.099   4.701   9.675  0.1579  0.1356  0.3133
  144SAPE   C2815790   3.899   4.666   9.603 -0.3805 -0.1789  0.7824
  144SAPE   H8R15791   3.814   4.714   9.653 -0.9318 -0.3509  0.0272
  144SAPE   C2915792   3.900   4.650   9.473  0.4680  0.0842  0.1407
  144SAPE   H9R15793   3.802   4.662   9.424 -0.0229 -1.1809  0.7661
  144SAPE  C21015794   4.009   4.583   9.390  0.1696  0.1030 -0.2717
  144SAPE  H10R15795   3.965   4.496   9.336 -0.1227 -0.6504  1.1311
  144SAPE  H10S15796   4.089   4.539   9.453 -0.0236  2.4600  1.7555
  144SAPE  C21115797   4.064   4.690   9.305  0.3852 -0.4217 -0.5953
  144SAPE  H11R15798   4.064   4.789   9.353 -0.4164 -0.2309 -0.9735
  144SAPE  C21215799   4.116   4.679   9.180 -0.9012 -0.1564 -0.4295
  144SAPE  H12R15800   4.144   4.775   9.134 -0.4835 -0.1926 -0.2546
  144SAPE  C21315801   4.130   4.566   9.088  0.1186  0.7972  0.2201
  144SAPE  H13R15802   4.148   4.469   9.138 -2.0589  0.6393  0.8076
  144SAPE  H13S15803   4.230   4.575   9.042  0.0186 -0.0793 -0.1865
  144SAPE  C21415804   4.013   4.548   8.993  0.8879  0.7325  0.1685
  144SAPE  H14R15805   3.929   4.486   9.030  1.0472 -1.2389 -2.4824
  144SAPE  C21515806   3.991   4.608   8.872  0.4915 -0.0234 -1.3484
  144SAPE  H15R15807   3.896   4.590   8.819 -1.1003 -0.2247  1.3785
  144SAPE  C21615808   4.079   4.714   8.808 -0.1884 -0.0535  0.6788
  144SAPE  H16R15809   4.169   4.732   8.870  1.5703 -1.5073 -1.3326
  144SAPE  H16S15810   4.024   4.809   8.793  2.2315  1.6830  2.1106
  144SAPE  C21715811   4.129   4.679   8.671 -0.4424 -0.9438  0.1852
  144SAPE  H17R15812   4.065   4.726   8.592  0.7195  1.1956  0.4205
  144SAPE  H17S15813   4.133   4.570   8.652 -0.2989 -0.8207 -0.5433
  144SAPE  C21815814   4.267   4.741   8.635  0.3640 -0.2713 -0.3164
  144SAPE  H18R15815   4.326   4.677   8.565  0.0588  0.1844 -1.0018
  144SAPE  H18S15816   4.318   4.738   8.734  0.8665  0.2889 -0.5509
  144SAPE  C21915817   4.260   4.887   8.600 -0.1361 -0.1111  0.0514
  144SAPE  H19R15818   4.266   4.950   8.692 -2.4488  1.5840 -0.8760
  144SAPE  H19S15819   4.160   4.910   8.558 -0.3731  0.9234  1.1302
  144SAPE  C22015820   4.383   4.934   8.518 -0.1663 -0.6210 -0.3288
  144SAPE  H20R15821   4.362   5.037   8.480 -1.9911 -0.6391  0.4977
  144SAPE  H20S15822   4.396   4.861   8.436  0.6426 -3.0004  1.7675
  144SAPE  H20T15823   4.472   4.920   8.582  0.1055 -1.3593 -0.8679
  144SAPE   C3315824   4.602   4.347   9.842  0.6115  0.1753 -0.8126
  144SAPE   H3X15825   4.521   4.287   9.891  1.3250 -1.3619 -1.4280
  144SAPE   H3Y15826   4.688   4.285   9.874  1.9119  1.5395 -1.5619
  144SAPE   C3415827   4.590   4.347   9.688  0.6203 -0.1543 -0.2464
  144SAPE   H4X15828   4.664   4.416   9.642  0.5052 -0.2384 -0.5566
  144SAPE   H4Y15829   4.489   4.386   9.662  1.0564  0.5306 -0.9384
  144SAPE   C3515830   4.606   4.211   9.622 -0.1449 -0.1668  0.0070
  144SAPE   H5X15831   4.517   4.151   9.651 -0.9622  0.2158 -1.5949
  144SAPE   H5Y15832   4.702   4.163   9.649 -0.7453 -0.2053  2.2887
  144SAPE   C3615833   4.602   4.228   9.470 -0.9478  0.1541  0.4039
  144SAPE   H6X15834   4.628   4.134   9.418  2.3613 -0.5461  3.0328
  144SAPE   H6Y15835   4.682   4.298   9.437 -1.4745  0.3326 -0.5504
  144SAPE   C3715836   4.467   4.271   9.405 -0.3207 -0.0177 -0.3001
  144SAPE   H7X15837   4.455   4.378   9.432 -4.5444 -0.3543 -0.1690
  144SAPE   H7Y15838   4.389   4.206   9.451  1.3239 -1.3275  0.7658
  144SAPE   C3815839   4.462   4.248   9.247  0.3254 -0.0806  0.2959
  144SAPE   H8X15840   4.362   4.260   9.200  0.7236  3.7200  0.1214
  144SAPE   H8Y15841   4.506   4.149   9.220  3.0498  1.2709 -0.5239
  144SAPE   C3915842   4.556   4.351   9.179  0.3533 -0.1736  0.0546
  144SAPE   H9X15843   4.664   4.337   9.203  0.3116  1.2598  1.1799
  144SAPE   H9Y15844   4.531   4.454   9.212  2.0168  0.0367  0.7611
  144SAPE  C31015845   4.543   4.347   9.029 -0.4643  0.3677 -0.3287
  144SAPE  H10X15846   4.438   4.372   9.002 -0.3399 -0.1052 -1.2730
  144SAPE  H10Y15847   4.564   4.249   8.982  1.0588  1.0134 -1.0527
  144SAPE  C31115848   4.655   4.441   8.971  0.5035  0.7967  0.7535
  144SAPE  H11X15849   4.754   4.391   8.973  0.3988  0.5079 -0.3435
  144SAPE  H11Y15850   4.653   4.533   9.032 -1.6223  0.8274  0.7080
  144SAPE  C31215851   4.630   4.481   8.829  0.2928 -0.0900 -0.3580
  144SAPE  H12X15852   4.523   4.497   8.804  0.4302 -0.8203 -1.4579
  144SAPE  H12Y15853   4.655   4.408   8.750 -0.7109  1.0792 -1.8205
  144SAPE  C31315854   4.699   4.608   8.788  0.4586 -0.4042  0.7642
  144SAPE  H13X15855   4.808   4.609   8.812  0.5844  1.7168  0.3310
  144SAPE  H13Y15856   4.649   4.693   8.839  0.1551  0.0655 -0.2978
  144SAPE  C31415857   4.692   4.634   8.633  0.6913  0.4396  0.0400
  144SAPE  H14X15858   4.589   4.624   8.592  0.7225 -0.0987  0.0805
  144SAPE  H14Y15859   4.749   4.548   8.592  2.6139  1.7855 -0.2744
  144SAPE  C31515860   4.762   4.767   8.598 -0.6623  0.2530 -0.4531
  144SAPE  H15X15861   4.859   4.776   8.651  0.0770  0.9551 -1.8524
  144SAPE  H15Y15862   4.693   4.848   8.631  0.0556  0.6935  0.0066
  144SAPE  C31615863   4.787   4.790   8.445 -0.4962 -0.0485  0.0623
  144SAPE  H16X15864   4.687   4.792   8.398 -0.1827  1.2875 -0.5953
  144SAPE  H16Y15865   4.833   4.700   8.400 -1.5546 -0.8366  0.5174
  144SAPE  C31715866   4.858   4.920   8.405  0.2502  0.0678  0.4840
  144SAPE  H17X15867   4.796   5.008   8.431 -1.7032 -1.8853  3.0845
  144SAPE  H17Y15868   4.871   4.907   8.296 -3.2566 -0.4035 -0.0007
  144SAPE  C31815869   5.000   4.927   8.455  0.3649 -0.6728  0.4296
  144SAPE  H18X15870   5.059   4.832   8.452  2.1700  0.4156 -0.0428
  144SAPE  H18Y15871   4.999   4.953   8.563 -0.4223  1.1709  0.0012
  144SAPE  H18Z15872   5.050   5.003   8.392 -0.1327 -1.3782 -0.8573
  145SAPE     N15873   1.826   3.599  10.760  0.0060 -0.5794 -0.2820
  145SAPE   HN115874   1.790   3.535  10.687 -0.2334  0.7426 -1.3577
  145SAPE   HN215875   1.902   3.548  10.810  0.7034 -0.7699 -1.5184
  145SAPE   HN315876   1.753   3.631  10.827  1.2054  1.5938  0.0852
  145SAPE   C1215877   1.874   3.729  10.698  0.0846  0.5391 -0.3255
  145SAPE  H12A15878   1.798   3.809  10.716 -1.3584 -1.1394  1.5066
  145SAPE  H12B15879   1.886   3.713  10.589  1.1847  1.2213 -0.3139
  145SAPE   C1115880   2.008   3.769  10.764 -1.1268 -0.0560 -0.2586
  145SAPE  H11A15881   2.038   3.861  10.710  0.4872 -2.1705 -3.2454
  145SAPE  H11B15882   2.078   3.693  10.724  1.8403  3.0808 -1.5362
  145SAPE     P15883   2.103   3.879  10.969 -0.0924 -0.0886  0.1040
  145SAPE   O1315884   2.069   4.006  10.903 -0.3017 -0.2271  0.2923
  145SAPE   O1415885   2.116   3.872  11.120 -0.1375 -0.8490 -0.0618
  145SAPE   O1215886   1.998   3.781  10.913 -0.0480  0.0074  0.4631
  145SAPE   O1115887   2.232   3.821  10.907 -0.4560  0.2822 -0.3884
  145SAPE    C115888   2.355   3.882  10.885 -0.4147 -0.1804 -0.5455
  145SAPE    HA15889   2.383   3.981  10.928 -0.2980 -0.1943 -0.5876
  145SAPE    HB15890   2.436   3.828  10.939  0.0593  1.5250  0.5435
  145SAPE    C215891   2.383   3.888  10.729  0.0008  0.0241  0.4807
  145SAPE    HS15892   2.475   3.949  10.718 -0.2851  0.3723  0.0014
  145SAPE   O2115893   2.283   3.964  10.665 -0.1031 -0.1441  0.0477
  145SAPE   C2115894   2.285   4.090  10.659  0.3929 -0.7025  0.4140
  145SAPE   O2215895   2.371   4.165  10.711 -0.0153  0.3064  0.3147
  145SAPE   C2215896   2.161   4.149  10.593 -0.5482 -0.3901  0.0080
  145SAPE   H2R15897   2.122   4.077  10.519  1.2933 -2.1090  0.6006
  145SAPE   H2S15898   2.088   4.145  10.676  1.4770  0.3927  1.9362
  145SAPE    C315899   2.377   3.749  10.652 -0.6236 -0.2641 -0.0285
  145SAPE    HX15900   2.280   3.714  10.695 -2.2267  2.1884 -1.3973
  145SAPE    HY15901   2.459   3.690  10.697  0.7654  0.4152 -1.6026
  145SAPE   O3115902   2.385   3.759  10.507 -0.0433 -0.0246 -0.5982
  145SAPE   C3115903   2.419   3.651  10.442 -0.2118 -0.0379 -0.2194
  145SAPE   O3215904   2.452   3.544  10.487 -0.4201 -0.4651 -0.3248
  145SAPE   C3215905   2.426   3.679  10.296  0.0669  0.7501 -0.4902
  145SAPE   H2X15906   2.481   3.774  10.280  1.0975  0.1233 -0.7728
  145SAPE   H2Y15907   2.320   3.703  10.276 -0.2755 -1.8096 -2.1834
  145SAPE   C2315908   2.185   4.301  10.549  0.5224 -0.1227  0.0083
  145SAPE   H3R15909   2.240   4.346  10.634  3.6000 -0.5717 -1.6214
  145SAPE   H3S15910   2.080   4.337  10.551  0.7684  0.7210 -1.4876
  145SAPE   C2415911   2.251   4.327  10.410 -0.1747  0.3999 -0.8627
  145SAPE   H4R15912   2.346   4.273  10.391 -0.2706  0.9062 -3.0162
  145SAPE   H4S15913   2.271   4.436  10.399 -0.5449  0.5929  0.2338
  145SAPE   C2515914   2.146   4.301  10.304  0.0786  0.0585  0.0381
  145SAPE   H5R15915   2.046   4.346  10.313  0.0446 -0.3500  2.0001
  145SAPE   C2615916   2.169   4.243  10.185  0.9317 -0.3132  0.8595
  145SAPE   H6R15917   2.085   4.245  10.114  1.3546  0.4150  0.3616
  145SAPE   C2715918   2.302   4.198  10.133 -0.6939  0.0793  0.0237
  145SAPE   H7R15919   2.286   4.119  10.057  0.1458 -2.1907  2.0664
  145SAPE   H7S15920   2.365   4.166  10.218  0.3804  0.6219 -0.5486
  145SAPE   C2815921   2.375   4.315  10.072 -0.0419  0.5002  0.2018
  145SAPE   H8R15922   2.359   4.413  10.120  0.0374  1.3331 -1.4118
  145SAPE   C2915923   2.443   4.322   9.954  0.1267  0.0083  0.2511
  145SAPE   H9R15924   2.478   4.422   9.924 -1.7976  0.5650 -0.2645
  145SAPE  C21015925   2.473   4.206   9.860  0.2222 -0.3082 -0.6110
  145SAPE  H10R15926   2.395   4.214   9.782 -0.3846  2.6524  0.1458
  145SAPE  H10S15927   2.450   4.111   9.914 -2.1957  1.2085  1.2735
  145SAPE  C21115928   2.613   4.234   9.802 -0.3830 -0.3784  0.9107
  145SAPE  H11R15929   2.698   4.219   9.872 -0.4278  0.2115  1.0996
  145SAPE  C21215930   2.642   4.265   9.674  0.5910  0.2748  0.0525
  145SAPE  H12R15931   2.745   4.291   9.645  0.0722  1.4274 -0.8531
  145SAPE  C21315932   2.538   4.275   9.562 -0.1107 -0.0433  0.1994
  145SAPE  H13R15933   2.440   4.229   9.587  0.4282 -0.5954  1.3660
  145SAPE  H13S15934   2.567   4.205   9.481  1.1581 -1.9129  2.1709
  145SAPE  C21415935   2.529   4.415   9.505 -0.2365  0.1249  0.8514
  145SAPE  H14R15936   2.554   4.497   9.574 -0.1134 -0.5308  1.5876
  145SAPE  C21515937   2.493   4.441   9.378 -0.0903  1.0473 -0.3752
  145SAPE  H15R15938   2.470   4.546   9.355 -1.8207  0.6486 -0.5550
  145SAPE  C21615939   2.452   4.330   9.275 -0.4150 -0.0254 -0.4557
  145SAPE  H16R15940   2.450   4.229   9.321 -0.0767  0.8293  1.5292
  145SAPE  H16S15941   2.530   4.325   9.196  2.2556  0.2666  2.0077
  145SAPE  C21715942   2.325   4.380   9.207 -0.6875  0.5682 -0.4017
  145SAPE  H17R15943   2.243   4.379   9.282 -0.4410  1.0178 -0.1191
  145SAPE  H17S15944   2.297   4.303   9.132  2.0720  0.1586 -1.1114
  145SAPE  C21815945   2.341   4.508   9.124 -0.5644  0.3500 -0.2172
  145SAPE  H18R15946   2.436   4.509   9.067  1.9930  0.3400  3.6776
  145SAPE  H18S15947   2.341   4.598   9.190 -3.0690  0.1202  0.1842
  145SAPE  C21915948   2.229   4.531   9.021 -0.1481 -0.2124 -0.4382
  145SAPE  H19R15949   2.128   4.492   9.044 -0.0806 -0.6326 -0.8574
  145SAPE  H19S15950   2.258   4.468   8.935  0.0811  0.5223 -0.9100
  145SAPE  C22015951   2.222   4.681   8.975  1.1301  0.3176 -0.1182
  145SAPE  H20R15952   2.169   4.674   8.878  2.7078 -2.3988 -0.9091
  145SAPE  H20S15953   2.321   4.730   8.964  1.3818 -0.2476 -0.4303
  145SAPE  H20T15954   2.156   4.742   9.039  1.4286  0.1818  0.3210
  145SAPE   C3315955   2.457   3.559  10.201  0.0601  0.0883  0.3284
  145SAPE   H3X15956   2.379   3.480  10.202 -0.1188  0.2631  0.3137
  145SAPE   H3Y15957   2.546   3.507  10.241  1.3353  1.0085 -1.2186
  145SAPE   C3415958   2.489   3.617  10.058 -0.0255  0.1430  0.1681
  145SAPE   H4X15959   2.539   3.524  10.023  1.1684  1.0286 -0.5770
  145SAPE   H4Y15960   2.568   3.694  10.063  3.4777 -2.9564 -1.9199
  145SAPE   C3515961   2.364   3.663   9.981  0.1314 -0.3936  0.0314
  145SAPE   H5X15962   2.307   3.732  10.047  2.4643  3.8511 -1.9787
  145SAPE   H5Y15963   2.312   3.567   9.964 -0.6686 -0.1030  0.7583
  145SAPE   C3615964   2.384   3.737   9.852 -0.4109 -0.0440 -0.0578
  145SAPE   H6X15965   2.442   3.672   9.783  3.1547  0.7987  1.8812
  145SAPE   H6Y15966   2.435   3.835   9.863  0.5432 -0.4358 -0.8091
  145SAPE   C3715967   2.241   3.762   9.789  0.0908  0.4625 -0.1884
  145SAPE   H7X15968   2.177   3.806   9.868  1.2383 -1.5419  1.9822
  145SAPE   H7Y15969   2.216   3.660   9.754  0.7104 -0.1710  1.1354
  145SAPE   C3815970   2.258   3.853   9.663 -0.3823 -0.3819  0.4189
  145SAPE   H8X15971   2.332   3.932   9.686 -0.6775  0.3334 -0.9711
  145SAPE   H8Y15972   2.160   3.897   9.636 -1.5834 -3.6925 -1.2281
  145SAPE   C3915973   2.333   3.789   9.536  0.1432  0.1286 -0.8562
  145SAPE   H9X15974   2.271   3.703   9.503  0.3749  0.1263 -1.2875
  145SAPE   H9Y15975   2.430   3.752   9.574 -1.6949 -1.9637  2.2772
  145SAPE  C31015976   2.342   3.885   9.416  0.3661 -0.7905  0.1879
  145SAPE  H10X15977   2.432   3.948   9.432  0.3254 -0.2214 -1.5998
  145SAPE  H10Y15978   2.258   3.958   9.413  2.0516  1.2255 -2.1957
  145SAPE  C31115979   2.358   3.813   9.279  0.3901  0.4673  0.6895
  145SAPE  H11X15980   2.292   3.727   9.256 -1.8888  2.4913 -0.9251
  145SAPE  H11Y15981   2.457   3.764   9.289 -0.0297 -0.8499 -1.1315
  145SAPE  C31215982   2.341   3.918   9.169  0.3399  0.7316  0.2294
  145SAPE  H12X15983   2.428   3.987   9.176  0.2050  0.8740  0.4837
  145SAPE  H12Y15984   2.239   3.963   9.173 -0.8456 -1.3407 -2.6968
  145SAPE  C31315985   2.352   3.857   9.026 -0.5985 -0.3593  0.8584
  145SAPE  H13X15986   2.325   3.933   8.950  1.9485  4.0192  3.9331
  145SAPE  H13Y15987   2.282   3.770   9.029 -1.5754  0.3924  0.3564
  145SAPE  C31415988   2.497   3.806   8.988 -0.2278  0.2719 -0.2068
  145SAPE  H14X15989   2.528   3.731   9.063  0.3540  0.8785  0.1672
  145SAPE  H14Y15990   2.566   3.893   8.995 -0.7685  0.8969 -2.0301
  145SAPE  C31515991   2.507   3.764   8.846  0.3502  0.4362  0.3687
  145SAPE  H15X15992   2.443   3.832   8.787  1.7057  0.3504 -1.2792
  145SAPE  H15Y15993   2.465   3.661   8.836  0.1159  0.4195  1.4207
  145SAPE  C31615994   2.653   3.767   8.798  0.5957  0.4407  0.3910
  145SAPE  H16X15995   2.699   3.678   8.846  0.5170  0.7965  1.1500
  145SAPE  H16Y15996   2.716   3.855   8.827  2.4996 -0.8849  0.4606
  145SAPE  C31715997   2.665   3.753   8.645  0.2976  0.3669 -0.0572
  145SAPE  H17X15998   2.772   3.736   8.618  0.1662 -1.0875  0.2238
  145SAPE  H17Y15999   2.609   3.839   8.604 -3.3706 -2.1518 -0.8308
  145SAPE  C31816000   2.581   3.632   8.590 -0.3083  0.0448 -0.1148
  145SAPE  H18X16001   2.475   3.664   8.584 -0.9078 -1.5028  1.2797
  145SAPE  H18Y16002   2.592   3.543   8.656 -0.2502  0.5737  0.6005
  145SAPE  H18Z16003   2.613   3.600   8.488 -1.3586 -0.2978 -0.3456
  146SAPE     N16004   6.073   5.266  10.816 -0.2797  0.6491  0.1630
  146SAPE   HN116005   6.085   5.320  10.728  2.7540  0.2222  0.2100
  146SAPE   HN216006   6.145   5.191  10.802 -0.9512 -0.1751  0.9944
  146SAPE   HN316007   5.978   5.224  10.816 -0.7022  1.5869  0.1134
  146SAPE   C1216008   6.105   5.328  10.946  0.0984 -0.2646  0.5723
  146SAPE  H12A16009   6.216   5.339  10.948  0.1225 -0.5217  0.7612
  146SAPE  H12B16010   6.075   5.266  11.033 -1.1098 -1.2440 -0.5012
  146SAPE   C1116011   6.044   5.464  10.952 -0.4043  0.2239  0.2767
  146SAPE  H11A16012   6.081   5.500  11.051  0.6206  2.0117 -0.7042
  146SAPE  H11B16013   5.934   5.454  10.954 -0.4183  0.4376  0.5328
  146SAPE     P16014   6.123   5.692  10.848  0.2757 -0.0127 -0.5190
  146SAPE   O1316015   5.997   5.766  10.860 -0.7193 -0.4484 -0.1574
  146SAPE   O1416016   6.223   5.712  10.957 -0.2489  0.7969 -0.0986
  146SAPE   O1216017   6.093   5.542  10.841 -0.1147  0.1188 -0.6566
  146SAPE   O1116018   6.192   5.737  10.713 -0.1121  0.7556 -0.3377
  146SAPE    C116019   6.298   5.671  10.639 -0.0479 -0.1182 -0.3677
  146SAPE    HA16020   6.389   5.726  10.670 -0.9109  1.2728 -0.2179
  146SAPE    HB16021   6.312   5.565  10.669 -2.5103 -0.6651 -0.8632
  146SAPE    C216022   6.275   5.685  10.496 -1.1923  0.4850  0.5902
  146SAPE    HS16023   6.192   5.620  10.463 -2.1227  0.8975  2.0086
  146SAPE   O2116024   6.404   5.651  10.428 -0.1122  0.2439 -0.5373
  146SAPE   C2116025   6.420   5.519  10.419 -0.1912  0.2290 -0.3305
  146SAPE   O2216026   6.351   5.436  10.475 -0.4976  0.0823  0.0170
  146SAPE   C2216027   6.547   5.495  10.343  0.4304 -0.2295 -0.4628
  146SAPE   H2R16028   6.578   5.592  10.298  1.3707  0.7792  2.1521
  146SAPE   H2S16029   6.620   5.451  10.414 -0.0844  0.6409  0.6396
  146SAPE    C316030   6.242   5.830  10.461 -0.6082 -0.1071 -0.4837
  146SAPE    HX16031   6.308   5.903  10.512  0.7563  0.0642 -2.4131
  146SAPE    HY16032   6.143   5.849  10.508 -0.4891 -1.1663  0.2410
  146SAPE   O3116033   6.248   5.856  10.316 -0.2046  0.4985 -0.3441
  146SAPE   C3116034   6.138   5.825  10.253  0.0101  0.5271  0.9946
  146SAPE   O3216035   6.028   5.797  10.293  0.4218  0.0391 -0.3640
  146SAPE   C3216036   6.164   5.816  10.105 -0.4302  0.1565 -0.7706
  146SAPE   H2X16037   6.068   5.798  10.053  0.0998 -0.2990 -1.6256
  146SAPE   H2Y16038   6.224   5.722  10.099  0.5113  0.8101 -2.2448
  146SAPE   C2316039   6.526   5.387  10.240 -0.3470 -0.2619 -0.1894
  146SAPE   H3R16040   6.461   5.432  10.161 -1.6284 -2.6197 -0.5583
  146SAPE   H3S16041   6.472   5.306  10.293 -1.6046 -0.0804 -1.1411
  146SAPE   C2416042   6.657   5.327  10.176  0.3139  0.7034 -0.2726
  146SAPE   H4R16043   6.715   5.303  10.268 -1.3311  2.1097  1.2095
  146SAPE   H4S16044   6.703   5.401  10.107 -1.3886 -0.3044 -2.6146
  146SAPE   C2516045   6.636   5.192  10.102  0.1083 -1.0568  0.1974
  146SAPE   H5R16046   6.553   5.130  10.139 -0.2688 -2.0115 -2.1096
  146SAPE   C2616047   6.681   5.160   9.980 -0.1043 -0.2399  0.1692
  146SAPE   H6R16048   6.647   5.065   9.936 -2.0362  0.3933  0.2348
  146SAPE   C2716049   6.775   5.245   9.889  0.0033  0.3193 -0.8170
  146SAPE   H7R16050   6.856   5.294   9.947  0.4966 -0.7325 -0.5754
  146SAPE   H7S16051   6.722   5.328   9.839 -1.2996 -0.6528 -1.1039
  146SAPE   C2816052   6.843   5.157   9.787  0.0814 -0.2952 -0.0000
  146SAPE   H8R16053   6.874   5.062   9.832  0.1899  0.7602  2.2988
  146SAPE   C2916054   6.876   5.184   9.661  0.7384 -0.1296  1.1231
  146SAPE   H9R16055   6.933   5.113   9.600 -1.8368 -1.7594  0.4676
  146SAPE  C21016056   6.843   5.317   9.603 -0.9676 -0.0614 -0.0511
  146SAPE  H10R16057   6.931   5.333   9.537  0.5705 -1.4014  1.5844
  146SAPE  H10S16058   6.853   5.388   9.688  0.9492  0.4780 -0.6762
  146SAPE  C21116059   6.721   5.336   9.520  0.2944  0.4251  0.3644
  146SAPE  H11R16060   6.626   5.323   9.572 -0.1194  0.3051 -0.3972
  146SAPE  C21216061   6.715   5.372   9.387 -0.4104 -0.3159  0.5787
  146SAPE  H12R16062   6.623   5.388   9.330  0.9864  1.1847 -1.4115
  146SAPE  C21316063   6.832   5.401   9.301 -0.6500 -0.7591  0.7633
  146SAPE  H13R16064   6.888   5.485   9.347  0.0838 -1.1926  0.6643
  146SAPE  H13S16065   6.791   5.447   9.209 -1.8116 -1.6144  0.8292
  146SAPE  C21416066   6.926   5.287   9.270 -0.0001 -0.5178 -0.2889
  146SAPE  H14R16067   6.975   5.243   9.358 -2.2501 -0.4666  1.0606
  146SAPE  C21516068   6.943   5.237   9.146 -0.1831  1.1173 -0.4975
  146SAPE  H15R16069   7.009   5.151   9.131 -1.0877  0.7378 -2.6486
  146SAPE  C21616070   6.879   5.267   9.014  0.2078 -0.8475 -0.2197
  146SAPE  H16R16071   6.789   5.332   9.022  0.6737 -0.3743  1.5052
  146SAPE  H16S16072   6.825   5.179   8.974 -3.1330  0.7350  0.4813
  146SAPE  C21716073   6.966   5.331   8.897  0.0081 -0.0048  0.3381
  146SAPE  H17R16074   7.050   5.262   8.877 -0.6053 -0.3572 -1.1073
  146SAPE  H17S16075   7.004   5.430   8.933  0.1494  0.5488 -1.2445
  146SAPE  C21816076   6.887   5.371   8.777  0.2739 -0.7659 -1.0158
  146SAPE  H18R16077   6.951   5.428   8.706  0.7893  0.5115  0.4277
  146SAPE  H18S16078   6.801   5.437   8.796 -0.3089 -1.7478 -0.1273
  146SAPE  C21916079   6.840   5.246   8.703  0.1039 -0.7428 -0.1284
  146SAPE  H19R16080   6.771   5.186   8.766  0.0601  0.5522  1.1114
  146SAPE  H19S16081   6.923   5.173   8.694  2.2225  1.4041  0.9179
  146SAPE  C22016082   6.793   5.273   8.563  0.3138  0.1092  0.4816
  146SAPE  H20R16083   6.753   5.181   8.515 -2.4733  0.9060  1.0674
  146SAPE  H20S16084   6.866   5.329   8.500 -0.0204 -0.4974 -0.4744
  146SAPE  H20T16085   6.702   5.337   8.569  1.8973  2.5912 -0.2155
  146SAPE   C3316086   6.241   5.940  10.053  0.3176 -0.7382  0.9079
  146SAPE   H3X16087   6.323   5.975  10.120 -0.6780  2.0977  0.7438
  146SAPE   H3Y16088   6.172   6.026  10.044  2.8002  1.2170 -0.7686
  146SAPE   C3416089   6.309   5.910   9.922 -0.5316  0.3801  0.7805
  146SAPE   H4X16090   6.382   5.988   9.890  1.1875 -1.9400 -1.3114
  146SAPE   H4Y16091   6.236   5.897   9.839  1.6529  1.0610 -1.3613
  146SAPE   C3516092   6.404   5.795   9.936 -0.2516 -0.9243 -0.5455
  146SAPE   H5X16093   6.347   5.700   9.934 -0.2620 -0.9406 -3.6468
  146SAPE   H5Y16094   6.458   5.799  10.034 -0.2015  0.3176 -0.6084
  146SAPE   C3616095   6.505   5.779   9.815  0.1096  0.0740 -0.6258
  146SAPE   H6X16096   6.571   5.692   9.833  1.7784  1.1885 -1.1952
  146SAPE   H6Y16097   6.572   5.867   9.801 -2.0596  1.8324 -0.6512
  146SAPE   C3716098   6.430   5.745   9.686  0.4774  0.1364  0.1241
  146SAPE   H7X16099   6.358   5.827   9.666 -1.1250 -1.5898 -1.5670
  146SAPE   H7Y16100   6.370   5.653   9.707  1.6002 -0.4974  0.6621
  146SAPE   C3816101   6.526   5.723   9.573  1.0667 -0.5261 -0.2665
  146SAPE   H8X16102   6.568   5.623   9.599  3.4058  0.8202  1.5170
  146SAPE   H8Y16103   6.611   5.794   9.587  0.8737 -0.0508 -1.4128
  146SAPE   C3916104   6.462   5.737   9.433  0.0041 -0.6272  0.7904
  146SAPE   H9X16105   6.422   5.841   9.421  0.1097 -0.5935  0.7316
  146SAPE   H9Y16106   6.370   5.675   9.434 -2.2344  2.3955  2.9499
  146SAPE  C31016107   6.539   5.682   9.314  0.1014 -0.0546  0.2406
  146SAPE  H10X16108   6.574   5.577   9.321  0.7037 -0.0831 -2.2000
  146SAPE  H10Y16109   6.635   5.736   9.294  0.0610 -0.8575 -2.5767
  146SAPE  C31116110   6.455   5.701   9.188 -1.1765 -0.6118  0.3117
  146SAPE  H11X16111   6.457   5.812   9.175  2.4910 -0.4631  1.0562
  146SAPE  H11Y16112   6.350   5.667   9.176 -0.6223 -1.5411 -3.0495
  146SAPE  C31216113   6.538   5.639   9.075  0.1097 -0.8231 -0.7133
  146SAPE  H12X16114   6.547   5.528   9.074 -0.3253 -0.8675 -0.2742
  146SAPE  H12Y16115   6.642   5.679   9.074  0.6368 -2.0227  1.0636
  146SAPE  C31316116   6.483   5.677   8.933  0.4988  0.5485 -0.3094
  146SAPE  H13X16117   6.471   5.788   8.932  1.3329  0.6668  0.9096
  146SAPE  H13Y16118   6.391   5.616   8.918  1.6567 -1.8721  1.7630
  146SAPE  C31416119   6.581   5.648   8.824 -0.1382 -0.0265 -0.7536
  146SAPE  H14X16120   6.626   5.547   8.832  3.0329  1.2650 -1.2140
  146SAPE  H14Y16121   6.661   5.722   8.846 -0.6826  0.1668  0.7268
  146SAPE  C31516122   6.537   5.672   8.677  1.0074  0.2304 -0.1147
  146SAPE  H15X16123   6.499   5.777   8.678 -0.2380 -0.2079 -0.3354
  146SAPE  H15Y16124   6.455   5.604   8.650  1.1337 -0.5462  1.3324
  146SAPE  C31616125   6.653   5.662   8.575 -0.4919 -0.9146  0.1710
  146SAPE  H16X16126   6.707   5.565   8.586  0.3665 -0.5663 -0.7748
  146SAPE  H16Y16127   6.715   5.754   8.586 -0.7597 -0.9496  2.2526
  146SAPE  C31716128   6.597   5.670   8.429 -1.1026 -0.5121  0.6413
  146SAPE  H17X16129   6.564   5.774   8.407  1.8258  0.2511 -0.7019
  146SAPE  H17Y16130   6.518   5.593   8.418 -0.9708 -0.6128  0.3720
  146SAPE  C31816131   6.715   5.632   8.334  0.1270 -0.3053  0.3733
  146SAPE  H18X16132   6.785   5.719   8.327 -0.2196 -0.1028 -0.7033
  146SAPE  H18Y16133   6.680   5.601   8.233 -2.0717  3.3898 -0.1730
  146SAPE  H18Z16134   6.788   5.560   8.377 -0.6937 -0.9062  0.7863
  147SAPE     N16135   3.533   2.684   6.326  0.0086  0.5827 -0.0784
  147SAPE   HN116136   3.539   2.639   6.232 -0.8191 -0.1147  0.1971
  147SAPE   HN216137   3.488   2.611   6.384  1.9364 -1.1589 -0.6550
  147SAPE   HN316138   3.470   2.766   6.318 -1.2623 -0.4762 -1.4376
  147SAPE   C1216139   3.675   2.721   6.362  0.3813 -0.6733 -0.1404
  147SAPE  H12A16140   3.729   2.624   6.359 -0.8829 -1.3862 -0.9017
  147SAPE  H12B16141   3.683   2.760   6.465  1.3691  0.0735 -0.4818
  147SAPE   C1116142   3.736   2.815   6.258  0.1992 -0.4997  0.0762
  147SAPE  H11A16143   3.722   2.769   6.158  0.0792 -0.3769  0.0381
  147SAPE  H11B16144   3.845   2.823   6.279  0.1017 -0.5286  0.6209
  147SAPE     P16145   3.713   3.067   6.362 -0.0602 -0.0734  0.4576
  147SAPE   O1316146   3.716   3.195   6.292  0.1039 -0.1937  0.6018
  147SAPE   O1416147   3.603   3.058   6.464 -0.5605  0.3160  0.5970
  147SAPE   O1216148   3.683   2.949   6.258 -0.2691 -0.1907 -0.4134
  147SAPE   O1116149   3.852   3.039   6.433 -0.6704  0.8379 -0.5518
  147SAPE    C116150   3.931   3.141   6.490  0.2050  0.0958  0.3140
  147SAPE    HA16151   4.019   3.143   6.422 -0.8314  0.2723 -1.0694
  147SAPE    HB16152   3.878   3.237   6.472 -1.3903 -1.1534 -2.5067
  147SAPE    C216153   3.955   3.119   6.642  0.6396 -0.2974  0.4203
  147SAPE    HS16154   3.890   3.191   6.697  0.6605 -0.0466  0.1197
  147SAPE   O2116155   4.096   3.111   6.679 -0.0290 -0.2424 -0.0849
  147SAPE   C2116156   4.160   3.224   6.660  0.4392 -0.0373  0.0358
  147SAPE   O2216157   4.110   3.332   6.632 -0.2687 -0.2924  0.3128
  147SAPE   C2216158   4.307   3.205   6.682  0.6035  0.3039  0.0907
  147SAPE   H2R16159   4.330   3.134   6.764  2.6394  0.4674 -0.2925
  147SAPE   H2S16160   4.343   3.171   6.582  0.3104  0.2562 -0.0003
  147SAPE    C316161   3.899   2.974   6.690  1.3417 -0.5841 -0.1042
  147SAPE    HX16162   3.954   2.902   6.626  1.9112 -1.2226  1.0635
  147SAPE    HY16163   3.790   2.983   6.672  1.3215  1.8614  0.8470
  147SAPE   O3116164   3.914   2.948   6.828  0.0557  0.3732 -0.0943
  147SAPE   C3116165   3.945   2.825   6.862 -0.4558 -0.0714  0.6598
  147SAPE   O3216166   3.931   2.730   6.787 -0.3194 -0.0398 -0.7264
  147SAPE   C3216167   3.986   2.830   7.009  0.0955 -0.0010  0.7963
  147SAPE   H2X16168   3.943   2.926   7.046  0.3138  1.8925 -3.2326
  147SAPE   H2Y16169   4.096   2.843   7.020 -0.1259  1.7051  1.4262
  147SAPE   C2316170   4.373   3.337   6.727  0.3794  0.8825  0.0587
  147SAPE   H3R16171   4.346   3.410   6.648  0.5236 -0.1561 -0.9609
  147SAPE   H3S16172   4.481   3.313   6.738 -0.5829 -4.3912  0.3374
  147SAPE   C2416173   4.323   3.382   6.860 -0.7202  0.4698  0.5681
  147SAPE   H4R16174   4.218   3.351   6.873 -0.3370 -1.8779 -1.3098
  147SAPE   H4S16175   4.318   3.493   6.864  1.9922  0.6616  0.4493
  147SAPE   C2516176   4.407   3.325   6.978  0.5244 -0.3863  0.2051
  147SAPE   H5R16177   4.379   3.222   7.004 -0.6217 -0.3604 -0.8604
  147SAPE   C2616178   4.513   3.384   7.032  0.4151 -0.5251  0.0558
  147SAPE   H6R16179   4.563   3.348   7.123  0.6203  0.5337  0.3770
  147SAPE   C2716180   4.567   3.517   6.991  0.0884 -0.3923 -0.2646
  147SAPE   H7R16181   4.514   3.586   7.060 -0.3754  1.8912 -2.7348
  147SAPE   H7S16182   4.529   3.552   6.892 -0.6996  2.7044  1.0354
  147SAPE   C2816183   4.721   3.520   6.996  0.5039  0.2855  0.7954
  147SAPE   H8R16184   4.760   3.501   6.895  0.5709  1.0556  0.6700
  147SAPE   C2916185   4.798   3.562   7.096  0.6667 -0.9983  1.1382
  147SAPE   H9R16186   4.905   3.557   7.071  0.2887 -1.6695 -0.4455
  147SAPE  C21016187   4.757   3.607   7.230 -0.5728  0.9257 -0.0888
  147SAPE  H10R16188   4.667   3.552   7.265 -0.3168  0.0274 -0.8015
  147SAPE  H10S16189   4.741   3.717   7.222  0.5860  0.9946 -2.6154
  147SAPE  C21116190   4.866   3.582   7.334  0.1831  0.2868 -1.0594
  147SAPE  H11R16191   4.971   3.600   7.305  0.8421  1.1129  1.5331
  147SAPE  C21216192   4.853   3.532   7.462 -0.1231 -0.6629  0.2717
  147SAPE  H12R16193   4.950   3.519   7.513  0.7543  0.2454 -1.1057
  147SAPE  C21316194   4.731   3.491   7.529  0.0411  0.3290  0.6804
  147SAPE  H13R16195   4.659   3.455   7.453 -1.0913  0.8653  1.4659
  147SAPE  H13S16196   4.686   3.579   7.580 -1.7265 -0.9367  1.4643
  147SAPE  C21416197   4.745   3.377   7.630 -0.4109 -0.0085 -0.1220
  147SAPE  H14R16198   4.839   3.384   7.687  1.9914 -0.2958 -3.7521
  147SAPE  C21516199   4.667   3.270   7.642 -0.4492 -0.2166  0.1526
  147SAPE  H15R16200   4.683   3.207   7.731  0.9750  1.2207  0.9768
  147SAPE  C21616201   4.549   3.229   7.556  0.8574 -0.4282  0.0914
  147SAPE  H16R16202   4.468   3.301   7.533  1.5386  0.0960 -0.7059
  147SAPE  H16S16203   4.499   3.147   7.613  1.0325 -1.1215 -0.7333
  147SAPE  C21716204   4.604   3.159   7.431 -0.5606 -0.2991  0.5171
  147SAPE  H17R16205   4.682   3.081   7.438  0.1352  0.5093  2.6883
  147SAPE  H17S16206   4.641   3.234   7.358 -1.9255 -0.9524 -0.8924
  147SAPE  C21816207   4.486   3.080   7.370  0.6450  0.5601  1.2629
  147SAPE  H18R16208   4.405   3.155   7.360 -0.6867 -0.9625  0.2876
  147SAPE  H18S16209   4.454   3.001   7.441 -1.5647 -2.2123 -2.4512
  147SAPE  C21916210   4.513   3.011   7.235  0.7757 -0.3744  0.0224
  147SAPE  H19R16211   4.617   2.972   7.230  0.7399 -0.3899 -0.8190
  147SAPE  H19S16212   4.508   3.091   7.158  1.1569  1.2450  1.6307
  147SAPE  C22016213   4.414   2.910   7.187 -0.3974 -1.1903 -0.4004
  147SAPE  H20R16214   4.311   2.950   7.176  0.5904  1.0325 -2.3411
  147SAPE  H20S16215   4.412   2.825   7.258  2.2232 -0.6783  0.4050
  147SAPE  H20T16216   4.442   2.883   7.083 -0.1666 -0.5593 -0.5056
  147SAPE   C3316217   3.931   2.702   7.080 -0.8326 -0.1401  0.1864
  147SAPE   H3X16218   3.988   2.614   7.044 -0.8291 -0.7515  1.6076
  147SAPE   H3Y16219   3.824   2.690   7.052 -0.2408  1.7440 -3.4561
  147SAPE   C3416220   3.930   2.730   7.236  0.0533 -0.4014 -0.4549
  147SAPE   H4X16221   4.019   2.791   7.261  0.2127 -0.1303 -1.6114
  147SAPE   H4Y16222   3.939   2.631   7.286 -0.7929 -1.2097 -1.8187
  147SAPE   C3516223   3.797   2.794   7.283 -0.0534 -0.5183 -0.2626
  147SAPE   H5X16224   3.724   2.711   7.268 -0.3148 -0.5928  1.2746
  147SAPE   H5Y16225   3.756   2.882   7.229 -1.2601 -0.6487  0.3965
  147SAPE   C3616226   3.804   2.818   7.433 -0.4925  0.5513  0.3439
  147SAPE   H6X16227   3.854   2.917   7.443  0.3950  0.2711 -0.9500
  147SAPE   H6Y16228   3.864   2.737   7.479 -0.6293  0.7127  0.8082
  147SAPE   C3716229   3.666   2.807   7.491  0.0469 -0.4522  0.1528
  147SAPE   H7X16230   3.650   2.700   7.468  0.3071 -0.0369 -2.1939
  147SAPE   H7Y16231   3.590   2.881   7.456 -0.3176 -1.8154 -2.1316
  147SAPE   C3816232   3.654   2.811   7.646  0.1068  0.2726 -0.4068
  147SAPE   H8X16233   3.736   2.746   7.683 -1.1635 -0.6895  0.8490
  147SAPE   H8Y16234   3.568   2.748   7.678  0.9330 -0.4104  0.5157
  147SAPE   C3916235   3.655   2.947   7.709 -0.5373 -0.4049 -0.5632
  147SAPE   H9X16236   3.554   2.991   7.693 -0.7589 -0.5673  0.3299
  147SAPE   H9Y16237   3.740   3.007   7.669  0.7881 -1.6973  0.1961
  147SAPE  C31016238   3.679   2.941   7.857  0.5024  0.3932 -0.0597
  147SAPE  H10X16239   3.776   2.890   7.878  0.9858  0.9276 -0.9248
  147SAPE  H10Y16240   3.595   2.883   7.900  1.9714 -0.4814  1.7561
  147SAPE  C31116241   3.675   3.083   7.916  0.4299  0.8437  0.5452
  147SAPE  H11X16242   3.582   3.138   7.893  0.6538  0.4488 -1.4238
  147SAPE  H11Y16243   3.754   3.148   7.873  0.3020 -0.2003 -1.3925
  147SAPE  C31216244   3.687   3.084   8.069 -0.1589 -0.2502 -0.5356
  147SAPE  H12X16245   3.617   3.021   8.128 -0.4843  1.8076  1.3804
  147SAPE  H12Y16246   3.691   3.190   8.103  0.6401 -0.4196 -0.0720
  147SAPE  C31316247   3.831   3.025   8.108  0.6368 -0.8558  0.6047
  147SAPE  H13X16248   3.904   3.066   8.035 -1.1014 -0.8079 -1.2028
  147SAPE  H13Y16249   3.831   2.916   8.088 -0.5767 -0.5494 -1.4030
  147SAPE  C31416250   3.866   3.035   8.261  1.1611 -0.0886  0.5978
  147SAPE  H14X16251   3.776   2.996   8.313  0.6747 -0.4244 -0.4903
  147SAPE  H14Y16252   3.885   3.140   8.293 -0.2663  0.4855 -0.3682
  147SAPE  C31516253   3.984   2.960   8.323  0.0418  0.2460 -0.1146
  147SAPE  H15X16254   3.984   2.862   8.270 -0.1761 -0.9543  1.9728
  147SAPE  H15Y16255   3.966   2.927   8.428 -0.0190  1.1656  0.1704
  147SAPE  C31616256   4.113   3.033   8.321  0.2093 -0.2224  0.0678
  147SAPE  H16X16257   4.117   3.128   8.380  1.0245 -1.0993  1.4719
  147SAPE  H16Y16258   4.121   3.062   8.214 -2.9839 -0.5765 -0.3807
  147SAPE  C31716259   4.235   2.948   8.353  0.5633  0.1585  0.3154
  147SAPE  H17X16260   4.228   2.859   8.286  2.2510 -2.2411  3.0810
  147SAPE  H17Y16261   4.231   2.911   8.457  2.5613  1.8293  1.0312
  147SAPE  C31816262   4.358   3.027   8.331  0.5490 -0.1180  0.5395
  147SAPE  H18X16263   4.388   3.006   8.226  2.0409 -0.6626  1.0349
  147SAPE  H18Y16264   4.446   2.980   8.381  0.8459 -0.9574 -0.7191
  147SAPE  H18Z16265   4.363   3.137   8.344 -0.1423  0.0431 -0.4624
  148SAPE     N16266   3.881   2.225   6.302 -0.0945  0.1373  0.4866
  148SAPE   HN116267   3.979   2.200   6.327  0.0903  1.7007  1.4150
  148SAPE   HN216268   3.840   2.158   6.233  2.4002  0.1042 -1.0927
  148SAPE   HN316269   3.883   2.317   6.254 -2.5021 -0.4540 -0.9314
  148SAPE   C1216270   3.786   2.238   6.421 -0.5228 -0.1346  0.5954
  148SAPE  H12A16271   3.828   2.315   6.490 -0.0310  2.3844 -2.3014
  148SAPE  H12B16272   3.785   2.138   6.469  1.4045 -1.1672 -1.3140
  148SAPE   C1116273   3.641   2.290   6.398 -0.3534  0.1445 -0.3784
  148SAPE  H11A16274   3.585   2.225   6.328 -2.0985  1.5989 -0.3942
  148SAPE  H11B16275   3.648   2.395   6.364 -0.0973 -0.0156 -0.8283
  148SAPE     P16276   3.450   2.348   6.567 -0.1089 -0.0210 -0.2846
  148SAPE   O1316277   3.433   2.467   6.481 -0.3362  0.2233  0.5815
  148SAPE   O1416278   3.339   2.249   6.573 -0.1533 -0.4137  0.5727
  148SAPE   O1216279   3.577   2.278   6.519  0.2333  0.2484 -0.4692
  148SAPE   O1116280   3.490   2.401   6.713  0.0851 -0.8683 -0.0749
  148SAPE    C116281   3.628   2.458   6.724  0.5099 -0.2747 -0.3893
  148SAPE    HA16282   3.704   2.378   6.736  1.2739  0.4811 -0.1070
  148SAPE    HB16283   3.645   2.531   6.642  0.9278  1.4733  1.1661
  148SAPE    C216284   3.634   2.548   6.857 -0.1329  0.5075  0.1860
  148SAPE    HS16285   3.727   2.608   6.851  0.6517 -0.6311  0.5563
  148SAPE   O2116286   3.634   2.461   6.970  0.4124 -0.4098 -0.0367
  148SAPE   C2116287   3.730   2.375   6.987  0.9141  0.8559  0.2712
  148SAPE   O2216288   3.833   2.358   6.925 -0.2263 -0.4220  0.2551
  148SAPE   C2216289   3.714   2.301   7.120  0.6478 -0.3988 -0.2425
  148SAPE   H2R16290   3.619   2.243   7.119  0.2468  0.2619 -0.3398
  148SAPE   H2S16291   3.800   2.230   7.126 -1.9068 -3.6425  1.2077
  148SAPE    C316292   3.528   2.655   6.860  0.3030 -0.1751 -0.6517
  148SAPE    HX16293   3.427   2.616   6.883 -0.2520  2.9706  3.4701
  148SAPE    HY16294   3.518   2.694   6.756  0.8416  0.2754 -0.5400
  148SAPE   O3116295   3.560   2.766   6.951  0.1895 -0.3463  0.1492
  148SAPE   C3116296   3.552   2.887   6.895 -0.6244  0.4862  0.0391
  148SAPE   O3216297   3.514   2.912   6.781  0.6188 -0.6456  0.7432
  148SAPE   C3216298   3.603   2.995   6.984  0.1164 -0.7391 -0.1550
  148SAPE   H2X16299   3.631   3.082   6.921  3.2257 -1.5303 -0.0328
  148SAPE   H2Y16300   3.693   2.968   7.043 -0.0585  0.2199  0.5826
  148SAPE   C2316301   3.723   2.399   7.236  0.2456 -0.2422 -0.4296
  148SAPE   H3R16302   3.629   2.458   7.234 -0.0889 -0.7794 -0.9946
  148SAPE   H3S16303   3.806   2.471   7.217  1.0441 -1.2673 -0.9260
  148SAPE   C2416304   3.753   2.320   7.368 -0.3900 -0.1336  0.7046
  148SAPE   H4R16305   3.844   2.256   7.372 -0.6646 -0.6167 -0.3646
  148SAPE   H4S16306   3.665   2.253   7.361  0.5926 -1.5028  0.8326
  148SAPE   C2516307   3.766   2.413   7.491 -0.1992 -0.1675 -0.0219
  148SAPE   H5R16308   3.843   2.491   7.488 -0.0141 -0.3789 -1.4192
  148SAPE   C2616309   3.672   2.416   7.587  0.3537  0.5011 -1.0426
  148SAPE   H6R16310   3.684   2.490   7.668  0.0675 -0.8583  0.2885
  148SAPE   C2716311   3.551   2.338   7.607  0.2321  0.5611  0.0033
  148SAPE   H7R16312   3.516   2.302   7.508  1.3818 -3.2396  0.7914
  148SAPE   H7S16313   3.466   2.396   7.650 -1.0287 -0.1554 -1.3992
  148SAPE   C2816314   3.564   2.207   7.683  0.2219 -0.8258  0.0269
  148SAPE   H8R16315   3.640   2.143   7.636 -0.5277  0.2228 -2.7965
  148SAPE   C2916316   3.496   2.178   7.802 -0.0509  0.1959  0.6310
  148SAPE   H9R16317   3.505   2.075   7.841 -1.2139 -0.2001 -0.0809
  148SAPE  C21016318   3.413   2.271   7.878  0.4085  0.1937  0.2988
  148SAPE  H10R16319   3.330   2.217   7.928  0.2051  0.8750  0.7000
  148SAPE  H10S16320   3.363   2.349   7.817 -1.1258 -0.6589  0.4023
  148SAPE  C21116321   3.495   2.347   7.982 -0.1078 -0.4290 -0.2587
  148SAPE  H11R16322   3.593   2.387   7.954 -0.4251  0.0064 -0.7767
  148SAPE  C21216323   3.454   2.376   8.107 -0.1666  0.1930  0.2820
  148SAPE  H12R16324   3.518   2.429   8.179 -0.9544  2.3135 -0.5009
  148SAPE  C21316325   3.320   2.334   8.161  0.1423  0.1998  0.4938
  148SAPE  H13R16326   3.337   2.232   8.202  0.2361  0.3735  0.8897
  148SAPE  H13S16327   3.250   2.322   8.075  0.3430 -0.7759  0.4507
  148SAPE  C21416328   3.266   2.427   8.272 -0.2411  0.3552  0.2198
  148SAPE  H14R16329   3.254   2.533   8.244 -2.0226  0.2755  0.5492
  148SAPE  C21516330   3.243   2.386   8.399  0.7390 -0.0776  0.2888
  148SAPE  H15R16331   3.216   2.471   8.463 -0.7905 -0.4982  0.2386
  148SAPE  C21616332   3.274   2.252   8.467 -0.2981 -0.1700  0.6781
  148SAPE  H16R16333   3.276   2.265   8.577  0.7835 -1.6700  0.8569
  148SAPE  H16S16334   3.376   2.221   8.437 -0.7180  0.1152 -1.1839
  148SAPE  C21716335   3.162   2.142   8.437 -0.2159  0.0869  0.0342
  148SAPE  H17R16336   3.199   2.044   8.474 -3.3383 -1.5021 -0.6780
  148SAPE  H17S16337   3.140   2.129   8.329 -1.1966  0.5684  0.1595
  148SAPE  C21816338   3.026   2.188   8.498  0.0075  0.0375 -0.3705
  148SAPE  H18R16339   2.999   2.281   8.445  2.0585  0.0956 -1.4308
  148SAPE  H18S16340   3.048   2.197   8.607  1.3480 -0.8017 -0.5434
  148SAPE  C21916341   2.910   2.088   8.487  0.1928 -0.0027 -0.6829
  148SAPE  H19R16342   2.959   1.995   8.523 -0.6308  0.2340  1.1425
  148SAPE  H19S16343   2.879   2.077   8.381 -1.5469 -0.9493 -0.1109
  148SAPE  C22016344   2.789   2.118   8.581 -0.3924  0.2484  0.0750
  148SAPE  H20R16345   2.727   2.028   8.596  0.3577 -0.0682  1.4062
  148SAPE  H20S16346   2.731   2.208   8.550 -1.1843 -0.5509 -0.8301
  148SAPE  H20T16347   2.823   2.137   8.685 -1.9457 -4.1090  1.5924
  148SAPE   C3316348   3.495   3.038   7.092 -0.4649 -0.1890  0.2077
  148SAPE   H3X16349   3.433   2.950   7.118 -1.8333  0.1646 -1.6772
  148SAPE   H3Y16350   3.423   3.109   7.046  1.2741  0.4636 -1.6193
  148SAPE   C3416351   3.546   3.104   7.217 -0.1168 -0.2267 -0.5088
  148SAPE   H4X16352   3.584   3.208   7.206  0.0283 -0.4168 -1.9456
  148SAPE   H4Y16353   3.625   3.034   7.253 -0.0253  0.1271 -0.0043
  148SAPE   C3516354   3.436   3.112   7.325 -0.1471  0.2058  0.1881
  148SAPE   H5X16355   3.400   3.013   7.359  2.6693 -0.0195  2.9833
  148SAPE   H5Y16356   3.351   3.163   7.274 -0.7789 -0.5253  0.4976
  148SAPE   C3616357   3.493   3.176   7.456 -0.0948 -0.6946  1.1870
  148SAPE   H6X16358   3.542   3.272   7.431  0.7422 -1.5099 -0.5334
  148SAPE   H6Y16359   3.578   3.118   7.497  1.2420  0.1253 -0.3037
  148SAPE   C3716360   3.384   3.213   7.561  0.3112  0.6513  0.1872
  148SAPE   H7X16361   3.346   3.128   7.622  0.6919  1.3073  1.3708
  148SAPE   H7Y16362   3.294   3.270   7.530 -1.1690 -1.1178  1.0377
  148SAPE   C3816363   3.456   3.288   7.672 -0.3566  0.2633 -0.7540
  148SAPE   H8X16364   3.479   3.387   7.628  1.5079  0.4188  0.4959
  148SAPE   H8Y16365   3.551   3.236   7.697 -0.3612 -0.2139 -1.6796
  148SAPE   C3916366   3.368   3.307   7.798  0.7916  0.5691  0.3568
  148SAPE   H9X16367   3.363   3.212   7.855  0.4096  0.0129 -0.5735
  148SAPE   H9Y16368   3.264   3.327   7.764  0.6512  1.2841  1.1656
  148SAPE  C31016369   3.416   3.428   7.880  0.7900 -0.2781  0.0474
  148SAPE  H10X16370   3.405   3.529   7.835  4.3425  0.5779  0.8081
  148SAPE  H10Y16371   3.520   3.413   7.916  1.2277 -0.9057 -1.4263
  148SAPE  C31116372   3.331   3.434   8.007 -0.6012 -0.2935 -0.1063
  148SAPE  H11X16373   3.224   3.405   7.996 -0.6052 -0.0686 -0.7165
  148SAPE  H11Y16374   3.339   3.533   8.057 -0.6013 -1.4472  2.3107
  148SAPE  C31216375   3.395   3.338   8.114  0.6461  0.7512 -0.2173
  148SAPE  H12X16376   3.416   3.238   8.071  0.3391  1.4428 -2.0403
  148SAPE  H12Y16377   3.331   3.313   8.201  1.0850 -0.1870 -0.1487
  148SAPE  C31316378   3.513   3.391   8.188  0.1680 -0.4231 -0.3644
  148SAPE  H13X16379   3.510   3.500   8.209 -1.4204 -0.7752  1.6300
  148SAPE  H13Y16380   3.608   3.367   8.136 -0.0924 -1.4451 -0.4021
  148SAPE  C31416381   3.531   3.325   8.322  0.2857 -0.1723 -0.2955
  148SAPE  H14X16382   3.551   3.216   8.308 -1.6246 -0.8344  1.6322
  148SAPE  H14Y16383   3.439   3.352   8.377  0.7252  2.2961 -0.6447
  148SAPE  C31516384   3.646   3.380   8.403 -0.0046 -0.0267  0.0023
  148SAPE  H15X16385   3.662   3.489   8.386  0.7630  0.0099  0.8447
  148SAPE  H15Y16386   3.734   3.328   8.361 -0.4647  0.9848 -2.3364
  148SAPE  C31616387   3.640   3.337   8.546 -0.3891  0.2131  0.3425
  148SAPE  H16X16388   3.621   3.231   8.572  0.6454  0.1908  1.0697
  148SAPE  H16Y16389   3.557   3.394   8.594 -1.6790 -0.1259 -1.3825
  148SAPE  C31716390   3.772   3.370   8.620 -0.2397 -0.2261 -0.3596
  148SAPE  H17X16391   3.759   3.354   8.729  2.9590 -0.2024  0.1002
  148SAPE  H17Y16392   3.794   3.478   8.607 -0.9561 -0.0253  0.0387
  148SAPE  C31816393   3.899   3.291   8.571  0.1922 -0.8922  0.0279
  148SAPE  H18X16394   3.916   3.329   8.468  0.7063 -0.9697  0.0820
  148SAPE  H18Y16395   3.872   3.183   8.579 -1.1398 -0.4464  2.1471
  148SAPE  H18Z16396   3.993   3.309   8.628  0.4085  3.1356 -1.3118
  149SAPE     N16397   2.837   0.223   6.218 -0.2400 -0.1432  0.3227
  149SAPE   HN116398   2.736   0.250   6.215 -0.6720 -1.6754  0.0520
  149SAPE   HN216399   2.896   0.273   6.149  1.8778 -2.4374  0.3524
  149SAPE   HN316400   2.851   0.122   6.197 -0.0810 -0.0599  0.0263
  149SAPE   C1216401   2.882   0.253   6.359  0.0442  0.3553 -0.5581
  149SAPE  H12A16402   2.992   0.261   6.367 -0.0830  0.6595  1.6766
  149SAPE  H12B16403   2.833   0.175   6.421 -2.5556 -0.0828 -2.9681
  149SAPE   C1116404   2.832   0.393   6.403 -0.7604  0.4836 -0.1955
  149SAPE  H11A16405   2.875   0.412   6.504 -1.2551  1.8231 -0.2183
  149SAPE  H11B16406   2.723   0.403   6.418 -0.5512  2.6569  0.3117
  149SAPE     P16407   2.974   0.609   6.349 -0.1110 -0.0164 -0.1270
  149SAPE   O1316408   3.109   0.546   6.363 -0.4782 -0.1350 -0.6082
  149SAPE   O1416409   2.954   0.707   6.240 -0.4911 -0.5112 -0.1585
  149SAPE   O1216410   2.878   0.494   6.315 -0.1958 -0.0865 -0.1117
  149SAPE   O1116411   2.914   0.670   6.481 -0.1634  0.3263  0.6993
  149SAPE    C116412   2.880   0.807   6.484 -0.7229 -0.8242 -0.1450
  149SAPE    HA16413   2.950   0.868   6.424 -1.3125 -0.3721 -0.3837
  149SAPE    HB16414   2.782   0.818   6.433 -0.3275 -1.1925 -1.0070
  149SAPE    C216415   2.864   0.859   6.630  0.1247 -0.0297  0.0443
  149SAPE    HS16416   2.770   0.918   6.630 -0.0279 -0.2540  0.9625
  149SAPE   O2116417   2.987   0.933   6.674  0.3818 -0.1533 -0.2931
  149SAPE   C2116418   2.966   1.061   6.643 -0.8781 -0.1364  0.1791
  149SAPE   O2216419   2.887   1.106   6.564  0.7216  0.2622  0.2254
  149SAPE   C2216420   3.070   1.152   6.707  0.4595  0.3611 -0.0269
  149SAPE   H2R16421   3.127   1.091   6.780 -1.3087 -0.1811  0.9537
  149SAPE   H2S16422   3.120   1.209   6.626 -0.9134 -1.4775 -2.3524
  149SAPE    C316423   2.831   0.741   6.725  0.0392 -0.0824  0.9290
  149SAPE    HX16424   2.914   0.670   6.709  0.2332  0.7157 -2.2583
  149SAPE    HY16425   2.745   0.690   6.676  0.5604  1.8909 -2.3727
  149SAPE   O3116426   2.811   0.787   6.857  0.0228  0.4099 -0.4564
  149SAPE   C3116427   2.919   0.779   6.941 -0.1492 -0.2111 -0.0688
  149SAPE   O3216428   3.021   0.719   6.917 -0.0605  0.1953  0.2651
  149SAPE   C3216429   2.896   0.867   7.067  0.8815 -0.2839 -0.1330
  149SAPE   H2X16430   2.805   0.826   7.116 -0.0796  0.5974 -1.1096
  149SAPE   H2Y16431   2.873   0.966   7.021  2.6052 -0.0537 -0.5821
  149SAPE   C2316432   2.997   1.269   6.788  0.6457 -0.3459  0.2274
  149SAPE   H3R16433   2.910   1.317   6.740  1.8565 -0.5303 -2.3148
  149SAPE   H3S16434   3.074   1.348   6.801 -0.0045  0.0790  1.6768
  149SAPE   C2416435   2.941   1.217   6.918  0.5311 -0.2001 -0.7611
  149SAPE   H4R16436   3.025   1.174   6.976  1.4114  0.0433 -1.8203
  149SAPE   H4S16437   2.872   1.131   6.903  1.7002 -1.7370  1.9643
  149SAPE   C2516438   2.882   1.320   7.008  0.6309 -0.0778  0.2126
  149SAPE   H5R16439   2.944   1.407   7.036  0.3055  0.1853  0.1206
  149SAPE   C2616440   2.771   1.301   7.082 -0.6642 -0.5996 -0.3845
  149SAPE   H6R16441   2.737   1.382   7.147 -0.2982 -0.3114 -0.5461
  149SAPE   C2716442   2.688   1.177   7.082  0.1925  0.9909 -0.3648
  149SAPE   H7R16443   2.735   1.083   7.117 -2.0199 -0.4364 -1.0132
  149SAPE   H7S16444   2.665   1.148   6.977  1.4366 -0.1210 -0.3505
  149SAPE   C2816445   2.553   1.188   7.149 -0.3264  0.2394  0.1222
  149SAPE   H8R16446   2.475   1.250   7.103 -0.1489 -0.5431 -1.2574
  149SAPE   C2916447   2.511   1.106   7.247  0.4504 -0.2416  0.0513
  149SAPE   H9R16448   2.410   1.124   7.286  0.1768  2.9327 -1.8338
  149SAPE  C21016449   2.579   0.982   7.315  0.3651 -1.1283  0.3778
  149SAPE  H10R16450   2.666   1.020   7.373 -0.1398 -1.9172  1.6964
  149SAPE  H10S16451   2.608   0.910   7.236  1.3432 -0.6832  0.3082
  149SAPE  C21116452   2.478   0.918   7.411 -0.5754  0.0721 -0.1046
  149SAPE  H11R16453   2.415   0.841   7.364 -1.8978  1.2992 -0.4109
  149SAPE  C21216454   2.470   0.923   7.543 -0.1342  0.4585  0.2183
  149SAPE  H12R16455   2.389   0.865   7.590  0.6145 -1.8423 -1.2001
  149SAPE  C21316456   2.555   1.005   7.639  1.3506 -0.2326 -0.1367
  149SAPE  H13R16457   2.656   1.009   7.594  1.0654 -1.1323 -0.8791
  149SAPE  H13S16458   2.567   0.941   7.729  3.8155  0.5839  0.1716
  149SAPE  C21416459   2.522   1.148   7.675 -0.1696  0.1543 -0.1641
  149SAPE  H14R16460   2.565   1.211   7.594  0.4139 -2.7378 -2.2561
  149SAPE  C21516461   2.454   1.203   7.774  0.4205  0.7183 -0.0285
  149SAPE  H15R16462   2.437   1.311   7.770  1.8843  0.9703 -0.2360
  149SAPE  C21616463   2.387   1.129   7.893 -0.0726  0.0018 -0.1860
  149SAPE  H16R16464   2.376   1.020   7.876  0.9206  0.0216 -1.0841
  149SAPE  H16S16465   2.281   1.162   7.886  0.1758  0.5891 -1.7677
  149SAPE  C21716466   2.451   1.148   8.034  0.7782  0.4108  0.5904
  149SAPE  H17R16467   2.471   1.257   8.045 -4.3753  1.7179 -0.6545
  149SAPE  H17S16468   2.556   1.114   8.048  1.2086  1.9639  1.3868
  149SAPE  C21816469   2.356   1.105   8.149  0.3390  0.1889  0.0956
  149SAPE  H18R16470   2.334   0.997   8.137  0.9373 -0.1091  1.5620
  149SAPE  H18S16471   2.269   1.172   8.126  1.0298  0.6244 -1.3949
  149SAPE  C21916472   2.390   1.142   8.296 -0.0451 -0.1202  0.5519
  149SAPE  H19R16473   2.484   1.088   8.323  2.1601  3.2345  0.1962
  149SAPE  H19S16474   2.312   1.101   8.364  0.7210 -0.8129  1.0368
  149SAPE  C22016475   2.405   1.292   8.324 -0.4345  0.0852 -0.1555
  149SAPE  H20R16476   2.314   1.350   8.349  0.0199  1.1155 -0.8510
  149SAPE  H20S16477   2.441   1.351   8.238 -0.0678  0.8231  0.4907
  149SAPE  H20T16478   2.472   1.313   8.411 -0.3302 -1.5761  0.2053
  149SAPE   C3316479   3.009   0.873   7.168  0.3648 -0.0035 -0.1859
  149SAPE   H3X16480   3.107   0.892   7.119  0.5137 -0.1158  0.0677
  149SAPE   H3Y16481   3.038   0.773   7.206 -1.8986 -0.9788 -0.8630
  149SAPE   C3416482   2.983   0.957   7.288 -0.2515  0.2820 -0.1917
  149SAPE   H4X16483   2.887   0.926   7.335  1.6515 -1.9568  2.5852
  149SAPE   H4Y16484   2.980   1.065   7.261  0.5929  0.3014 -0.2431
  149SAPE   C3516485   3.090   0.946   7.402 -0.5387 -0.0517  1.0068
  149SAPE   H5X16486   3.189   0.973   7.361 -1.3410  0.9683 -0.3270
  149SAPE   H5Y16487   3.098   0.841   7.438 -0.2513 -1.8323 -3.6201
  149SAPE   C3616488   3.074   1.034   7.526 -0.3119  0.0194  0.0644
  149SAPE   H6X16489   2.965   1.046   7.545  0.1415  1.1089  2.4152
  149SAPE   H6Y16490   3.122   1.133   7.508 -1.1945  0.3974 -0.2469
  149SAPE   C3716491   3.152   0.994   7.655 -0.0683 -0.0936  0.6095
  149SAPE   H7X16492   3.149   1.086   7.716  0.4089  1.4757 -1.5948
  149SAPE   H7Y16493   3.258   0.968   7.637  0.1202  0.4913  0.8517
  149SAPE   C3816494   3.083   0.876   7.715 -0.5494  0.3372  0.1579
  149SAPE   H8X16495   3.106   0.788   7.651  1.1283  0.4405  0.5473
  149SAPE   H8Y16496   2.973   0.869   7.725 -0.4637 -2.8484 -0.1420
  149SAPE   C3916497   3.154   0.827   7.844 -0.6679  0.4024 -0.0978
  149SAPE   H9X16498   3.255   0.795   7.810 -0.9944 -1.4505  0.5602
  149SAPE   H9Y16499   3.096   0.741   7.884 -2.5176  1.6069 -0.0686
  149SAPE  C31016500   3.161   0.928   7.960  0.5956  0.6525 -0.6181
  149SAPE  H10X16501   3.053   0.949   7.980  0.3082 -1.0333 -0.2970
  149SAPE  H10Y16502   3.191   1.020   7.905  1.2243  0.3230 -0.8266
  149SAPE  C31116503   3.251   0.880   8.074 -0.0912 -0.3055  0.0676
  149SAPE  H11X16504   3.240   0.958   8.153 -0.6030 -0.3713  0.0649
  149SAPE  H11Y16505   3.351   0.884   8.028 -0.3067 -0.8405 -0.4531
  149SAPE  C31216506   3.234   0.748   8.140  0.2426 -0.1611  0.0097
  149SAPE  H12X16507   3.330   0.726   8.191 -0.5537 -0.3290  1.4760
  149SAPE  H12Y16508   3.218   0.668   8.064 -0.7350  1.5474 -1.6607
  149SAPE  C31316509   3.115   0.734   8.243 -0.3299  0.8494  0.5928
  149SAPE  H13X16510   3.022   0.747   8.184  1.1751  1.0500 -1.9086
  149SAPE  H13Y16511   3.133   0.820   8.311  1.3042  0.7360  0.3498
  149SAPE  C31416512   3.118   0.596   8.309 -0.4049 -0.3603 -0.2757
  149SAPE  H14X16513   3.218   0.591   8.356 -0.2157 -0.7279 -0.7155
  149SAPE  H14Y16514   3.111   0.518   8.231 -0.3892  0.7700 -1.4482
  149SAPE  C31516515   3.009   0.584   8.419 -0.0470 -0.0885  0.2965
  149SAPE  H15X16516   2.982   0.476   8.422 -0.7445  0.0978  1.1908
  149SAPE  H15Y16517   2.924   0.633   8.368 -0.2671 -0.8921 -0.1310
  149SAPE  C31616518   3.046   0.646   8.557  0.5147  0.4172  0.3362
  149SAPE  H16X16519   3.099   0.739   8.530  2.1521 -0.0947  1.5726
  149SAPE  H16Y16520   3.126   0.579   8.597  1.5038 -0.0390 -2.2150
  149SAPE  C31716521   2.921   0.659   8.656  0.6839  0.3881  0.7305
  149SAPE  H17X16522   2.963   0.697   8.751  0.0427 -2.5124  2.2700
  149SAPE  H17Y16523   2.870   0.562   8.673 -1.5315  1.0409 -1.5048
  149SAPE  C31816524   2.824   0.753   8.592 -0.2820 -0.3980 -0.3042
  149SAPE  H18X16525   2.867   0.794   8.498  1.2756 -1.0307  0.0992
  149SAPE  H18Y16526   2.791   0.830   8.665  1.9826 -0.5854  1.0119
  149SAPE  H18Z16527   2.729   0.704   8.561 -1.9737  1.7173  1.2334
  150SAPE     N16528   1.755   1.379   6.240  0.4402  0.3944  0.4438
  150SAPE   HN116529   1.658   1.376   6.203  0.8340 -0.8441 -0.5668
  150SAPE   HN216530   1.818   1.358   6.159 -0.3378 -1.4393  0.2426
  150SAPE   HN316531   1.773   1.302   6.308  2.8943  1.0773  0.6609
  150SAPE   C1216532   1.792   1.508   6.300  0.3321  0.4993 -0.0811
  150SAPE  H12A16533   1.775   1.588   6.224 -0.1757  0.3704 -0.1100
  150SAPE  H12B16534   1.902   1.507   6.313  0.5751  1.8285 -1.6777
  150SAPE   C1116535   1.707   1.538   6.424 -0.3590  0.5475  0.3236
  150SAPE  H11A16536   1.747   1.633   6.467  1.1863  0.0701  0.0284
  150SAPE  H11B16537   1.722   1.459   6.500 -1.0633  0.4850  0.4014
  150SAPE     P16538   1.452   1.460   6.440  0.0631 -0.1944  0.6871
  150SAPE   O1316539   1.364   1.422   6.324  0.2543  0.9435 -0.5119
  150SAPE   O1416540   1.512   1.355   6.516  0.5132  0.3820  0.1876
  150SAPE   O1216541   1.566   1.556   6.394  0.1594 -0.0580 -0.1674
  150SAPE   O1116542   1.374   1.559   6.534 -0.3182  0.2176 -0.3385
  150SAPE    C116543   1.335   1.692   6.495  0.0738 -0.3981  0.3339
  150SAPE    HA16544   1.300   1.695   6.390  0.2802 -1.5740  0.2169
  150SAPE    HB16545   1.248   1.721   6.558 -0.3871 -0.8081 -0.1128
  150SAPE    C216546   1.441   1.797   6.525  0.3124 -0.1641  0.0293
  150SAPE    HS16547   1.538   1.762   6.482  0.2733  0.0015 -0.1979
  150SAPE   O2116548   1.442   1.809   6.670  0.4504  0.5132 -1.0341
  150SAPE   C2116549   1.564   1.818   6.721  0.4773  0.2396 -0.8240
  150SAPE   O2216550   1.670   1.847   6.666 -0.2417 -0.8369 -0.2538
  150SAPE   C2216551   1.563   1.783   6.874  0.5795 -0.0829  0.5073
  150SAPE   H2R16552   1.459   1.807   6.901  0.6726 -0.3593  1.1304
  150SAPE   H2S16553   1.570   1.672   6.883 -0.7367 -0.3793 -1.4915
  150SAPE    C316554   1.421   1.939   6.455 -0.1171  0.7549  0.6080
  150SAPE    HX16555   1.312   1.959   6.453 -0.4443 -0.8415  0.8683
  150SAPE    HY16556   1.448   1.929   6.347  0.5686  0.9337  0.7584
  150SAPE   O3116557   1.496   2.039   6.527  0.2997 -1.0686  0.3306
  150SAPE   C3116558   1.431   2.131   6.585 -0.2740  0.2980 -0.5947
  150SAPE   O3216559   1.309   2.140   6.599  0.0526  0.1669  0.2324
  150SAPE   C3216560   1.516   2.237   6.650  0.2164  0.0030  0.2109
  150SAPE   H2X16561   1.450   2.326   6.658 -0.8015 -0.6487 -0.7066
  150SAPE   H2Y16562   1.599   2.270   6.584  0.4284 -0.3517  0.2989
  150SAPE   C2316563   1.663   1.851   6.972 -0.0581 -0.2052  0.5304
  150SAPE   H3R16564   1.623   1.955   6.978  2.1241  0.6541  1.0996
  150SAPE   H3S16565   1.760   1.859   6.919 -0.3141 -1.9105 -0.2634
  150SAPE   C2416566   1.666   1.778   7.106 -0.4751  0.1842  0.0193
  150SAPE   H4R16567   1.756   1.817   7.159 -1.2596  0.7461  0.9609
  150SAPE   H4S16568   1.690   1.670   7.095 -0.1153  0.2882 -0.2376
  150SAPE   C2516569   1.541   1.810   7.193 -0.0837  1.1123 -0.2432
  150SAPE   H5R16570   1.446   1.792   7.141  0.2804  1.1756 -0.9466
  150SAPE   C2616571   1.549   1.832   7.327 -0.4668  0.3680  1.0538
  150SAPE   H6R16572   1.463   1.866   7.387 -1.7751  0.4416 -0.7856
  150SAPE   C2716573   1.680   1.845   7.402  0.1227 -0.4015  0.0765
  150SAPE   H7R16574   1.707   1.953   7.391 -0.2803 -0.5209 -2.5691
  150SAPE   H7S16575   1.760   1.785   7.352 -1.4074 -1.0150 -1.7359
  150SAPE   C2816576   1.674   1.796   7.543  0.3458  0.1868  0.0110
  150SAPE   H8R16577   1.649   1.690   7.555  0.2752  0.2436  0.3995
  150SAPE   C2916578   1.687   1.869   7.663  0.5189 -0.3226 -0.1159
  150SAPE   H9R16579   1.677   1.814   7.758 -0.0851 -1.0454 -0.5893
  150SAPE  C21016580   1.725   2.014   7.673 -0.6484 -0.1854  0.3737
  150SAPE  H10R16581   1.673   2.059   7.586 -2.8856  0.2503  1.8409
  150SAPE  H10S16582   1.836   2.016   7.676 -0.6008 -1.8571  1.5855
  150SAPE  C21116583   1.680   2.076   7.801 -0.7321 -0.4887 -0.6362
  150SAPE  H11R16584   1.584   2.130   7.795 -0.4364  0.3382  1.2257
  150SAPE  C21216585   1.745   2.069   7.915 -0.5763 -0.5072 -0.4524
  150SAPE  H12R16586   1.698   2.114   8.004  2.7106 -0.7252  1.5584
  150SAPE  C21316587   1.878   2.005   7.946 -0.1653  0.5692  0.8619
  150SAPE  H13R16588   1.951   2.074   7.993  1.1646 -0.8439  0.9644
  150SAPE  H13S16589   1.924   1.973   7.850 -0.8408  1.1575  0.3354
  150SAPE  C21416590   1.850   1.883   8.031 -0.3993 -0.0449  0.1921
  150SAPE  H14R16591   1.816   1.793   7.977  4.0264 -1.9510  0.1210
  150SAPE  C21516592   1.885   1.867   8.159 -0.4585  0.0982 -0.1279
  150SAPE  H15R16593   1.865   1.773   8.211  1.9825  0.2110  1.2013
  150SAPE  C21616594   1.961   1.961   8.252  0.3230  0.3917  0.2258
  150SAPE  H16R16595   1.969   2.067   8.220  2.8090 -0.3389 -1.9120
  150SAPE  H16S16596   2.062   1.917   8.265  0.6906  0.4946 -1.9151
  150SAPE  C21716597   1.871   1.965   8.382  0.2505  0.2936  0.1575
  150SAPE  H17R16598   1.926   2.035   8.447 -1.3382  3.0699 -1.2650
  150SAPE  H17S16599   1.863   1.865   8.429 -0.1350  0.1094 -0.2839
  150SAPE  C21816600   1.723   2.011   8.360  0.2757  0.7673 -0.0300
  150SAPE  H18R16601   1.662   1.992   8.452 -0.3043 -2.5069 -0.9432
  150SAPE  H18S16602   1.675   1.944   8.285 -0.1550  0.8962  0.1270
  150SAPE  C21916603   1.707   2.158   8.311  0.2724 -0.1520 -0.5616
  150SAPE  H19R16604   1.768   2.172   8.220 -0.0812 -1.8898 -1.1018
  150SAPE  H19S16605   1.741   2.223   8.394  0.1051 -1.1329  0.2990
  150SAPE  C22016606   1.565   2.191   8.277 -0.9653 -0.3914  0.2012
  150SAPE  H20R16607   1.550   2.170   8.169 -2.8602 -0.5473  0.4559
  150SAPE  H20S16608   1.543   2.297   8.303  1.1468  0.0644  0.3047
  150SAPE  H20T16609   1.494   2.122   8.328 -2.3115 -0.5145 -1.7179
  150SAPE   C3316610   1.545   2.202   6.799  0.1609  0.3779  0.3570
  150SAPE   H3X16611   1.623   2.123   6.802 -1.0944 -0.9046  0.0299
  150SAPE   H3Y16612   1.458   2.165   6.857 -1.9024  2.8086 -0.9575
  150SAPE   C3416613   1.608   2.319   6.867  0.0458 -0.4215 -0.6907
  150SAPE   H4X16614   1.541   2.407   6.882  1.0404  0.4424 -1.1707
  150SAPE   H4Y16615   1.702   2.348   6.816  0.7571 -0.6187  0.4711
  150SAPE   C3516616   1.646   2.272   7.006 -0.1596 -0.5065 -0.5704
  150SAPE   H5X16617   1.730   2.203   6.983  1.2640  0.7835  0.5318
  150SAPE   H5Y16618   1.563   2.220   7.059  0.4441  1.4011  2.5028
  150SAPE   C3616619   1.712   2.380   7.083  0.2849 -0.1618 -0.2991
  150SAPE   H6X16620   1.636   2.457   7.108  0.3371 -0.1619 -0.1398
  150SAPE   H6Y16621   1.801   2.428   7.037  1.8369  0.5975  3.1896
  150SAPE   C3716622   1.762   2.330   7.211  0.1088  0.1035 -0.4366
  150SAPE   H7X16623   1.843   2.254   7.205 -1.7584 -2.2224  1.7875
  150SAPE   H7Y16624   1.668   2.290   7.252  0.1280 -0.6672 -1.1187
  150SAPE   C3816625   1.820   2.435   7.313 -0.3435  0.1972 -0.4429
  150SAPE   H8X16626   1.738   2.509   7.329  1.2322  1.7624  0.6732
  150SAPE   H8Y16627   1.905   2.489   7.265  1.0867 -0.9103  0.7802
  150SAPE   C3916628   1.850   2.365   7.445  0.0988  0.0443  0.3078
  150SAPE   H9X16629   1.926   2.285   7.429 -0.3615 -0.2148 -0.6430
  150SAPE   H9Y16630   1.758   2.312   7.478 -0.0306 -0.2491 -0.5120
  150SAPE  C31016631   1.882   2.464   7.559  0.2061  1.0075 -0.4697
  150SAPE  H10X16632   1.782   2.502   7.588 -0.1769 -0.8517  0.8327
  150SAPE  H10Y16633   1.940   2.555   7.531  1.5915  0.6555  1.0647
  150SAPE  C31116634   1.923   2.411   7.696  0.2614 -0.0538  0.4997
  150SAPE  H11X16635   2.026   2.370   7.689  0.5181  0.6627 -0.0439
  150SAPE  H11Y16636   1.851   2.330   7.723 -0.9086  0.2751 -1.4020
  150SAPE  C31216637   1.911   2.514   7.811 -0.3371  0.4169  0.2312
  150SAPE  H12X16638   1.813   2.563   7.790  0.1887  1.1646 -0.5587
  150SAPE  H12Y16639   1.986   2.595   7.797 -2.3532  2.5831  1.1858
  150SAPE  C31316640   1.924   2.445   7.945 -0.0813 -0.4961  0.2590
  150SAPE  H13X16641   2.017   2.384   7.948 -0.6889 -1.4327  0.5357
  150SAPE  H13Y16642   1.843   2.371   7.964 -1.2784 -0.7034 -4.3815
  150SAPE  C31416643   1.927   2.554   8.061 -0.2312 -0.1266  0.1276
  150SAPE  H14X16644   1.860   2.631   8.019 -0.7842 -0.0050  1.2142
  150SAPE  H14Y16645   2.029   2.600   8.063 -0.8782  1.3448  1.3275
  150SAPE  C31516646   1.887   2.506   8.202 -0.4502  1.2924  0.5340
  150SAPE  H15X16647   1.941   2.415   8.237 -1.5427  0.0811 -0.7647
  150SAPE  H15Y16648   1.780   2.474   8.200 -0.6045  1.7553  1.1391
  150SAPE  C31616649   1.905   2.625   8.299  0.2583  0.7325  0.2042
  150SAPE  H16X16650   1.840   2.711   8.269  0.2899  0.1276 -1.7603
  150SAPE  H16Y16651   2.014   2.645   8.300  0.5603 -0.8300  0.5094
  150SAPE  C31716652   1.877   2.596   8.446 -0.2906 -0.2656 -1.1258
  150SAPE  H17X16653   1.925   2.674   8.510  1.0804 -1.4439 -0.6335
  150SAPE  H17Y16654   1.922   2.500   8.481 -0.0690  0.5476  1.0016
  150SAPE  C31816655   1.727   2.596   8.477  1.0288  0.2606  0.4736
  150SAPE  H18X16656   1.678   2.696   8.470  0.3772 -0.0373  0.6954
  150SAPE  H18Y16657   1.701   2.565   8.580 -0.2484 -0.1635  0.0402
  150SAPE  H18Z16658   1.671   2.529   8.409 -0.6286  1.8391  0.1979
  151SAPE     N16659   3.210   2.025   5.985 -0.0234 -0.1849  0.0900
  151SAPE   HN116660   3.135   2.090   5.953 -2.2968 -2.4230  0.5691
  151SAPE   HN216661   3.247   2.056   6.077 -1.4196 -1.9107  1.3051
  151SAPE   HN316662   3.292   2.033   5.922  0.3277  1.1717  0.6587
  151SAPE   C1216663   3.157   1.883   5.988  0.0149 -0.8799 -0.2330
  151SAPE  H12A16664   3.241   1.822   6.027  0.2996  0.7352  1.8508
  151SAPE  H12B16665   3.127   1.856   5.884 -2.1516  2.4684 -0.6552
  151SAPE   C1116666   3.033   1.864   6.074 -0.1437  0.2760  0.0157
  151SAPE  H11A16667   2.994   1.760   6.070 -0.6612  0.4967 -1.4116
  151SAPE  H11B16668   2.949   1.924   6.032 -0.8548  0.5000  1.6943
  151SAPE     P16669   2.932   1.938   6.299 -0.1891 -0.0224  0.5422
  151SAPE   O1316670   2.969   1.947   6.441 -0.4509 -0.2649  0.5606
  151SAPE   O1416671   2.876   2.059   6.233  0.0837 -0.2182  0.2552
  151SAPE   O1216672   3.065   1.887   6.212  0.4647 -0.0463 -0.5275
  151SAPE   O1116673   2.830   1.822   6.284 -0.7556  1.2667 -0.1300
  151SAPE    C116674   2.873   1.687   6.306  0.5164 -0.7638 -0.3733
  151SAPE    HA16675   2.832   1.631   6.219 -2.1665 -1.1975  1.0658
  151SAPE    HB16676   2.982   1.672   6.321  0.6510  0.9901  0.5515
  151SAPE    C216677   2.800   1.635   6.434 -0.8549 -0.0217 -0.3791
  151SAPE    HS16678   2.692   1.660   6.426 -0.8571  1.1150  2.1410
  151SAPE   O2116679   2.864   1.704   6.547 -0.8032  0.5773  0.0364
  151SAPE   C2116680   2.776   1.740   6.644 -0.3146  0.2759  0.1971
  151SAPE   O2216681   2.654   1.732   6.645 -0.2131 -0.6626 -0.1344
  151SAPE   C2216682   2.869   1.805   6.748  0.8596  0.3779  0.1959
  151SAPE   H2R16683   2.945   1.867   6.695 -1.2188  1.7321 -1.3457
  151SAPE   H2S16684   2.805   1.888   6.783  0.8614  0.4475  0.0358
  151SAPE    C316685   2.807   1.480   6.439 -0.5542  0.4347  0.4957
  151SAPE    HX16686   2.916   1.463   6.440 -0.4868  0.8484  0.7167
  151SAPE    HY16687   2.755   1.428   6.356 -1.2764  1.8250  0.0409
  151SAPE   O3116688   2.767   1.433   6.571 -0.2970 -0.1442 -0.0773
  151SAPE   C3116689   2.645   1.389   6.572  0.3684 -0.7776 -0.0427
  151SAPE   O3216690   2.563   1.415   6.485 -0.3130  0.1412 -0.3375
  151SAPE   C3216691   2.620   1.307   6.703 -0.3777  0.0084 -0.1997
  151SAPE   H2X16692   2.691   1.339   6.782 -0.8167 -0.0759  0.2396
  151SAPE   H2Y16693   2.641   1.203   6.670 -0.3267 -0.2765  0.7111
  151SAPE   C2316694   2.910   1.707   6.852  0.1571  0.1328  0.0074
  151SAPE   H3R16695   2.961   1.619   6.808 -0.1654 -0.1828  0.2547
  151SAPE   H3S16696   2.815   1.672   6.899 -0.4830  0.6155 -0.9075
  151SAPE   C2416697   3.004   1.772   6.960  0.5538  0.2650  0.7673
  151SAPE   H4R16698   2.959   1.861   7.009  0.0474 -0.9104  2.5600
  151SAPE   H4S16699   3.089   1.814   6.903  1.3003  0.1018  1.7452
  151SAPE   C2516700   3.058   1.672   7.054  0.5045  0.1025  0.2063
  151SAPE   H5R16701   3.150   1.630   7.011  0.7532  1.5589 -0.7742
  151SAPE   C2616702   3.032   1.639   7.181  0.0405 -0.6374  0.4492
  151SAPE   H6R16703   3.099   1.572   7.237  1.7337 -0.2282 -0.9894
  151SAPE   C2716704   2.915   1.696   7.248 -0.1677 -0.5082 -0.5400
  151SAPE   H7R16705   2.825   1.650   7.201 -0.0440 -0.8375 -0.4599
  151SAPE   H7S16706   2.899   1.801   7.216 -2.0540 -0.1246  1.4487
  151SAPE   C2816707   2.931   1.709   7.396 -0.1868 -0.3455 -0.5923
  151SAPE   H8R16708   2.985   1.802   7.419  0.6360 -0.7996 -0.6377
  151SAPE   C2916709   2.881   1.622   7.488  0.4091 -0.1543  0.0675
  151SAPE   H9R16710   2.906   1.637   7.594 -0.7039  0.6764  0.2249
  151SAPE  C21016711   2.809   1.482   7.466 -0.0448 -0.8265  0.1425
  151SAPE  H10R16712   2.866   1.413   7.401 -0.3983 -0.6987 -0.3086
  151SAPE  H10S16713   2.719   1.498   7.403 -0.1168  1.6548  0.7937
  151SAPE  C21116714   2.776   1.404   7.589 -0.1135  0.3916 -0.5922
  151SAPE  H11R16715   2.667   1.389   7.597 -0.5697  1.4896 -3.5230
  151SAPE  C21216716   2.857   1.357   7.685  0.4740 -0.0251  0.1139
  151SAPE  H12R16717   2.810   1.305   7.769 -0.7416  0.8530 -0.0014
  151SAPE  C21316718   3.009   1.373   7.695 -1.1719  0.3808 -0.2823
  151SAPE  H13R16719   3.044   1.385   7.590 -4.0131 -0.5203 -1.4254
  151SAPE  H13S16720   3.055   1.275   7.718 -1.9606 -0.2988 -1.5114
  151SAPE  C21416721   3.053   1.484   7.781 -0.0256 -0.8991 -0.4389
  151SAPE  H14R16722   3.059   1.583   7.732 -1.3069 -0.8289 -0.4906
  151SAPE  C21516723   3.076   1.481   7.915 -0.3699  0.4107 -0.3619
  151SAPE  H15R16724   3.138   1.556   7.966  1.3975 -0.7126 -0.7604
  151SAPE  C21616725   3.056   1.353   7.993 -0.0880  0.7796  0.4479
  151SAPE  H16R16726   3.154   1.342   8.044  0.0624  2.2742  0.5289
  151SAPE  H16S16727   3.047   1.261   7.931 -2.6832  0.5565  1.0295
  151SAPE  C21716728   2.933   1.363   8.085  0.2922  0.5275 -0.3833
  151SAPE  H17R16729   2.850   1.374   8.013 -0.3538  0.8599  0.3902
  151SAPE  H17S16730   2.940   1.455   8.149 -2.0564 -0.2480  1.1003
  151SAPE  C21816731   2.913   1.231   8.161 -0.7415  0.2469  0.5186
  151SAPE  H18R16732   2.909   1.140   8.098 -3.0877  0.5356  0.1645
  151SAPE  H18S16733   2.810   1.231   8.203 -1.0097 -2.0386  0.0044
  151SAPE  C21916734   3.029   1.218   8.260  0.5178 -0.1505  0.1592
  151SAPE  H19R16735   3.068   1.314   8.301  0.3462  0.1019 -0.2577
  151SAPE  H19S16736   3.119   1.181   8.206  1.3186  1.3874  0.3768
  151SAPE  C22016737   3.001   1.124   8.374 -0.3546  0.0799  0.0278
  151SAPE  H20R16738   3.080   1.134   8.452  0.9626 -0.0071 -1.2403
  151SAPE  H20S16739   2.916   1.179   8.418 -1.1716  0.2268 -1.6452
  151SAPE  H20T16740   2.981   1.022   8.335  0.3125 -0.4429  1.0109
  151SAPE   C3316741   2.466   1.304   6.751 -0.3687  0.4328 -0.0814
  151SAPE   H3X16742   2.455   1.230   6.833  2.6679 -2.0486 -1.6872
  151SAPE   H3Y16743   2.413   1.253   6.668 -1.7489 -1.7498  2.0100
  151SAPE   C3416744   2.424   1.445   6.785 -0.1578 -0.1345  0.3210
  151SAPE   H4X16745   2.314   1.447   6.801 -0.3289 -0.5021 -0.7122
  151SAPE   H4Y16746   2.448   1.503   6.694  4.1915 -0.9561  0.7523
  151SAPE   C3516747   2.488   1.509   6.903  0.8224  0.1204 -0.1961
  151SAPE   H5X16748   2.599   1.516   6.900  0.9415 -1.6242 -1.3421
  151SAPE   H5Y16749   2.464   1.439   6.986  0.0834 -2.2740 -2.3234
  151SAPE   C3616750   2.419   1.642   6.933  0.3896  0.3424 -0.0353
  151SAPE   H6X16751   2.310   1.623   6.944  0.3092  1.8378  2.6914
  151SAPE   H6Y16752   2.434   1.705   6.843 -0.5076  1.7046  0.7343
  151SAPE   C3716753   2.477   1.714   7.053 -0.5269 -0.0288  1.1039
  151SAPE   H7X16754   2.418   1.808   7.055 -0.1749  0.2331 -0.1955
  151SAPE   H7Y16755   2.582   1.746   7.041 -0.7120  0.5952  1.1275
  151SAPE   C3816756   2.458   1.641   7.185  0.6411 -0.1787 -0.2317
  151SAPE   H8X16757   2.500   1.538   7.184  1.1195 -0.0769  2.1139
  151SAPE   H8Y16758   2.349   1.622   7.197  1.2664 -2.8058  2.2853
  151SAPE   C3916759   2.505   1.723   7.302  0.4516  0.0880  0.0645
  151SAPE   H9X16760   2.471   1.829   7.294 -0.8529 -0.1762  1.5048
  151SAPE   H9Y16761   2.615   1.729   7.308  0.4343  0.2889  0.2320
  151SAPE  C31016762   2.455   1.669   7.434  0.4313  0.1318 -0.6877
  151SAPE  H10X16763   2.470   1.559   7.445 -1.0179 -0.0138  0.0088
  151SAPE  H10Y16764   2.345   1.682   7.437  0.0390 -2.4118 -1.4633
  151SAPE  C31116765   2.520   1.735   7.557 -0.1563  0.5739  0.1378
  151SAPE  H11X16766   2.493   1.841   7.573 -0.5399  0.3907  0.7197
  151SAPE  H11Y16767   2.628   1.747   7.532 -0.7832  3.4465 -1.6701
  151SAPE  C31216768   2.502   1.651   7.688  0.5784  1.0723 -0.2635
  151SAPE  H12X16769   2.497   1.545   7.656  2.0872  0.8132  0.2908
  151SAPE  H12Y16770   2.406   1.682   7.735 -0.6529  0.0678 -2.0288
  151SAPE  C31316771   2.632   1.651   7.777 -0.0386 -0.0826  0.2612
  151SAPE  H13X16772   2.641   1.749   7.829  4.5868  0.4698 -1.1812
  151SAPE  H13Y16773   2.727   1.634   7.723 -0.6935 -0.7556 -0.7238
  151SAPE  C31416774   2.635   1.540   7.894  0.1695 -0.1611 -0.2880
  151SAPE  H14X16775   2.734   1.560   7.940 -0.6978 -0.9640  2.0833
  151SAPE  H14Y16776   2.631   1.433   7.865  2.0619 -0.6078  0.9300
  151SAPE  C31516777   2.528   1.561   8.007  0.2981 -0.7071  0.3267
  151SAPE  H15X16778   2.544   1.488   8.089  0.9107  1.1949  1.9780
  151SAPE  H15Y16779   2.430   1.549   7.957  1.0485  2.0948 -2.0926
  151SAPE  C31616780   2.523   1.702   8.065 -0.6840 -0.4013 -0.1992
  151SAPE  H16X16781   2.497   1.780   7.990 -0.4580 -1.7770 -1.7690
  151SAPE  H16Y16782   2.624   1.726   8.105 -0.2951 -2.2324  0.0055
  151SAPE  C31716783   2.423   1.706   8.179  0.1912 -1.0937  0.1079
  151SAPE  H17X16784   2.443   1.647   8.271 -0.0715  0.2961  1.0883
  151SAPE  H17Y16785   2.326   1.679   8.131  0.5972 -0.4432 -1.0964
  151SAPE  C31816786   2.400   1.856   8.231  0.1397 -0.4468  0.1963
  151SAPE  H18X16787   2.494   1.875   8.287  0.1786 -1.3550  0.4403
  151SAPE  H18Y16788   2.314   1.869   8.300 -1.4454  0.1202 -1.7469
  151SAPE  H18Z16789   2.391   1.925   8.143 -0.3923 -1.2699 -0.4089
  152SAPE     N16790   6.455   1.423   6.170 -0.1977  0.0299  0.0852
  152SAPE   HN116791   6.438   1.322   6.188  0.2544 -0.3625 -1.5156
  152SAPE   HN216792   6.364   1.461   6.138 -0.1298  0.8688  0.8603
  152SAPE   HN316793   6.527   1.434   6.096  2.3167 -3.5180  1.7520
  152SAPE   C1216794   6.500   1.481   6.299 -0.3150 -0.4108  0.0249
  152SAPE  H12A16795   6.565   1.568   6.273 -1.0191 -0.3690 -1.7055
  152SAPE  H12B16796   6.563   1.411   6.357  0.6836  0.3512 -0.1048
  152SAPE   C1116797   6.378   1.533   6.374  0.3038  0.5296  0.1391
  152SAPE  H11A16798   6.402   1.591   6.465 -0.7899  3.2399 -1.1716
  152SAPE  H11B16799   6.314   1.446   6.400 -1.3375  2.0926  1.6248
  152SAPE     P16800   6.239   1.758   6.304  0.1740  0.6452  0.1124
  152SAPE   O1316801   6.350   1.853   6.292 -0.4892  0.5020  0.3778
  152SAPE   O1416802   6.130   1.765   6.205  0.0624  0.1758  0.7169
  152SAPE   O1216803   6.298   1.615   6.290  0.3231  0.1960  0.0386
  152SAPE   O1116804   6.189   1.744   6.450 -0.0525 -0.4568  0.2864
  152SAPE    C116805   6.066   1.672   6.474 -0.3306  0.0861  1.2651
  152SAPE    HA16806   6.037   1.601   6.393 -3.1833  1.9879  0.4770
  152SAPE    HB16807   6.078   1.618   6.571  0.2960 -1.1401  0.5348
  152SAPE    C216808   5.948   1.771   6.484 -0.0059 -0.0384 -0.2765
  152SAPE    HS16809   5.974   1.840   6.401  1.9609 -2.1531 -1.5344
  152SAPE   O2116810   5.960   1.827   6.622 -0.5569  0.0741  0.0712
  152SAPE   C2116811   5.890   1.938   6.637 -0.6967 -0.7235  0.5241
  152SAPE   O2216812   5.814   1.987   6.553  0.2968  0.2332  0.2177
  152SAPE   C2216813   5.921   2.004   6.774  0.2704 -0.4069 -0.4302
  152SAPE   H2R16814   6.003   1.944   6.819  0.0021 -1.4847 -1.3386
  152SAPE   H2S16815   5.962   2.107   6.770 -0.3318 -0.1048  0.7000
  152SAPE    C316816   5.813   1.699   6.473 -0.5527  0.2401 -0.2635
  152SAPE    HX16817   5.816   1.658   6.369 -1.9738  0.1835 -0.2979
  152SAPE    HY16818   5.722   1.763   6.474 -0.0504  1.1129  3.3058
  152SAPE   O3116819   5.807   1.593   6.576 -0.2881 -0.4047  1.3791
  152SAPE   C3116820   5.748   1.638   6.689  0.2181 -0.1637 -0.2316
  152SAPE   O3216821   5.686   1.742   6.701 -0.3937 -0.2120  0.1426
  152SAPE   C3216822   5.760   1.534   6.802  0.3283  0.1419  0.3171
  152SAPE   H2X16823   5.849   1.473   6.775 -0.0910 -0.1614 -0.4027
  152SAPE   H2Y16824   5.676   1.462   6.804 -0.0757  0.6011  2.8817
  152SAPE   C2316825   5.797   2.028   6.872 -0.4394  0.8131  0.5089
  152SAPE   H3R16826   5.753   1.927   6.887 -0.8517  1.0910  1.1865
  152SAPE   H3S16827   5.718   2.087   6.820  0.4321  1.6279  0.0773
  152SAPE   C2416828   5.821   2.088   7.008 -0.5405 -0.1319 -0.5734
  152SAPE   H4R16829   5.721   2.091   7.058 -0.1678  0.0046  0.1731
  152SAPE   H4S16830   5.845   2.196   6.998 -0.9587 -0.1201 -1.5885
  152SAPE   C2516831   5.936   2.016   7.087 -0.1798  0.7171  0.9346
  152SAPE   H5R16832   6.032   2.012   7.032 -0.3819  2.1645  0.4353
  152SAPE   C2616833   5.918   1.943   7.195 -0.2317 -0.4609  0.0071
  152SAPE   H6R16834   6.013   1.904   7.234  0.0575  1.9690  2.0171
  152SAPE   C2716835   5.792   1.923   7.281 -0.1743  0.4374  0.8920
  152SAPE   H7R16836   5.714   1.989   7.237  2.0396  1.4749 -1.7492
  152SAPE   H7S16837   5.809   1.948   7.388  1.6979  0.8454  0.5291
  152SAPE   C2816838   5.747   1.778   7.271  0.9704 -0.2307  0.4775
  152SAPE   H8R16839   5.684   1.767   7.182 -0.4224  2.2202  1.0620
  152SAPE   C2916840   5.764   1.675   7.354 -0.1891  0.4728 -0.9400
  152SAPE   H9R16841   5.725   1.575   7.333 -0.4214  0.5955 -1.1068
  152SAPE  C21016842   5.848   1.686   7.479  0.9985  0.2205  0.9580
  152SAPE  H10R16843   5.815   1.778   7.531  2.1101 -0.5935  3.2301
  152SAPE  H10S16844   5.950   1.715   7.446  0.9735  2.6426  2.7569
  152SAPE  C21116845   5.849   1.564   7.571 -0.6226 -0.0381 -0.7375
  152SAPE  H11R16846   5.934   1.496   7.560 -1.4438 -0.9687 -1.4881
  152SAPE  C21216847   5.761   1.542   7.672 -0.4211 -0.2848  0.1047
  152SAPE  H12R16848   5.769   1.467   7.752 -1.9525  1.5827  2.1213
  152SAPE  C21316849   5.648   1.639   7.703  0.1024 -0.6832 -0.5326
  152SAPE  H13R16850   5.563   1.589   7.754 -1.3027  2.9384  1.0358
  152SAPE  H13S16851   5.604   1.677   7.607  0.7174  1.3932 -0.0417
  152SAPE  C21416852   5.701   1.745   7.795 -0.3992  0.3607 -0.5851
  152SAPE  H14R16853   5.733   1.843   7.755 -0.2429  0.7449  0.4433
  152SAPE  C21516854   5.718   1.723   7.928 -0.1195  0.2621  0.0349
  152SAPE  H15R16855   5.752   1.808   7.989 -1.6391  1.1490 -0.3190
  152SAPE  C21616856   5.684   1.591   8.000 -0.4500  0.5554 -0.1485
  152SAPE  H16R16857   5.783   1.541   8.006  0.8526  3.0083  0.5165
  152SAPE  H16S16858   5.612   1.531   7.940 -0.1332 -0.6639  0.6533
  152SAPE  C21716859   5.640   1.615   8.151  1.1502 -0.6590  0.5744
  152SAPE  H17R16860   5.628   1.518   8.204 -0.4948 -1.1093 -0.5364
  152SAPE  H17S16861   5.543   1.668   8.162  0.9839 -0.2755 -2.0944
  152SAPE  C21816862   5.756   1.679   8.229 -0.4737 -0.0166 -0.0130
  152SAPE  H18R16863   5.778   1.778   8.186  0.9099  1.0224  2.8499
  152SAPE  H18S16864   5.844   1.611   8.224 -0.0229  0.5966 -0.5450
  152SAPE  C21916865   5.720   1.706   8.371 -0.4024  0.0123  0.1036
  152SAPE  H19R16866   5.686   1.621   8.434  0.8092  1.3327  2.7031
  152SAPE  H19S16867   5.631   1.773   8.372 -1.1480 -0.9487  0.6412
  152SAPE  C22016868   5.833   1.774   8.443 -0.4713  0.0876  0.2607
  152SAPE  H20R16869   5.814   1.778   8.552  0.0101  0.9769  0.3239
  152SAPE  H20S16870   5.840   1.876   8.399 -0.0023  0.2300  0.6553
  152SAPE  H20T16871   5.924   1.711   8.435 -0.6196  0.1114 -2.4977
  152SAPE   C3316872   5.780   1.584   6.942 -1.0433  0.2351  0.2727
  152SAPE   H3X16873   5.791   1.487   6.995  0.1331 -1.1967 -2.4008
  152SAPE   H3Y16874   5.686   1.628   6.983  0.0275  1.7335  1.2077
  152SAPE   C3416875   5.903   1.675   6.959  0.4705  0.4498 -0.4752
  152SAPE   H4X16876   5.906   1.711   7.064 -0.7382  0.4572 -0.4293
  152SAPE   H4Y16877   5.907   1.760   6.888  0.0175  0.2081 -0.7958
  152SAPE   C3516878   6.031   1.594   6.953 -0.5757 -0.1860 -0.0204
  152SAPE   H5X16879   6.061   1.571   6.849 -1.0042 -0.6626 -0.0457
  152SAPE   H5Y16880   6.008   1.488   6.978  1.7623 -1.2132 -1.8048
  152SAPE   C3616881   6.144   1.659   7.036 -0.4458  0.7071 -0.1528
  152SAPE   H6X16882   6.098   1.664   7.137 -0.4302  3.7607 -0.2004
  152SAPE   H6Y16883   6.162   1.767   7.013  0.4471  0.4279 -0.8285
  152SAPE   C3716884   6.267   1.573   7.051  0.0530 -0.9965  0.0108
  152SAPE   H7X16885   6.335   1.587   6.964 -1.6013  2.2124 -0.9213
  152SAPE   H7Y16886   6.242   1.465   7.054 -1.0417 -0.8179 -1.5362
  152SAPE   C3816887   6.331   1.607   7.185  0.6755  0.1656  0.7965
  152SAPE   H8X16888   6.266   1.587   7.272 -0.3095 -0.1200  0.0159
  152SAPE   H8Y16889   6.352   1.716   7.184  1.6422  0.0828 -2.9141
  152SAPE   C3916890   6.443   1.505   7.207 -0.1827 -0.5675 -0.5220
  152SAPE   H9X16891   6.501   1.484   7.114  0.4212 -0.4562 -0.1780
  152SAPE   H9Y16892   6.390   1.413   7.241  0.7355 -0.3874  1.5358
  152SAPE  C31016893   6.549   1.551   7.313 -0.1711  0.2225  0.0647
  152SAPE  H10X16894   6.610   1.629   7.263 -0.2595 -0.6818 -1.5154
  152SAPE  H10Y16895   6.612   1.461   7.330  1.5719  0.9514 -2.0945
  152SAPE  C31116896   6.499   1.598   7.452  0.1803 -0.1177 -0.5419
  152SAPE  H11X16897   6.422   1.674   7.429 -0.8575 -0.7912  0.6250
  152SAPE  H11Y16898   6.579   1.642   7.515 -0.3983 -0.8790  0.7565
  152SAPE  C31216899   6.428   1.497   7.548 -0.0849 -0.4176  0.1864
  152SAPE  H12X16900   6.500   1.422   7.588 -0.2137  0.2300  1.7011
  152SAPE  H12Y16901   6.358   1.440   7.483  1.5246 -1.1518 -0.9846
  152SAPE  C31316902   6.362   1.564   7.676  0.0935  0.6589  0.3195
  152SAPE  H13X16903   6.354   1.674   7.670  2.1711  0.8523  0.4474
  152SAPE  H13Y16904   6.437   1.536   7.754  0.5048  0.3514 -0.1803
  152SAPE  C31416905   6.225   1.504   7.702  0.8868 -0.7323 -0.4728
  152SAPE  H14X16906   6.242   1.400   7.736  0.2372 -0.6963 -0.0213
  152SAPE  H14Y16907   6.177   1.510   7.602 -2.1510  0.9640  0.9759
  152SAPE  C31516908   6.131   1.567   7.798  0.5816 -0.3229  0.2405
  152SAPE  H15X16909   6.044   1.497   7.803 -1.0556  1.4855 -1.1446
  152SAPE  H15Y16910   6.079   1.661   7.768 -1.9410 -0.4880  3.5248
  152SAPE  C31616911   6.195   1.586   7.935 -0.0606  0.3559 -0.2220
  152SAPE  H16X16912   6.272   1.666   7.929  0.1025  0.2182 -0.0025
  152SAPE  H16Y16913   6.252   1.494   7.960 -0.4185  0.2365  0.1696
  152SAPE  C31716914   6.098   1.621   8.052 -0.5818 -0.0934  0.8484
  152SAPE  H17X16915   6.041   1.528   8.076  0.4313 -0.4285  2.0069
  152SAPE  H17Y16916   6.021   1.686   8.007  0.4110  1.3341  1.1665
  152SAPE  C31816917   6.160   1.679   8.179 -0.0921  0.6057 -0.2295
  152SAPE  H18X16918   6.228   1.601   8.221 -2.2840 -1.3177 -0.0273
  152SAPE  H18Y16919   6.075   1.702   8.246 -0.7793  1.7478 -1.4407
  152SAPE  H18Z16920   6.225   1.764   8.150 -0.8463  0.7154 -1.6982
  153SAPE     N16921   3.334   0.486   6.217  0.2953 -0.6800  0.0469
  153SAPE   HN116922   3.328   0.551   6.137  3.7148 -1.9165 -1.3978
  153SAPE   HN216923   3.265   0.511   6.291 -0.4102  0.3131 -0.9298
  153SAPE   HN316924   3.432   0.470   6.248  0.6644  0.3098 -0.5868
  153SAPE   C1216925   3.300   0.350   6.154  0.3148 -0.4443 -0.4904
  153SAPE  H12A16926   3.341   0.327   6.053 -1.1219 -0.8455 -1.0029
  153SAPE  H12B16927   3.190   0.353   6.140  0.5935 -0.2030 -3.0676
  153SAPE   C1116928   3.351   0.247   6.256 -0.1433 -0.3679  0.3138
  153SAPE  H11A16929   3.297   0.263   6.351 -1.6080  2.5572 -0.9023
  153SAPE  H11B16930   3.457   0.256   6.288  0.0438  0.6637 -0.5532
  153SAPE     P16931   3.184   0.053   6.169 -0.0155 -0.4801 -0.0070
  153SAPE   O1316932   3.124   0.118   6.051 -0.2220 -0.5270 -0.4426
  153SAPE   O1416933   3.212  -0.092   6.152  0.1814 -0.7612 -0.0392
  153SAPE   O1216934   3.323   0.115   6.208  0.6067  0.1969  0.3978
  153SAPE   O1116935   3.102   0.078   6.302  0.0287 -0.0242  0.3888
  153SAPE    C116936   3.074  -0.035   6.388 -0.0342  0.1505  0.5934
  153SAPE    HA16937   2.978  -0.026   6.444  0.3799 -2.4231  1.9000
  153SAPE    HB16938   3.055  -0.133   6.340  1.4603 -0.3362  0.9457
  153SAPE    C216939   3.175  -0.030   6.503 -0.0364 -0.8880 -0.3786
  153SAPE    HS16940   3.137  -0.092   6.586 -0.1051  1.4153  1.4127
  153SAPE   O2116941   3.199   0.104   6.545  0.1788 -0.5028  0.1914
  153SAPE   C2116942   3.109   0.159   6.613  0.0233 -0.1880  1.0668
  153SAPE   O2216943   2.997   0.114   6.633 -0.3714  0.0861  0.0199
  153SAPE   C2216944   3.148   0.299   6.659  0.3949  1.0648 -0.6090
  153SAPE   H2R16945   3.148   0.352   6.561 -0.7613 -0.0645 -1.2608
  153SAPE   H2S16946   3.067   0.343   6.721  0.0808  1.1026 -1.0434
  153SAPE    C316947   3.313  -0.087   6.470 -0.0552 -0.2337 -0.3995
  153SAPE    HX16948   3.370  -0.015   6.407 -2.0777  1.6348 -0.2355
  153SAPE    HY16949   3.288  -0.178   6.411 -4.0445 -1.4656  2.7181
  153SAPE   O3116950   3.385  -0.113   6.596  0.1312  0.4293 -0.0589
  153SAPE   C3116951   3.436  -0.230   6.605  0.0939 -0.2777 -0.3356
  153SAPE   O3216952   3.413  -0.328   6.537  0.5455  0.0105 -0.3177
  153SAPE   C3216953   3.544  -0.235   6.715 -0.1817  0.0668  0.3760
  153SAPE   H2X16954   3.486  -0.261   6.807  1.0090 -1.3845  0.7429
  153SAPE   H2Y16955   3.602  -0.141   6.712 -1.1193  0.6500 -0.1253
  153SAPE   C2316956   3.284   0.301   6.729 -0.1294 -0.1818  0.0340
  153SAPE   H3R16957   3.326   0.403   6.714  1.4198 -0.9659 -1.3796
  153SAPE   H3S16958   3.362   0.238   6.681  0.1949 -0.2735  0.6764
  153SAPE   C2416959   3.268   0.272   6.879  0.5036 -0.5940  0.3387
  153SAPE   H4R16960   3.235   0.166   6.889 -2.5044 -0.0173 -1.9189
  153SAPE   H4S16961   3.185   0.327   6.929  0.4483 -0.2254 -0.1578
  153SAPE   C2516962   3.398   0.302   6.956 -0.1821  0.1630 -0.4475
  153SAPE   H5R16963   3.488   0.307   6.894 -0.2042 -0.1872 -0.5104
  153SAPE   C2616964   3.408   0.327   7.087 -0.1489 -0.2168  0.3707
  153SAPE   H6R16965   3.507   0.341   7.131 -0.8873 -1.2002  2.5043
  153SAPE   C2716966   3.296   0.325   7.190  0.0501  0.2365  0.0274
  153SAPE   H7R16967   3.202   0.277   7.153 -0.9600  1.5993  0.7300
  153SAPE   H7S16968   3.275   0.428   7.225 -1.7830 -0.7079  1.9248
  153SAPE   C2816969   3.345   0.252   7.307  0.4171  0.3744 -0.9816
  153SAPE   H8R16970   3.355   0.144   7.288  0.4805  0.5904 -2.2266
  153SAPE   C2916971   3.370   0.302   7.424 -0.4534 -0.4508  0.1556
  153SAPE   H9R16972   3.393   0.230   7.505 -2.1211 -0.3368  0.7760
  153SAPE  C21016973   3.372   0.453   7.460 -0.3107  0.7751  0.0578
  153SAPE  H10R16974   3.387   0.515   7.368  0.7968  0.3672 -0.0387
  153SAPE  H10S16975   3.470   0.457   7.511 -0.6683 -0.7373  0.9113
  153SAPE  C21116976   3.260   0.487   7.556 -0.1780  0.3473  0.1797
  153SAPE  H11R16977   3.167   0.511   7.502 -0.0581  1.1118  0.3009
  153SAPE  C21216978   3.266   0.494   7.687  0.1272 -0.0668 -0.2491
  153SAPE  H12R16979   3.184   0.530   7.750 -0.4126 -1.8047  0.1008
  153SAPE  C21316980   3.395   0.463   7.755 -0.0298  0.1117  0.0952
  153SAPE  H13R16981   3.488   0.517   7.727 -0.1950 -0.6139 -2.0359
  153SAPE  H13S16982   3.422   0.357   7.735  0.2765  0.1268  0.4187
  153SAPE  C21416983   3.369   0.472   7.904 -0.3359  0.4720 -0.2725
  153SAPE  H14R16984   3.410   0.565   7.946  1.2234  0.0787 -0.8291
  153SAPE  C21516985   3.309   0.384   7.990  0.2189 -0.0651 -0.1807
  153SAPE  H15R16986   3.288   0.405   8.095 -1.1443 -0.6781 -0.3170
  153SAPE  C21616987   3.271   0.243   7.947  0.9984  0.4534 -0.0674
  153SAPE  H16R16988   3.249   0.251   7.839  3.2143  0.6326 -0.5550
  153SAPE  H16S16989   3.189   0.195   8.004  1.6956 -2.6074 -1.4412
  153SAPE  C21716990   3.388   0.141   7.951  0.0125  0.3870 -0.3943
  153SAPE  H17R16991   3.488   0.189   7.941 -0.9445  3.0435  1.5105
  153SAPE  H17S16992   3.372   0.064   7.873 -0.3783 -1.6074  1.5637
  153SAPE  C21816993   3.390   0.059   8.081 -0.4542  0.0536 -0.5606
  153SAPE  H18R16994   3.301   0.072   8.146  1.8818 -0.4378  2.9735
  153SAPE  H18S16995   3.482   0.091   8.134 -0.9754 -1.4611  1.3990
  153SAPE  C21916996   3.389  -0.091   8.050  0.3450 -0.1105  0.0076
  153SAPE  H19R16997   3.477  -0.107   7.983  2.1675  0.8262  2.0549
  153SAPE  H19S16998   3.297  -0.126   7.999  0.6255  0.4333 -0.8914
  153SAPE  C22016999   3.402  -0.162   8.180  0.0999  0.3466  0.2729
  153SAPE  H20R17000   3.499  -0.142   8.230 -0.5132 -0.8634  2.0830
  153SAPE  H20S17001   3.406  -0.271   8.156  1.7642  0.9463 -2.5432
  153SAPE  H20T17002   3.321  -0.154   8.256 -0.0682 -0.2982  0.1680
  153SAPE   C3317003   3.638  -0.354   6.688 -0.0044  0.1098 -0.7864
  153SAPE   H3X17004   3.696  -0.339   6.595  1.0356  1.6740  0.0757
  153SAPE   H3Y17005   3.577  -0.447   6.678 -4.2042  2.3224  1.3135
  153SAPE   C3417006   3.738  -0.378   6.808 -0.0035 -0.5038 -0.2473
  153SAPE   H4X17007   3.768  -0.280   6.851  1.5143 -0.7564 -0.7030
  153SAPE   H4Y17008   3.833  -0.422   6.773  0.3464  0.1441 -0.1214
  153SAPE   C3517009   3.697  -0.453   6.933  0.1966  0.3278 -0.4963
  153SAPE   H5X17010   3.703  -0.561   6.907  2.3675  1.3541 -5.5089
  153SAPE   H5Y17011   3.589  -0.430   6.945  0.3082  1.6687 -1.8150
  153SAPE   C3617012   3.787  -0.438   7.049  0.5949  0.0334 -0.8616
  153SAPE   H6X17013   3.819  -0.331   7.053  1.4813 -0.1429 -2.3813
  153SAPE   H6Y17014   3.879  -0.498   7.033  0.7474 -0.2023  0.7731
  153SAPE   C3717015   3.714  -0.460   7.180 -0.2129 -0.1395 -0.6152
  153SAPE   H7X17016   3.715  -0.569   7.203  0.6260 -0.2923 -1.3358
  153SAPE   H7Y17017   3.609  -0.431   7.160 -0.1242  1.9247  1.5134
  153SAPE   C3817018   3.766  -0.371   7.292 -0.2222  0.3871  0.2246
  153SAPE   H8X17019   3.715  -0.272   7.288  0.4336  0.7040 -0.7212
  153SAPE   H8Y17020   3.868  -0.348   7.253 -1.0685  1.4484 -1.4949
  153SAPE   C3917021   3.778  -0.433   7.430 -0.9101  0.4174  0.5137
  153SAPE   H9X17022   3.844  -0.363   7.485 -0.0079  0.4305 -0.5537
  153SAPE   H9Y17023   3.821  -0.535   7.432  0.0493  0.8269  1.6129
  153SAPE  C31017024   3.642  -0.430   7.500 -0.5293  0.2663 -0.0394
  153SAPE  H10X17025   3.569  -0.487   7.438 -0.4776  0.5026 -0.3186
  153SAPE  H10Y17026   3.611  -0.324   7.513 -0.1870  0.2672  0.8262
  153SAPE  C31117027   3.642  -0.480   7.643  0.0512 -0.0739 -0.1179
  153SAPE  H11X17028   3.714  -0.420   7.703  0.6770 -0.5112 -0.4195
  153SAPE  H11Y17029   3.681  -0.584   7.650 -0.3932 -0.3727 -1.7820
  153SAPE  C31217030   3.499  -0.475   7.701  0.1133 -0.1588 -0.2704
  153SAPE  H12X17031   3.441  -0.403   7.639  1.0305  0.7528 -0.0949
  153SAPE  H12Y17032   3.502  -0.425   7.800 -0.4313  0.6482 -0.6429
  153SAPE  C31317033   3.437  -0.608   7.706  0.1488  0.3321  0.6297
  153SAPE  H13X17034   3.496  -0.677   7.770  1.1442 -0.4420 -1.0271
  153SAPE  H13Y17035   3.431  -0.654   7.605 -0.4190  0.7161  0.4873
  153SAPE  C31417036   3.301  -0.612   7.773 -0.2425  0.2266  0.2654
  153SAPE  H14X17037   3.251  -0.710   7.757 -0.9202  0.3689  1.3832
  153SAPE  H14Y17038   3.228  -0.546   7.722  0.0029  0.9378  0.8193
  153SAPE  C31517039   3.299  -0.593   7.926 -0.4738  0.4832  0.2301
  153SAPE  H15X17040   3.331  -0.490   7.954 -0.3401  0.4731  0.1155
  153SAPE  H15Y17041   3.380  -0.659   7.964 -0.7243  0.8682  1.4783
  153SAPE  C31617042   3.166  -0.629   7.995  0.8783  0.2131 -0.5231
  153SAPE  H16X17043   3.132  -0.730   7.963  1.5912 -0.4708  0.7980
  153SAPE  H16Y17044   3.089  -0.560   7.955 -0.5809 -1.1617 -0.2075
  153SAPE  C31717045   3.165  -0.624   8.151  0.0946 -0.0711 -0.2523
  153SAPE  H17X17046   3.061  -0.640   8.185  0.6688 -0.8321  1.2173
  153SAPE  H17Y17047   3.203  -0.528   8.192 -3.2614  0.9918  0.6725
  153SAPE  C31817048   3.257  -0.733   8.219  0.5057  0.2371  0.9483
  153SAPE  H18X17049   3.212  -0.756   8.318 -0.2262 -0.0884  0.5523
  153SAPE  H18Y17050   3.357  -0.685   8.227  0.1331  1.9353 -2.4860
  153SAPE  H18Z17051   3.256  -0.829   8.163 -0.5822  0.3146  0.8155
  154SAPE     N17052   2.591   2.872   6.113  0.2249 -0.2545  0.6765
  154SAPE   HN117053   2.617   2.776   6.145  0.7792 -0.3664 -0.0713
  154SAPE   HN217054   2.652   2.907   6.037 -0.0408 -2.2275 -0.5255
  154SAPE   HN317055   2.600   2.938   6.193  1.0498  0.1937  0.2289
  154SAPE   C1217056   2.455   2.850   6.061  0.3390 -0.6579 -0.5094
  154SAPE  H12A17057   2.416   2.936   6.001 -2.5279  0.3962  2.5525
  154SAPE  H12B17058   2.387   2.850   6.149  0.4698 -0.5296 -0.4065
  154SAPE   C1117059   2.434   2.718   5.985  0.1599  0.0944 -0.3839
  154SAPE  H11A17060   2.481   2.637   6.045 -0.9240 -1.5628 -1.6631
  154SAPE  H11B17061   2.482   2.726   5.885 -4.9428  0.3167 -3.1820
  154SAPE     P17062   2.209   2.600   6.070  0.5088  0.0107  0.3340
  154SAPE   O1317063   2.199   2.480   5.992 -0.4351 -0.4141  0.1714
  154SAPE   O1417064   2.261   2.594   6.204 -0.1843  0.2173 -0.2586
  154SAPE   O1217065   2.291   2.697   5.981  0.0710  0.1148 -0.0822
  154SAPE   O1117066   2.064   2.656   6.072 -0.3906  0.8619 -0.2056
  154SAPE    C117067   2.036   2.773   6.154 -0.2327  1.3171 -0.6323
  154SAPE    HA17068   2.122   2.843   6.151  1.4813 -0.4030  2.7054
  154SAPE    HB17069   1.943   2.819   6.114 -1.5978  0.4589  1.3727
  154SAPE    C217070   2.009   2.742   6.312  0.1104  0.1395  0.4538
  154SAPE    HS17071   2.076   2.660   6.344 -1.8220 -0.6330  2.8220
  154SAPE   O2117072   1.873   2.695   6.337 -0.8091 -0.6241  0.5489
  154SAPE   C2117073   1.838   2.575   6.307  0.0277  0.3990  0.5645
  154SAPE   O2217074   1.916   2.497   6.252 -0.1081  0.1380 -0.5143
  154SAPE   C2217075   1.693   2.548   6.325  0.0868  0.5466 -0.3048
  154SAPE   H2R17076   1.630   2.577   6.238 -0.5853 -1.4129 -0.5156
  154SAPE   H2S17077   1.679   2.440   6.344  0.8273  0.4082 -0.5275
  154SAPE    C317078   2.032   2.869   6.395  0.4467 -0.2759 -0.0422
  154SAPE    HX17079   1.948   2.942   6.392  0.5278 -0.1216  1.0471
  154SAPE    HY17080   2.116   2.924   6.348 -0.4052  0.8153 -0.3300
  154SAPE   O3117081   2.067   2.835   6.532  0.3272  0.4432 -0.2890
  154SAPE   C3117082   2.188   2.808   6.561 -0.3100  0.4442  0.8991
  154SAPE   O3217083   2.288   2.827   6.490 -0.3950 -0.2978  0.3839
  154SAPE   C3217084   2.197   2.748   6.693 -0.4116  0.3349 -0.1483
  154SAPE   H2X17085   2.113   2.677   6.710 -0.3053 -0.1568 -1.5528
  154SAPE   H2Y17086   2.176   2.826   6.769 -2.0317 -0.6290  0.4459
  154SAPE   C2317087   1.641   2.617   6.452 -0.4752 -0.5926  1.4696
  154SAPE   H3R17088   1.530   2.610   6.450 -0.4878 -0.4169  1.5565
  154SAPE   H3S17089   1.665   2.725   6.444 -1.8481 -0.3593 -4.1529
  154SAPE   C2417090   1.703   2.564   6.587 -0.7769  0.0798 -0.2265
  154SAPE   H4R17091   1.811   2.589   6.584 -0.5408 -0.9413 -0.5637
  154SAPE   H4S17092   1.699   2.454   6.571 -1.2113 -0.1101  1.0733
  154SAPE   C2517093   1.625   2.628   6.706  0.8647 -0.1826  0.2609
  154SAPE   H5R17094   1.515   2.623   6.708  0.6678  1.3766 -2.4315
  154SAPE   C2617095   1.676   2.677   6.820  0.1174  0.5343 -0.3455
  154SAPE   H6R17096   1.598   2.706   6.892 -0.4974  1.8737 -1.4967
  154SAPE   C2717097   1.814   2.694   6.878  0.1459  0.1420  0.5814
  154SAPE   H7R17098   1.888   2.639   6.817  0.0200  0.0968  0.4684
  154SAPE   H7S17099   1.823   2.650   6.980 -0.0211 -1.0085  0.1105
  154SAPE   C2817100   1.848   2.842   6.903  0.4428  1.2636  0.2953
  154SAPE   H8R17101   1.789   2.906   6.836 -0.6254 -0.6701 -0.6924
  154SAPE   C2917102   1.931   2.890   6.993 -0.3516 -0.1926  0.1399
  154SAPE   H9R17103   1.946   2.999   6.988 -1.8965  0.0173 -0.6707
  154SAPE  C21017104   2.017   2.813   7.087 -0.2830  0.3208 -0.7415
  154SAPE  H10R17105   2.047   2.717   7.041 -0.9589 -0.1050 -0.3028
  154SAPE  H10S17106   1.961   2.778   7.176  0.7488 -1.9925 -0.9352
  154SAPE  C21117107   2.128   2.896   7.145 -0.0357 -0.2856  0.4422
  154SAPE  H11R17108   2.188   2.944   7.066 -1.6675  2.4129  0.7098
  154SAPE  C21217109   2.163   2.911   7.273 -0.0507 -0.1784 -0.4460
  154SAPE  H12R17110   2.248   2.977   7.292 -0.0591 -0.5071  0.8498
  154SAPE  C21317111   2.107   2.833   7.393  0.0018  0.0207  0.4390
  154SAPE  H13R17112   2.085   2.730   7.358 -0.9353  0.4317 -0.2265
  154SAPE  H13S17113   2.007   2.878   7.413  0.0194  0.4821 -0.4812
  154SAPE  C21417114   2.200   2.833   7.515  0.0187 -0.2968 -0.6089
  154SAPE  H14R17115   2.285   2.765   7.508  0.9766  0.9792 -1.8854
  154SAPE  C21517116   2.179   2.910   7.624  0.0569 -0.3476 -0.6916
  154SAPE  H15R17117   2.254   2.911   7.705 -0.1136  0.8858 -0.5333
  154SAPE  C21617118   2.077   3.019   7.636  0.2853 -0.6345  0.5977
  154SAPE  H16R17119   2.035   3.037   7.534  1.5214 -0.6715  0.0669
  154SAPE  H16S17120   2.123   3.116   7.664 -2.3251  0.0613  2.9539
  154SAPE  C21717121   1.971   2.985   7.733  0.3107  0.6327 -0.6910
  154SAPE  H17R17122   1.921   2.888   7.714  1.0449 -0.1763  1.2519
  154SAPE  H17S17123   1.895   3.065   7.725  0.8171  1.3363  1.0360
  154SAPE  C21817124   2.016   3.005   7.880  0.2505 -0.2189  0.5198
  154SAPE  H18R17125   2.086   3.090   7.899 -1.3339  1.3826 -0.4730
  154SAPE  H18S17126   2.075   2.913   7.898  2.3632  0.8973 -0.2719
  154SAPE  C21917127   1.901   3.010   7.985 -0.1082 -0.0434  0.0370
  154SAPE  H19R17128   1.843   2.920   7.954 -0.4169  0.3489 -0.5329
  154SAPE  H19S17129   1.837   3.096   7.957  0.3667 -0.0271 -1.0385
  154SAPE  C22017130   1.944   2.980   8.128  0.4395 -0.2757 -0.0713
  154SAPE  H20R17131   1.971   2.874   8.146 -0.0809 -0.4051 -0.0375
  154SAPE  H20S17132   1.858   2.997   8.197  0.8365 -0.2099  0.4160
  154SAPE  H20T17133   2.025   3.045   8.167 -0.4010 -0.4427  2.1582
  154SAPE   C3317134   2.328   2.663   6.719  0.1663 -0.2600  0.4375
  154SAPE   H3X17135   2.415   2.732   6.709 -0.3623  0.2331 -0.9936
  154SAPE   H3Y17136   2.345   2.577   6.652  0.7025  0.3359 -0.2071
  154SAPE   C3417137   2.342   2.626   6.871  0.3854 -0.4374  0.5076
  154SAPE   H4X17138   2.309   2.722   6.916 -0.1425  0.3361 -1.4120
  154SAPE   H4Y17139   2.451   2.619   6.890  0.6790  0.7369 -0.5758
  154SAPE   C3517140   2.259   2.508   6.926 -0.5385  0.0920  0.8035
  154SAPE   H5X17141   2.309   2.416   6.890 -0.5701  0.5629 -0.5194
  154SAPE   H5Y17142   2.157   2.498   6.884  0.1715 -1.9227 -0.5954
  154SAPE   C3617143   2.262   2.511   7.072  0.3542 -1.0237 -0.7791
  154SAPE   H6X17144   2.212   2.607   7.097 -2.6083 -2.2904 -1.3961
  154SAPE   H6Y17145   2.364   2.505   7.117 -0.6134 -3.8529  1.3162
  154SAPE   C3717146   2.185   2.391   7.135  0.3140 -0.8136  1.3068
  154SAPE   H7X17147   2.253   2.309   7.104  0.1216 -0.5118  0.0283
  154SAPE   H7Y17148   2.089   2.375   7.080  0.5115 -3.7701  1.6382
  154SAPE   C3817149   2.158   2.399   7.288  0.5438  0.5914  0.0686
  154SAPE   H8X17150   2.101   2.307   7.315  1.3242  0.4578  1.3555
  154SAPE   H8Y17151   2.095   2.489   7.304  0.9191  0.9537 -0.4581
  154SAPE   C3917152   2.290   2.415   7.364 -0.3154 -0.4171 -0.0778
  154SAPE   H9X17153   2.329   2.516   7.337 -1.6127  0.2804  0.5888
  154SAPE   H9Y17154   2.354   2.335   7.320  0.5025  0.6853 -0.9762
  154SAPE  C31017155   2.281   2.402   7.517  0.2791 -0.5852 -0.0666
  154SAPE  H10X17156   2.247   2.301   7.550 -0.2221 -0.7871 -1.1571
  154SAPE  H10Y17157   2.201   2.468   7.556 -1.4351 -1.5778 -1.7220
  154SAPE  C31117158   2.404   2.426   7.602 -0.4123  0.1733 -0.4219
  154SAPE  H11X17159   2.439   2.523   7.561  1.7668 -1.2355 -2.1004
  154SAPE  H11Y17160   2.478   2.345   7.590  2.6340  2.6164  0.4960
  154SAPE  C31217161   2.389   2.435   7.758  0.7305  0.0744 -0.5390
  154SAPE  H12X17162   2.492   2.417   7.796  0.4126 -0.5054  0.0562
  154SAPE  H12Y17163   2.344   2.344   7.803  3.2290 -1.3062 -0.6349
  154SAPE  C31317164   2.328   2.561   7.811  0.5443 -0.0709 -0.8770
  154SAPE  H13X17165   2.222   2.568   7.777 -0.1269 -0.2999  1.0258
  154SAPE  H13Y17166   2.366   2.641   7.745  1.5464 -0.4126 -0.7367
  154SAPE  C31417167   2.339   2.585   7.960 -0.6730 -0.6348 -0.5740
  154SAPE  H14X17168   2.450   2.582   7.973 -0.6689  3.0669  1.6089
  154SAPE  H14Y17169   2.297   2.500   8.018 -1.0703  0.4313  0.7452
  154SAPE  C31517170   2.264   2.713   8.007 -0.5056  0.2855 -0.1292
  154SAPE  H15X17171   2.162   2.709   7.963 -0.0730 -1.0882 -1.0631
  154SAPE  H15Y17172   2.313   2.794   7.949 -1.7600 -0.0109 -1.6885
  154SAPE  C31617173   2.259   2.734   8.159  0.0007  0.4260  0.3951
  154SAPE  H16X17174   2.200   2.653   8.207 -1.5802  0.9479 -0.5968
  154SAPE  H16Y17175   2.200   2.826   8.180 -0.7563  0.1074 -0.3047
  154SAPE  C31717176   2.398   2.739   8.226  0.2620 -0.0627 -0.3601
  154SAPE  H17X17177   2.439   2.838   8.196 -0.1261  0.4941  0.8731
  154SAPE  H17Y17178   2.468   2.668   8.178  3.1164  2.2687  0.0591
  154SAPE  C31817179   2.394   2.733   8.380  0.0264  0.0420  0.7122
  154SAPE  H18X17180   2.333   2.641   8.397  0.1418 -0.1580  0.0597
  154SAPE  H18Y17181   2.343   2.824   8.419  2.8376  2.7857 -1.5647
  154SAPE  H18Z17182   2.496   2.729   8.423 -0.1225  0.8754  1.1582
  155SAPE     N17183   1.826   4.430   6.317 -0.5282 -0.0370 -0.3033
  155SAPE   HN117184   1.789   4.509   6.373 -0.4295 -0.9358  1.0828
  155SAPE   HN217185   1.802   4.461   6.221 -2.4387 -2.2682 -0.6258
  155SAPE   HN317186   1.764   4.351   6.344 -1.8993  0.9584 -0.4466
  155SAPE   C1217187   1.972   4.397   6.358 -0.4573  0.2104 -0.1118
  155SAPE  H12A17188   1.967   4.366   6.464  2.7278 -3.4188 -0.7660
  155SAPE  H12B17189   2.036   4.486   6.340  2.8449 -2.4077 -3.2343
  155SAPE   C1117190   2.016   4.269   6.272  0.4375 -0.0725 -0.0130
  155SAPE  H11A17191   2.127   4.265   6.272  0.4801  0.8120  0.0093
  155SAPE  H11B17192   1.985   4.281   6.166 -1.4615  0.4572  0.5535
  155SAPE     P17193   2.034   4.018   6.369  0.3953 -0.0857  0.0124
  155SAPE   O1317194   1.953   3.899   6.328  0.3469 -0.3416 -0.3212
  155SAPE   O1417195   2.166   4.033   6.318 -0.4826 -0.1735  0.1308
  155SAPE   O1217196   1.951   4.151   6.328  0.0096  0.3870 -0.3902
  155SAPE   O1117197   2.038   4.035   6.526 -0.2346  0.4257 -0.0550
  155SAPE    C117198   1.963   4.118   6.608  0.1602  0.3630 -0.4493
  155SAPE    HA17199   2.006   4.221   6.615  0.0859  0.2953  2.5764
  155SAPE    HB17200   1.859   4.110   6.571  0.6188 -0.5345 -1.6098
  155SAPE    C217201   1.952   4.068   6.749  0.5575 -0.0806  0.0269
  155SAPE    HS17202   1.853   4.098   6.790  0.8941  1.1030  0.0064
  155SAPE   O2117203   2.056   4.116   6.833 -0.5128 -0.5004  0.0705
  155SAPE   C2117204   2.063   4.249   6.852 -0.0759  0.2198 -0.6032
  155SAPE   O2217205   1.976   4.331   6.838 -0.5224  0.3378  0.4961
  155SAPE   C2217206   2.208   4.285   6.904 -1.1995  0.2945 -0.5330
  155SAPE   H2R17207   2.219   4.242   7.005  1.4193  1.4980 -0.2284
  155SAPE   H2S17208   2.278   4.237   6.831  1.6550  3.2518  0.0496
  155SAPE    C317209   1.950   3.917   6.759  0.0981 -0.4664 -0.0627
  155SAPE    HX17210   2.057   3.896   6.742  0.2978 -2.3072  2.7275
  155SAPE    HY17211   1.884   3.877   6.679  0.6866  1.0769 -1.3588
  155SAPE   O3117212   1.902   3.878   6.895 -0.0719 -0.5966  0.3210
  155SAPE   C3117213   1.928   3.758   6.923 -0.6343  0.4085 -0.2339
  155SAPE   O3217214   1.989   3.675   6.854  0.3058 -0.5510  0.4391
  155SAPE   C3217215   1.874   3.713   7.051  0.1119 -0.3189  0.3473
  155SAPE   H2X17216   1.941   3.634   7.091 -1.5164 -1.2091  1.4394
  155SAPE   H2Y17217   1.765   3.694   7.038 -0.8069  3.2935  1.6139
  155SAPE   C2317218   2.225   4.438   6.917  0.3490  0.1987  0.1227
  155SAPE   H3R17219   2.180   4.492   6.831 -0.4672 -0.9552 -0.1935
  155SAPE   H3S17220   2.327   4.480   6.931 -0.1980  2.2152 -1.4592
  155SAPE   C2417221   2.138   4.502   7.037 -0.2644 -0.4309  0.0079
  155SAPE   H4R17222   2.038   4.455   7.028 -1.0863  1.3213 -0.3877
  155SAPE   H4S17223   2.121   4.611   7.029  0.3026 -0.0870  2.8078
  155SAPE   C2517224   2.199   4.472   7.170  0.2662 -0.4584 -0.5966
  155SAPE   H5R17225   2.303   4.506   7.184  0.7037 -0.9075 -2.4146
  155SAPE   C2617226   2.149   4.410   7.278  0.1772  0.4915  0.2627
  155SAPE   H6R17227   2.216   4.385   7.362  0.0871  0.5954  0.3651
  155SAPE   C2717228   2.008   4.357   7.279  0.2651 -0.4227  0.4153
  155SAPE   H7R17229   1.984   4.311   7.181 -1.1423  0.4674  0.3188
  155SAPE   H7S17230   1.951   4.448   7.307  1.0601  0.3597 -0.4491
  155SAPE   C2817231   1.987   4.248   7.380 -0.2192 -0.0252  0.2858
  155SAPE   H8R17232   1.996   4.144   7.343 -2.1376  0.5565 -2.0689
  155SAPE   C2917233   1.951   4.270   7.506 -0.4049  0.4179  0.0790
  155SAPE   H9R17234   1.926   4.185   7.571 -0.0268  2.5623  3.2747
  155SAPE  C21017235   1.943   4.400   7.571 -0.4363 -0.3806 -0.0234
  155SAPE  H10R17236   1.870   4.400   7.655  1.4334  1.6450  1.7334
  155SAPE  H10S17237   1.895   4.472   7.501 -1.7426 -0.0748  1.1302
  155SAPE  C21117238   2.074   4.450   7.625 -0.1217 -0.5834 -0.6431
  155SAPE  H11R17239   2.156   4.450   7.551 -0.4828  0.6859 -1.0780
  155SAPE  C21217240   2.113   4.480   7.752 -0.1336  0.2900 -0.3550
  155SAPE  H12R17241   2.215   4.515   7.769 -0.7398  0.9083  2.4029
  155SAPE  C21317242   2.020   4.469   7.871 -0.4861 -0.2005 -0.9894
  155SAPE  H13R17243   1.912   4.482   7.849 -0.6808  0.1661  0.1020
  155SAPE  H13S17244   2.032   4.559   7.935 -2.4212 -0.0727 -0.7463
  155SAPE  C21417245   2.030   4.344   7.946 -0.4003  0.4074  0.3789
  155SAPE  H14R17246   2.058   4.259   7.881  0.6815 -0.5565  2.0162
  155SAPE  C21517247   2.037   4.324   8.079 -0.4285 -0.6306 -0.4740
  155SAPE  H15R17248   2.069   4.226   8.116 -1.5360 -1.9701 -2.8037
  155SAPE  C21617249   2.026   4.417   8.196  0.2898  0.4673 -0.7240
  155SAPE  H16R17250   1.929   4.403   8.248 -1.2102  0.5934 -3.2891
  155SAPE  H16S17251   2.036   4.526   8.174 -2.1932  0.9985  0.4236
  155SAPE  C21717252   2.134   4.393   8.301 -0.4465 -0.5555 -0.4965
  155SAPE  H17R17253   2.229   4.443   8.271 -0.5967 -1.3122 -2.3122
  155SAPE  H17S17254   2.146   4.284   8.318  0.3802 -1.0137 -3.5424
  155SAPE  C21817255   2.108   4.456   8.443 -0.1358 -0.8361 -0.3133
  155SAPE  H18R17256   2.009   4.424   8.482 -0.8370  2.5285  1.0977
  155SAPE  H18S17257   2.087   4.565   8.441  1.2825 -0.5104 -3.2551
  155SAPE  C21917258   2.212   4.429   8.553  0.0573 -0.4156 -0.1649
  155SAPE  H19R17259   2.204   4.320   8.573 -1.7650 -0.9225 -3.0819
  155SAPE  H19S17260   2.192   4.481   8.650  2.3085 -0.4831  0.3896
  155SAPE  C22017261   2.356   4.451   8.514 -0.2413 -0.2642  0.1524
  155SAPE  H20R17262   2.372   4.537   8.446 -0.7109 -1.0761 -1.0162
  155SAPE  H20S17263   2.400   4.365   8.459  1.7726  1.3029 -0.8064
  155SAPE  H20T17264   2.416   4.472   8.606  2.1010  1.9389 -1.7358
  155SAPE   C3317265   1.882   3.813   7.162 -0.4324 -0.6336  0.1890
  155SAPE   H3X17266   1.814   3.897   7.136 -0.0402 -0.2304  0.4437
  155SAPE   H3Y17267   1.981   3.863   7.170  0.2993 -1.9144 -0.5572
  155SAPE   C3417268   1.844   3.762   7.302 -0.4760  0.3211  0.4393
  155SAPE   H4X17269   1.916   3.680   7.323 -0.5414 -0.1438 -1.1021
  155SAPE   H4Y17270   1.741   3.722   7.300  0.4688 -2.4713  2.1003
  155SAPE   C3517271   1.855   3.869   7.417  0.0558 -0.0347 -0.3536
  155SAPE   H5X17272   1.804   3.956   7.370  0.5355  1.2549  1.3967
  155SAPE   H5Y17273   1.963   3.891   7.427  0.2562 -1.6633  1.7135
  155SAPE   C3617274   1.786   3.820   7.542 -0.2439  0.1330 -0.2137
  155SAPE   H6X17275   1.825   3.723   7.577 -0.4051  0.0091 -0.3709
  155SAPE   H6Y17276   1.676   3.813   7.525 -0.4388 -0.4970  1.1720
  155SAPE   C3717277   1.802   3.927   7.655  0.1644  0.6852  0.0377
  155SAPE   H7X17278   1.761   4.016   7.602  2.5960  0.8204 -1.8399
  155SAPE   H7Y17279   1.911   3.947   7.669 -0.2136  2.2816  0.9898
  155SAPE   C3817280   1.738   3.890   7.790 -0.6614  0.5416  0.2290
  155SAPE   H8X17281   1.762   3.783   7.806 -1.8258  0.3058  0.4982
  155SAPE   H8Y17282   1.628   3.907   7.797 -0.2912  3.6735 -0.0767
  155SAPE   C3917283   1.801   3.969   7.904 -0.2924  0.4083 -0.1628
  155SAPE   H9X17284   1.786   4.078   7.891 -1.6223  0.2394 -0.1699
  155SAPE   H9Y17285   1.908   3.937   7.911 -0.4024 -0.2126 -1.1734
  155SAPE  C31017286   1.727   3.925   8.027 -0.2360  0.5144 -0.1611
  155SAPE  H10X17287   1.738   3.814   8.022 -1.2300  0.4562 -3.0135
  155SAPE  H10Y17288   1.620   3.949   8.009 -0.3971  1.4066  1.8032
  155SAPE  C31117289   1.781   4.001   8.154 -0.6586  0.6690 -0.3197
  155SAPE  H11X17290   1.737   4.103   8.152  0.0516  1.0227  0.9646
  155SAPE  H11Y17291   1.885   4.039   8.156  0.3649 -1.9276  1.7610
  155SAPE  C31217292   1.754   3.936   8.286 -0.5545  0.7718 -0.7846
  155SAPE  H12X17293   1.817   3.987   8.362  2.1744 -3.4176  0.0735
  155SAPE  H12Y17294   1.795   3.833   8.281 -1.0523  0.5608 -0.5469
  155SAPE  C31317295   1.612   3.925   8.340  0.1859 -0.6382 -0.3083
  155SAPE  H13X17296   1.559   3.843   8.286 -0.1315 -1.5054  1.2458
  155SAPE  H13Y17297   1.555   4.016   8.312  0.1441 -0.8683 -1.0008
  155SAPE  C31417298   1.604   3.890   8.490 -0.3500 -0.4495  0.4026
  155SAPE  H14X17299   1.600   3.989   8.539 -1.7646 -0.1782 -0.2162
  155SAPE  H14Y17300   1.696   3.832   8.513  0.3265  0.6055  0.4064
  155SAPE  C31517301   1.484   3.811   8.541  0.2812  0.2076  0.1872
  155SAPE  H15X17302   1.448   3.728   8.477 -3.3387 -0.4746  2.7844
  155SAPE  H15Y17303   1.404   3.888   8.535 -1.4932 -1.5098  0.7004
  155SAPE  C31617304   1.508   3.768   8.679 -0.2926  0.4281 -0.4504
  155SAPE  H16X17305   1.538   3.850   8.748 -0.8966  0.6697 -0.4663
  155SAPE  H16Y17306   1.599   3.706   8.670 -0.8381 -0.4138 -0.2159
  155SAPE  C31717307   1.394   3.691   8.749 -0.8078 -0.8983 -0.1165
  155SAPE  H17X17308   1.441   3.618   8.818 -2.3301  0.1440  2.1782
  155SAPE  H17Y17309   1.337   3.638   8.671  0.0979 -0.4608 -1.1011
  155SAPE  C31817310   1.299   3.787   8.826  0.3650  0.8157 -0.2668
  155SAPE  H18X17311   1.225   3.717   8.871  1.1499 -1.8244 -2.7826
  155SAPE  H18Y17312   1.242   3.860   8.763  0.1951 -0.7613 -2.0319
  155SAPE  H18Z17313   1.350   3.829   8.915 -2.1669  0.4242  1.5045
  156SAPE     N17314   0.533   3.313   6.262 -0.2079  0.1821 -0.1501
  156SAPE   HN117315   0.544   3.236   6.330 -1.9655  0.3310  0.3618
  156SAPE   HN217316   0.463   3.373   6.310 -0.5406  1.5023 -2.1824
  156SAPE   HN317317   0.479   3.277   6.181 -1.2039  3.4787 -1.1234
  156SAPE   C1217318   0.652   3.393   6.240 -0.3009  0.2555 -0.2356
  156SAPE  H12A17319   0.711   3.342   6.161  0.5569  0.6790  0.1214
  156SAPE  H12B17320   0.696   3.415   6.339 -1.9336 -1.7700  1.0160
  156SAPE   C1117321   0.614   3.537   6.190 -0.3850 -0.5383 -0.4432
  156SAPE  H11A17322   0.572   3.534   6.087  0.2462  0.7539 -0.7570
  156SAPE  H11B17323   0.705   3.598   6.170 -1.7182  1.4300 -0.8353
  156SAPE     P17324   0.555   3.718   6.381  0.2586  0.1434 -0.2934
  156SAPE   O1317325   0.663   3.792   6.313  0.1763 -0.3827  0.1015
  156SAPE   O1417326   0.431   3.786   6.412 -0.5881 -0.0755 -0.7129
  156SAPE   O1217327   0.522   3.594   6.279  0.0661 -0.5672  0.2914
  156SAPE   O1117328   0.612   3.631   6.513 -0.3061 -0.9327 -0.2926
  156SAPE    C117329   0.523   3.591   6.619 -0.6647 -0.0207  0.1338
  156SAPE    HA17330   0.421   3.570   6.578 -0.7379  2.1938 -0.9356
  156SAPE    HB17331   0.571   3.504   6.670  2.6220  0.9094 -1.1468
  156SAPE    C217332   0.518   3.700   6.721  0.1659 -0.4399 -0.9055
  156SAPE    HS17333   0.506   3.800   6.674  0.3841  0.0037 -0.0336
  156SAPE   O2117334   0.640   3.699   6.798 -0.0742  0.0574  0.0143
  156SAPE   C2117335   0.653   3.798   6.876 -0.9310  0.8627  0.3925
  156SAPE   O2217336   0.587   3.900   6.877  0.2106 -0.2087  0.4037
  156SAPE   C2217337   0.771   3.761   6.953 -0.2726  0.5665 -1.7400
  156SAPE   H2R17338   0.757   3.797   7.057  4.2378  0.3874 -0.8685
  156SAPE   H2S17339   0.778   3.652   6.977 -0.1557  0.5183 -1.9836
  156SAPE    C317340   0.389   3.681   6.811 -0.0574 -0.5716 -0.4653
  156SAPE    HX17341   0.302   3.698   6.743  1.3504 -1.7046 -2.6822
  156SAPE    HY17342   0.378   3.757   6.891  1.7780 -0.4385 -0.3087
  156SAPE   O3117343   0.380   3.552   6.867 -0.0006  0.3918  0.3548
  156SAPE   C3117344   0.401   3.537   7.000  0.2919 -0.4725 -0.4828
  156SAPE   O3217345   0.444   3.629   7.072  0.6522 -0.0158  0.3736
  156SAPE   C3217346   0.375   3.393   7.039  1.1901 -0.1530  0.2137
  156SAPE   H2X17347   0.385   3.318   6.957 -0.5011 -2.4118  1.9607
  156SAPE   H2Y17348   0.266   3.399   7.059  1.4151  0.7552  1.2254
  156SAPE   C2317349   0.896   3.822   6.891 -1.0002  0.2598  0.3853
  156SAPE   H3R17350   0.868   3.917   6.839 -1.3676  1.2908  2.3845
  156SAPE   H3S17351   0.943   3.746   6.825  0.2141  0.1546  1.3481
  156SAPE   C2417352   0.995   3.862   6.997 -0.2958 -0.1958 -0.5895
  156SAPE   H4R17353   0.943   3.932   7.066 -2.6298 -0.7886 -1.6366
  156SAPE   H4S17354   1.078   3.913   6.944 -0.8237  1.7959  0.4235
  156SAPE   C2517355   1.043   3.739   7.070  0.4976  0.5622 -0.6187
  156SAPE   H5R17356   1.089   3.658   7.011 -2.4737 -2.0988  0.4746
  156SAPE   C2617357   1.041   3.713   7.203  0.1047  0.9026  0.4436
  156SAPE   H6R17358   1.081   3.617   7.239 -1.3816  0.7388  1.7907
  156SAPE   C2717359   1.001   3.788   7.323  0.3147  0.3214 -0.3288
  156SAPE   H7R17360   0.996   3.895   7.296 -0.1140  0.5900  0.7842
  156SAPE   H7S17361   1.081   3.767   7.398  0.7844 -2.8566 -1.5593
  156SAPE   C2817362   0.863   3.755   7.365 -0.0723  0.2565  0.1188
  156SAPE   H8R17363   0.788   3.738   7.287  1.4405 -0.0394 -1.3151
  156SAPE   C2917364   0.823   3.756   7.497  1.0358  0.1810  0.6038
  156SAPE   H9R17365   0.715   3.745   7.518  0.7403  0.9341 -0.4264
  156SAPE  C21017366   0.899   3.792   7.626 -0.0149 -0.8501  0.4117
  156SAPE  H10R17367   0.824   3.812   7.706 -2.6954  0.1651 -2.1808
  156SAPE  H10S17368   0.948   3.891   7.623  1.0690 -1.2860  2.3011
  156SAPE  C21117369   0.997   3.679   7.669  0.5344 -0.3053 -0.4448
  156SAPE  H11R17370   1.001   3.594   7.599 -2.0046 -0.7883 -0.1088
  156SAPE  C21217371   1.043   3.660   7.793 -0.8275 -0.3576 -1.0443
  156SAPE  H12R17372   1.117   3.580   7.809 -1.1299 -0.7023 -1.3556
  156SAPE  C21317373   1.025   3.744   7.915 -0.3060  0.8111  0.5265
  156SAPE  H13R17374   0.992   3.844   7.882  2.0531  1.6717  0.5940
  156SAPE  H13S17375   1.122   3.754   7.968 -1.1675  2.6458  1.8361
  156SAPE  C21417376   0.917   3.705   8.014 -0.1461  0.1268  0.0221
  156SAPE  H14R17377   0.818   3.746   7.988 -1.1646 -0.0677  3.1808
  156SAPE  C21517378   0.930   3.664   8.136 -0.4829  0.8606 -0.3615
  156SAPE  H15R17379   0.842   3.665   8.202  1.5132 -0.1120  2.5123
  156SAPE  C21617380   1.051   3.623   8.219 -0.3084  0.0068  0.3819
  156SAPE  H16R17381   1.137   3.604   8.152 -2.5737  0.0305 -2.7290
  156SAPE  H16S17382   1.038   3.535   8.286 -0.6293  0.5639  1.0681
  156SAPE  C21717383   1.095   3.731   8.322  0.7944  0.1253  0.0379
  156SAPE  H17R17384   1.125   3.828   8.279  1.8138  1.5155  3.5015
  156SAPE  H17S17385   1.179   3.680   8.375  0.3351 -0.4584  0.2279
  156SAPE  C21817386   0.985   3.762   8.427 -1.2592 -0.4027  0.2388
  156SAPE  H18R17387   0.901   3.805   8.368 -0.5053  2.5725  1.1537
  156SAPE  H18S17388   1.028   3.845   8.487 -2.5423  1.5527 -1.4184
  156SAPE  C21917389   0.945   3.654   8.532  0.3653  0.4753 -0.1614
  156SAPE  H19R17390   1.032   3.599   8.574 -0.4089 -1.0519 -0.4736
  156SAPE  H19S17391   0.880   3.579   8.483 -1.5334  2.0832 -0.2211
  156SAPE  C22017392   0.867   3.714   8.643 -1.1344 -0.2568  0.4391
  156SAPE  H20R17393   0.765   3.756   8.632 -0.2935  1.9350  0.5513
  156SAPE  H20S17394   0.926   3.792   8.695 -0.2626  0.7633 -1.9658
  156SAPE  H20T17395   0.862   3.629   8.715  0.0508 -0.5277  0.2283
  156SAPE   C3317396   0.445   3.369   7.176  0.1353  0.5019  0.4969
  156SAPE   H3X17397   0.436   3.455   7.245 -0.8267 -0.3588  1.4673
  156SAPE   H3Y17398   0.553   3.347   7.158  0.3561  1.6024  0.3991
  156SAPE   C3417399   0.384   3.245   7.250  0.3222 -0.0413  0.4116
  156SAPE   H4X17400   0.400   3.161   7.178  0.3755  2.1851 -2.3712
  156SAPE   H4Y17401   0.276   3.262   7.267  0.7528  1.6955  1.7869
  156SAPE   C3517402   0.451   3.217   7.381  0.0641  0.8024  0.6877
  156SAPE   H5X17403   0.423   3.300   7.449 -0.6484  0.9974  0.1719
  156SAPE   H5Y17404   0.559   3.206   7.359 -0.0532  1.9209 -0.5921
  156SAPE   C3617405   0.402   3.088   7.450  0.3250 -0.0160 -0.1500
  156SAPE   H6X17406   0.388   3.009   7.373 -2.0468 -0.1633  0.3542
  156SAPE   H6Y17407   0.300   3.115   7.484  0.0516  0.0351 -0.9769
  156SAPE   C3717408   0.482   3.047   7.573  0.0066 -0.3752 -0.2240
  156SAPE   H7X17409   0.581   3.002   7.548  0.6645  0.3384  0.9944
  156SAPE   H7Y17410   0.435   2.953   7.611  0.8377 -0.8552 -0.3421
  156SAPE   C3817411   0.510   3.155   7.678  0.9437  0.6204 -0.0996
  156SAPE   H8X17412   0.409   3.168   7.722  1.9853  0.3544  2.5397
  156SAPE   H8Y17413   0.552   3.244   7.626 -1.0090  0.8888 -1.3177
  156SAPE   C3917414   0.600   3.104   7.788 -0.3246  0.0668 -0.1830
  156SAPE   H9X17415   0.703   3.097   7.748  0.3131  1.1607  1.2093
  156SAPE   H9Y17416   0.567   3.004   7.821 -1.4946  0.9700  1.5341
  156SAPE  C31017417   0.611   3.196   7.907  0.5993  0.4491 -0.3489
  156SAPE  H10X17418   0.525   3.266   7.898  0.0013 -0.2694 -0.2660
  156SAPE  H10Y17419   0.701   3.262   7.909 -0.3769  1.8325 -0.5489
  156SAPE  C31117420   0.607   3.130   8.043 -0.3500  0.3867 -0.5032
  156SAPE  H11X17421   0.694   3.061   8.039  0.0203  0.8969 -2.0705
  156SAPE  H11Y17422   0.518   3.066   8.058 -0.4251 -0.3467 -3.3767
  156SAPE  C31217423   0.620   3.236   8.162 -0.2782  0.6250  0.4428
  156SAPE  H12X17424   0.541   3.314   8.160 -0.4515  0.5798  2.9759
  156SAPE  H12Y17425   0.718   3.287   8.154 -0.4266  0.7543 -0.7247
  156SAPE  C31317426   0.614   3.169   8.295 -0.7974  0.2198 -0.3500
  156SAPE  H13X17427   0.700   3.102   8.312 -0.5311  0.9812  1.4986
  156SAPE  H13Y17428   0.520   3.110   8.289  0.2026 -1.4133 -0.4759
  156SAPE  C31417429   0.621   3.260   8.409 -0.0948 -0.1571  0.1367
  156SAPE  H14X17430   0.531   3.323   8.418 -1.1384 -1.1290 -2.3726
  156SAPE  H14Y17431   0.700   3.334   8.383  2.1011 -2.4757 -0.1913
  156SAPE  C31517432   0.678   3.201   8.538 -0.5607  0.4392 -0.7519
  156SAPE  H15X17433   0.781   3.161   8.524 -1.3905 -2.2795  0.2114
  156SAPE  H15Y17434   0.625   3.111   8.576  0.8476  0.1475  0.6553
  156SAPE  C31617435   0.676   3.293   8.660 -0.0032  0.1553  0.2506
  156SAPE  H16X17436   0.573   3.331   8.678 -0.9307 -2.1647  0.1894
  156SAPE  H16Y17437   0.738   3.383   8.636 -0.5597  0.5878  0.4041
  156SAPE  C31717438   0.732   3.236   8.789  0.3236  0.5878 -0.3949
  156SAPE  H17X17439   0.765   3.321   8.852 -0.3755  1.0834 -0.6855
  156SAPE  H17Y17440   0.821   3.170   8.779  1.2997  1.8460 -0.3810
  156SAPE  C31817441   0.623   3.166   8.869  0.1248  0.4763 -0.0652
  156SAPE  H18X17442   0.655   3.134   8.970  2.7358  0.1844 -0.9003
  156SAPE  H18Y17443   0.578   3.080   8.815 -0.4805  0.1608  0.9021
  156SAPE  H18Z17444   0.531   3.226   8.885 -1.9128 -2.2338 -0.8940
  157SAPE     N17445   3.468   6.333   6.056 -0.3714 -0.2619 -0.8043
  157SAPE   HN117446   3.458   6.236   6.091 -1.2446  0.4647  1.0882
  157SAPE   HN217447   3.455   6.383   6.146 -3.2168 -1.9899 -0.1362
  157SAPE   HN317448   3.388   6.345   5.991 -2.4996 -1.4735  1.4404
  157SAPE   C1217449   3.604   6.334   5.987  0.1542  0.4080  0.2769
  157SAPE  H12A17450   3.676   6.378   6.060  0.4026  2.3046 -1.0405
  157SAPE  H12B17451   3.608   6.404   5.901 -0.3976 -0.6021 -0.5919
  157SAPE   C1117452   3.659   6.192   5.952  0.0062 -0.1902  0.2258
  157SAPE  H11A17453   3.748   6.229   5.897 -0.0848 -0.6064 -0.2046
  157SAPE  H11B17454   3.600   6.134   5.878 -1.0572  1.2113 -0.0640
  157SAPE     P17455   3.601   6.013   6.134  0.2977 -0.0571 -0.2230
  157SAPE   O1317456   3.462   6.070   6.116  0.0406 -0.5165 -0.8341
  157SAPE   O1417457   3.632   5.876   6.087 -0.2368  0.7845 -0.0329
  157SAPE   O1217458   3.707   6.118   6.067 -0.0585 -0.1869  0.0466
  157SAPE   O1117459   3.624   6.029   6.289 -0.5230  0.4795  0.3074
  157SAPE    C117460   3.736   6.084   6.358 -0.7357 -0.2689 -0.4808
  157SAPE    HA17461   3.787   6.158   6.294  0.8361 -0.3860  0.5697
  157SAPE    HB17462   3.699   6.141   6.447 -0.3356  0.3130 -0.6837
  157SAPE    C217463   3.842   5.978   6.400  0.1069  0.0924 -0.6117
  157SAPE    HS17464   3.892   5.938   6.309 -0.3569  0.3112 -0.9639
  157SAPE   O2117465   3.781   5.870   6.479 -0.0796 -0.1745  0.7577
  157SAPE   C2117466   3.859   5.771   6.510 -0.2478  0.1326  0.0813
  157SAPE   O2217467   3.966   5.748   6.456  0.7295  0.3757  0.1508
  157SAPE   C2217468   3.802   5.691   6.628  0.7389  0.6592  0.3932
  157SAPE   H2R17469   3.723   5.745   6.685 -0.8692 -0.2428 -0.8761
  157SAPE   H2S17470   3.752   5.607   6.574 -1.6361  2.0154  0.3545
  157SAPE    C317471   3.949   6.047   6.483 -0.6758 -0.8271 -0.1293
  157SAPE    HX17472   3.978   6.140   6.428  0.9402 -1.3930 -0.3006
  157SAPE    HY17473   4.044   5.990   6.487 -0.2096 -0.0952 -0.5858
  157SAPE   O3117474   3.902   6.096   6.614  0.5617  0.1644 -0.0830
  157SAPE   C3117475   3.980   6.060   6.716 -0.4748  0.9191 -0.1941
  157SAPE   O3217476   4.084   6.000   6.708 -0.1557  0.0093  0.1351
  157SAPE   C3217477   3.928   6.103   6.846 -0.1253  0.2740 -0.6883
  157SAPE   H2X17478   3.821   6.075   6.852 -0.0693  0.0298 -0.8144
  157SAPE   H2Y17479   3.929   6.214   6.850  1.1088  0.3110 -1.5663
  157SAPE   C2317480   3.896   5.619   6.729 -1.0808 -0.0480  0.0259
  157SAPE   H3R17481   3.945   5.707   6.777 -2.2000  0.5003  0.1859
  157SAPE   H3S17482   3.976   5.567   6.672  0.2022  0.5599  1.1926
  157SAPE   C2417483   3.816   5.541   6.836 -0.3843 -0.3293  0.2864
  157SAPE   H4R17484   3.734   5.478   6.795 -0.3817  0.5917 -1.2326
  157SAPE   H4S17485   3.768   5.625   6.891 -2.4827 -1.6059  0.5111
  157SAPE   C2517486   3.912   5.468   6.919  0.1228 -0.0791 -0.9457
  157SAPE   H5R17487   3.995   5.418   6.868 -0.6949  0.2548 -2.6733
  157SAPE   C2617488   3.895   5.444   7.054 -0.2153 -0.1543 -0.0185
  157SAPE   H6R17489   3.985   5.409   7.106 -1.0527  0.4354  1.9091
  157SAPE   C2717490   3.785   5.493   7.143  0.3671 -0.2852 -0.6095
  157SAPE   H7R17491   3.744   5.411   7.206 -1.4859  0.6686 -0.5058
  157SAPE   H7S17492   3.695   5.508   7.079 -0.6244  2.4090  1.2157
  157SAPE   C2817493   3.811   5.625   7.211  0.3990 -0.5396 -0.1383
  157SAPE   H8R17494   3.799   5.707   7.139 -2.1345  0.0441  0.8451
  157SAPE   C2917495   3.833   5.644   7.346  0.5873 -0.2989  0.6294
  157SAPE   H9R17496   3.853   5.744   7.386 -0.9447  0.6709 -0.8941
  157SAPE  C21017497   3.846   5.531   7.449  0.0772 -0.5833  0.3865
  157SAPE  H10R17498   3.952   5.513   7.477  0.1636  1.0038  1.2200
  157SAPE  H10S17499   3.797   5.444   7.400 -0.4299  0.0102 -0.1876
  157SAPE  C21117500   3.757   5.561   7.566 -0.0677  0.3055 -0.7071
  157SAPE  H11R17501   3.650   5.555   7.542 -0.5199  1.8769  0.7007
  157SAPE  C21217502   3.809   5.603   7.685 -0.1124  0.3263 -0.6495
  157SAPE  H12R17503   3.737   5.617   7.768 -0.6032  0.2748 -1.0596
  157SAPE  C21317504   3.960   5.612   7.733  0.7676 -0.5652  0.2932
  157SAPE  H13R17505   3.966   5.721   7.754  0.9410 -0.7738  1.3667
  157SAPE  H13S17506   4.020   5.587   7.643 -0.0332 -1.6475  0.0510
  157SAPE  C21417507   4.001   5.526   7.848  0.3665  0.5105  0.3981
  157SAPE  H14R17508   4.024   5.422   7.821  0.4143  0.5093  0.4412
  157SAPE  C21517509   4.019   5.568   7.973 -0.1569 -0.6249 -0.0192
  157SAPE  H15R17510   4.063   5.492   8.040  3.0238  1.9992  1.1357
  157SAPE  C21617511   3.998   5.706   8.044 -0.0475  0.0342 -0.5233
  157SAPE  H16R17512   3.887   5.716   8.055 -0.5909 -3.4974 -1.4897
  157SAPE  H16S17513   4.030   5.794   7.986 -1.1796  0.7025 -0.1764
  157SAPE  C21717514   4.073   5.695   8.178  0.2192 -0.7852  0.2221
  157SAPE  H17R17515   4.183   5.696   8.162  0.1757  3.2069 -0.8808
  157SAPE  H17S17516   4.039   5.604   8.231 -1.1202  1.0136  2.7030
  157SAPE  C21817517   4.047   5.820   8.275 -0.1955 -0.2204  0.8151
  157SAPE  H18R17518   3.938   5.840   8.287 -0.4444 -0.6000 -0.6334
  157SAPE  H18S17519   4.100   5.913   8.244  0.5248 -1.9000 -3.7940
  157SAPE  C21917520   4.101   5.787   8.422 -0.6081  0.4350 -0.0276
  157SAPE  H19R17521   4.211   5.805   8.423 -0.4178 -0.4352 -1.7960
  157SAPE  H19S17522   4.079   5.684   8.456  0.2351 -0.0149 -0.7828
  157SAPE  C22017523   4.047   5.893   8.521  0.1865 -0.1497  0.1323
  157SAPE  H20R17524   4.022   5.985   8.463 -1.2169 -2.4451 -3.2362
  157SAPE  H20S17525   4.115   5.922   8.603 -0.4862  0.4352  0.4988
  157SAPE  H20T17526   3.951   5.861   8.566  0.7297  0.3573  1.7219
  157SAPE   C3317527   4.003   6.033   6.960  0.0298 -0.1340  0.1569
  157SAPE   H3X17528   4.109   6.064   6.947 -0.6284  2.6012  0.7210
  157SAPE   H3Y17529   4.000   5.922   6.949 -2.0076 -0.0360 -0.8576
  157SAPE   C3417530   3.968   6.056   7.108  0.0471 -0.4258  0.4025
  157SAPE   H4X17531   3.976   6.165   7.129 -0.8242 -0.1590 -0.5910
  157SAPE   H4Y17532   4.044   6.016   7.179  2.2637  2.5003 -0.1255
  157SAPE   C3517533   3.828   5.999   7.150 -0.0456 -0.3028  0.4717
  157SAPE   H5X17534   3.824   5.896   7.110 -1.5266 -0.8884  1.9934
  157SAPE   H5Y17535   3.748   6.059   7.103 -1.0203 -0.9777  1.2200
  157SAPE   C3617536   3.808   6.008   7.304 -0.1803 -0.6041  0.5318
  157SAPE   H6X17537   3.846   6.108   7.336  2.0519 -0.3578 -2.4861
  157SAPE   H6Y17538   3.893   5.949   7.343  1.7125  1.5267 -0.1456
  157SAPE   C3717539   3.678   5.948   7.351 -0.9298  0.4678  0.4908
  157SAPE   H7X17540   3.653   5.847   7.311 -3.6482  0.3232  2.3308
  157SAPE   H7Y17541   3.602   6.021   7.318 -0.7363  1.7668  2.7369
  157SAPE   C3817542   3.669   5.945   7.507 -0.3662 -0.5746 -0.0874
  157SAPE   H8X17543   3.662   6.045   7.556 -1.7135 -1.3817  1.5082
  157SAPE   H8Y17544   3.753   5.888   7.551 -1.0330 -0.4848  1.3801
  157SAPE   C3917545   3.536   5.881   7.542  1.0329  0.4176  0.0371
  157SAPE   H9X17546   3.533   5.784   7.489  3.1832  1.1807 -1.6589
  157SAPE   H9Y17547   3.449   5.938   7.502  1.5573  0.4262 -1.1257
  157SAPE  C31017548   3.512   5.860   7.694  0.5967  0.0979  0.6310
  157SAPE  H10X17549   3.491   5.958   7.742 -2.4524 -0.9997  1.8077
  157SAPE  H10Y17550   3.613   5.829   7.726  0.3115 -1.7411 -0.0897
  157SAPE  C31117551   3.421   5.756   7.748  0.2136  0.0983 -1.0307
  157SAPE  H11X17552   3.429   5.673   7.676  1.6210  0.7661 -1.6689
  157SAPE  H11Y17553   3.315   5.790   7.738  1.0266  2.1561 -3.8121
  157SAPE  C31217554   3.451   5.702   7.889  0.2716  0.6371  0.7924
  157SAPE  H12X17555   3.542   5.639   7.879 -0.1529  0.2715 -1.3044
  157SAPE  H12Y17556   3.361   5.643   7.918 -0.3658  1.4284  0.4574
  157SAPE  C31317557   3.463   5.804   8.004 -0.6067  0.0723  0.2190
  157SAPE  H13X17558   3.379   5.875   7.991 -0.6859 -0.1384 -0.4458
  157SAPE  H13Y17559   3.556   5.862   7.988 -1.5031  1.0797 -1.6748
  157SAPE  C31417560   3.476   5.739   8.141  0.0952 -0.1974  0.3238
  157SAPE  H14X17561   3.422   5.644   8.161  0.3422 -0.2919  0.5568
  157SAPE  H14Y17562   3.442   5.814   8.216 -0.2985 -1.4597  1.4637
  157SAPE  C31517563   3.629   5.701   8.166  0.4331 -0.6025  0.3287
  157SAPE  H15X17564   3.700   5.780   8.133 -0.8994 -0.5435 -2.6424
  157SAPE  H15Y17565   3.667   5.624   8.095 -0.6643 -0.4930 -0.3892
  157SAPE  C31617566   3.656   5.657   8.310 -0.0931  0.4575 -0.0997
  157SAPE  H16X17567   3.766   5.642   8.317 -0.4697 -2.3716  1.6442
  157SAPE  H16Y17568   3.613   5.561   8.346 -1.6000  1.0158 -0.3503
  157SAPE  C31717569   3.627   5.766   8.418  0.6101 -0.5446 -0.1004
  157SAPE  H17X17570   3.520   5.795   8.415  0.9542  0.6969 -0.7136
  157SAPE  H17Y17571   3.689   5.855   8.397  0.0290  0.0226  0.5068
  157SAPE  C31817572   3.657   5.712   8.556 -0.5005  0.5382 -0.1163
  157SAPE  H18X17573   3.643   5.789   8.635  0.8626  0.6115  0.0784
  157SAPE  H18Y17574   3.766   5.696   8.568 -0.6964 -0.8009  0.0467
  157SAPE  H18Z17575   3.586   5.632   8.588  1.7182 -2.3750 -2.0229
  158SAPE     N17576   6.564   2.342   6.330 -0.2549  0.3178 -0.4190
  158SAPE   HN117577   6.479   2.397   6.350 -1.1600 -0.4988 -1.8471
  158SAPE   HN217578   6.535   2.244   6.307 -2.0281  0.5470  0.6392
  158SAPE   HN317579   6.627   2.335   6.413  1.7923 -2.2960 -2.0142
  158SAPE   C1217580   6.636   2.401   6.214  0.3619 -0.1862 -0.4364
  158SAPE  H12A17581   6.693   2.490   6.249  1.6867 -1.5296  0.9483
  158SAPE  H12B17582   6.558   2.436   6.143  0.7068  2.2338  0.2791
  158SAPE   C1117583   6.733   2.310   6.158  0.1545  0.3368  0.0434
  158SAPE  H11A17584   6.800   2.371   6.093 -1.0265  2.3488  0.6307
  158SAPE  H11B17585   6.677   2.245   6.088 -0.6332  1.8437 -0.7668
  158SAPE     P17586   6.920   2.135   6.206 -0.1216  0.3640 -0.4601
  158SAPE   O1317587   6.870   1.999   6.202 -0.0430 -0.4710 -0.0352
  158SAPE   O1417588   6.981   2.194   6.085 -0.2290  0.1795 -0.5432
  158SAPE   O1217589   6.797   2.236   6.256  0.3214  0.9298 -0.4509
  158SAPE   O1117590   7.012   2.142   6.331  0.0198  0.0453 -0.6861
  158SAPE    C117591   6.964   2.183   6.461  0.1550  0.3106 -0.1079
  158SAPE    HA17592   7.047   2.178   6.534 -1.9875 -2.5227  2.4322
  158SAPE    HB17593   6.936   2.290   6.471  0.9385  0.3883  1.4464
  158SAPE    C217594   6.858   2.088   6.531 -0.3186  0.2661  0.1867
  158SAPE    HS17595   6.773   2.077   6.460 -0.2363  1.0655 -0.0454
  158SAPE   O2117596   6.818   2.137   6.657 -0.1043 -0.4190  0.4119
  158SAPE   C2117597   6.751   2.249   6.653  0.3863 -0.7478 -0.0713
  158SAPE   O2217598   6.725   2.320   6.557  0.0337 -0.2712 -0.4588
  158SAPE   C2217599   6.689   2.285   6.788  0.9408  0.1642 -0.1938
  158SAPE   H2R17600   6.600   2.220   6.800  0.7128  0.1397 -1.7465
  158SAPE   H2S17601   6.760   2.263   6.871  1.1356  1.4070 -0.0111
  158SAPE    C317602   6.930   1.951   6.557  0.8735  0.0825 -0.5273
  158SAPE    HX17603   6.979   1.894   6.475 -0.8187 -1.9348 -0.2213
  158SAPE    HY17604   6.845   1.883   6.580 -0.6754  1.3335 -2.2396
  158SAPE   O3117605   7.038   1.963   6.659  0.1301  0.7041  0.1863
  158SAPE   C3117606   7.012   1.937   6.781  1.3428  0.3593 -0.6182
  158SAPE   O3217607   6.909   1.875   6.818 -0.3209  0.3258 -0.1942
  158SAPE   C3217608   7.108   2.004   6.867  0.3850  0.3294 -0.1040
  158SAPE   H2X17609   7.064   2.090   6.922 -0.1079  1.9760 -2.8616
  158SAPE   H2Y17610   7.185   2.053   6.805  0.6654  0.5782  0.4411
  158SAPE   C2317611   6.635   2.432   6.793 -0.2708  0.0053  1.3315
  158SAPE   H3R17612   6.560   2.444   6.712 -0.2119 -1.3352  1.0605
  158SAPE   H3S17613   6.716   2.504   6.766  0.3211 -1.3291 -0.6895
  158SAPE   C2417614   6.573   2.465   6.925 -0.2071 -0.1812 -0.3216
  158SAPE   H4R17615   6.644   2.421   6.998 -0.3116 -0.6761 -0.5108
  158SAPE   H4S17616   6.473   2.418   6.935 -1.0484  1.1899 -1.8619
  158SAPE   C2517617   6.557   2.619   6.947 -0.4523 -0.0018 -0.3503
  158SAPE   H5R17618   6.544   2.666   6.849 -0.6568  0.5147 -0.0799
  158SAPE   C2617619   6.566   2.682   7.066 -0.7642 -0.0790  0.4482
  158SAPE   H6R17620   6.553   2.790   7.079  2.0210  0.2247  1.5554
  158SAPE   C2717621   6.606   2.605   7.191  0.1996 -0.1353 -0.3763
  158SAPE   H7R17622   6.694   2.538   7.190 -0.2483 -0.9686  3.5094
  158SAPE   H7S17623   6.520   2.535   7.200 -0.6614  0.6602 -1.9087
  158SAPE   C2817624   6.615   2.690   7.316  0.2465  1.1233 -0.1215
  158SAPE   H8R17625   6.626   2.797   7.292  2.2276  0.3596 -3.4119
  158SAPE   C2917626   6.617   2.642   7.446  0.3055 -0.1231  0.0858
  158SAPE   H9R17627   6.616   2.721   7.522  2.3448  0.8125 -0.7722
  158SAPE  C21017628   6.602   2.497   7.491 -0.4747  0.3181  0.4402
  158SAPE  H10R17629   6.644   2.429   7.414  1.5407  0.0418  1.7267
  158SAPE  H10S17630   6.492   2.482   7.494 -0.6549  1.6286  0.9961
  158SAPE  C21117631   6.675   2.460   7.623 -0.5427  0.6720 -0.5481
  158SAPE  H11R17632   6.782   2.449   7.601 -0.6427  2.7351 -2.5003
  158SAPE  C21217633   6.626   2.462   7.747  0.7952 -0.0635 -0.3313
  158SAPE  H12R17634   6.683   2.440   7.838  1.8116  0.1425 -0.9025
  158SAPE  C21317635   6.479   2.498   7.768 -0.2751  0.0033  0.1985
  158SAPE  H13R17636   6.437   2.574   7.699  1.9913  2.4975  1.3572
  158SAPE  H13S17637   6.469   2.546   7.868  2.1603  0.8712  0.0960
  158SAPE  C21417638   6.379   2.386   7.769 -0.3497  0.1862  0.3972
  158SAPE  H14R17639   6.367   2.333   7.673 -2.3704  0.1876  0.6100
  158SAPE  C21517640   6.327   2.328   7.878 -0.0128  0.1741  0.8176
  158SAPE  H15R17641   6.255   2.246   7.865 -1.6247  1.6404  0.2398
  158SAPE  C21617642   6.340   2.353   8.024 -0.0282 -0.1522  0.1815
  158SAPE  H16R17643   6.443   2.367   8.062  0.2592  0.5957 -0.8192
  158SAPE  H16S17644   6.302   2.264   8.078 -0.4785 -0.7178 -1.0235
  158SAPE  C21717645   6.251   2.472   8.077 -0.5921 -0.5720 -0.1735
  158SAPE  H17R17646   6.283   2.561   8.018 -1.2895 -0.4250 -0.3409
  158SAPE  H17S17647   6.272   2.497   8.183 -0.8376 -0.2898 -0.1919
  158SAPE  C21817648   6.106   2.450   8.067 -0.4101 -0.5582  0.4210
  158SAPE  H18R17649   6.068   2.365   8.127 -2.0236  0.2501  0.5887
  158SAPE  H18S17650   6.073   2.424   7.964 -4.3234  0.7065  1.1623
  158SAPE  C21917651   6.017   2.567   8.118 -0.4217  0.0809 -0.4942
  158SAPE  H19R17652   6.028   2.658   8.056  0.2181 -1.8399 -3.4295
  158SAPE  H19S17653   6.062   2.592   8.216  0.4359 -0.1177 -0.8252
  158SAPE  C22017654   5.867   2.534   8.112  0.0154 -0.5584 -0.1569
  158SAPE  H20R17655   5.841   2.441   8.166  2.2298 -1.0745  0.0928
  158SAPE  H20S17656   5.840   2.528   8.004  2.1276 -0.5535 -0.7335
  158SAPE  H20T17657   5.813   2.623   8.152 -1.1630 -0.1970 -2.3322
  158SAPE   C3317658   7.179   1.897   6.967 -0.0349 -0.1013  0.9669
  158SAPE   H3X17659   7.273   1.937   7.010  1.1501 -4.1964  2.6138
  158SAPE   H3Y17660   7.203   1.807   6.905  0.3538  0.8169 -0.2656
  158SAPE   C3417661   7.094   1.850   7.084  0.1065  0.2532 -0.3525
  158SAPE   H4X17662   7.160   1.767   7.117 -0.4563 -0.5556 -1.2484
  158SAPE   H4Y17663   6.998   1.805   7.052  0.4850 -2.8496  2.3116
  158SAPE   C3517664   7.059   1.963   7.188  0.0077 -0.0843 -0.0148
  158SAPE   H5X17665   6.986   2.027   7.134 -1.0861 -0.2365  1.2382
  158SAPE   H5Y17666   7.144   2.025   7.224 -0.8634  0.5663  0.9777
  158SAPE   C3617667   7.007   1.912   7.318  0.6575 -0.0165  0.2162
  158SAPE   H6X17668   6.922   1.846   7.293  0.5702 -0.3117  1.2414
  158SAPE   H6Y17669   6.957   1.993   7.376  0.0072  0.1997 -0.6373
  158SAPE   C3717670   7.095   1.847   7.416 -0.7572 -0.2669 -0.1019
  158SAPE   H7X17671   7.149   1.770   7.357  0.7426  0.5256  0.1959
  158SAPE   H7Y17672   7.159   1.929   7.454 -0.9122 -0.2595  0.1440
  158SAPE   C3817673   7.029   1.796   7.540  0.0422  1.2015 -0.1308
  158SAPE   H8X17674   6.942   1.732   7.513  0.4271  0.7429 -0.3041
  158SAPE   H8Y17675   6.997   1.884   7.599  1.1311  0.5263  1.5416
  158SAPE   C3917676   7.123   1.721   7.641 -0.3759  0.3034  0.9651
  158SAPE   H9X17677   7.219   1.766   7.673  0.2374 -0.6710  0.5440
  158SAPE   H9Y17678   7.144   1.619   7.602  0.3460  0.8337 -0.0674
  158SAPE  C31017679   7.060   1.697   7.779 -0.5371  0.3296  0.1029
  158SAPE  H10X17680   7.024   1.788   7.833 -1.8048 -0.3021  0.3579
  158SAPE  H10Y17681   7.133   1.660   7.854 -0.0777  1.2329  0.1208
  158SAPE  C31117682   6.946   1.595   7.778  0.1835  0.6862  0.1236
  158SAPE  H11X17683   6.995   1.497   7.794 -0.8368 -0.1556 -1.5752
  158SAPE  H11Y17684   6.907   1.582   7.675  0.9602 -0.1319 -0.0767
  158SAPE  C31217685   6.826   1.627   7.860  0.0631  0.0990 -0.5887
  158SAPE  H12X17686   6.784   1.725   7.831 -0.5291 -1.0081 -3.8784
  158SAPE  H12Y17687   6.836   1.626   7.971 -1.4185  1.3637 -0.4017
  158SAPE  C31317688   6.710   1.522   7.841  0.5783  0.4634  0.6397
  158SAPE  H13X17689   6.712   1.515   7.730 -1.0901 -0.1136  0.6231
  158SAPE  H13Y17690   6.611   1.565   7.868 -0.9782 -4.2509  3.6074
  158SAPE  C31417691   6.736   1.384   7.907 -0.2954  0.3936 -0.2150
  158SAPE  H14X17692   6.826   1.401   7.970  0.8800  1.5668 -2.1061
  158SAPE  H14Y17693   6.744   1.313   7.822  0.6971  1.5677 -1.1522
  158SAPE  C31517694   6.607   1.338   7.979 -0.3586 -0.0439  0.3615
  158SAPE  H15X17695   6.625   1.237   8.020  3.6167  0.4644  0.2639
  158SAPE  H15Y17696   6.526   1.337   7.902  0.8610 -1.9102 -0.9691
  158SAPE  C31617697   6.587   1.428   8.103 -0.2506  0.3478  0.9844
  158SAPE  H16X17698   6.602   1.537   8.091  0.1238  0.2859  0.8710
  158SAPE  H16Y17699   6.675   1.390   8.160  1.7541 -2.5890 -3.5370
  158SAPE  C31717700   6.459   1.404   8.175  0.9054 -0.2257 -0.6233
  158SAPE  H17X17701   6.378   1.444   8.110  0.0967 -2.4197 -1.0611
  158SAPE  H17Y17702   6.457   1.461   8.270  1.6434  0.6796 -1.1375
  158SAPE  C31817703   6.419   1.258   8.215  0.2014 -0.7433 -0.3401
  158SAPE  H18X17704   6.339   1.251   8.293 -0.3790  4.3649 -0.1487
  158SAPE  H18Y17705   6.509   1.203   8.248  0.7800  0.8711  0.9155
  158SAPE  H18Z17706   6.377   1.205   8.127  1.4294 -2.4936  0.0762
  159SAPE     N17707   5.710   6.088   5.829  0.6342 -0.0620  0.3777
  159SAPE   HN117708   5.743   6.164   5.767  1.7310 -1.0776 -0.3332
  159SAPE   HN217709   5.761   6.095   5.919  1.5118 -0.9313 -0.0314
  159SAPE   HN317710   5.721   5.991   5.794  1.9595  0.3958 -0.5443
  159SAPE   C1217711   5.562   6.095   5.860 -0.5463  0.2806  0.2551
  159SAPE  H12A17712   5.511   6.057   5.769  1.8920 -0.8959 -0.7307
  159SAPE  H12B17713   5.538   6.202   5.878  3.2646  1.6134 -1.3295
  159SAPE   C1117714   5.528   6.009   5.981 -0.6749  0.6474 -0.2877
  159SAPE  H11A17715   5.553   5.901   5.971 -0.9921  0.3692  1.5205
  159SAPE  H11B17716   5.418   6.022   5.989 -0.8926  1.8740 -3.5300
  159SAPE     P17717   5.546   6.157   6.193  0.2183  0.1529 -0.7215
  159SAPE   O1317718   5.612   6.278   6.155 -0.1193 -0.5427  0.3410
  159SAPE   O1417719   5.398   6.147   6.198 -0.4503 -0.8229  0.5359
  159SAPE   O1217720   5.592   6.044   6.103 -0.2349 -0.0116  0.5194
  159SAPE   O1117721   5.601   6.114   6.333 -0.4316  0.0471 -0.4733
  159SAPE    C117722   5.714   6.034   6.352 -0.6080  0.0283  0.9401
  159SAPE    HA17723   5.677   5.932   6.331  0.0088  0.2364 -1.4882
  159SAPE    HB17724   5.798   6.045   6.280  0.5939 -1.3947  2.0859
  159SAPE    C217725   5.771   6.031   6.496  0.1371 -0.8736  0.5545
  159SAPE    HS17726   5.863   5.969   6.491  0.6381 -0.0194 -1.3472
  159SAPE   O2117727   5.663   5.990   6.580  0.3245  0.0112 -0.6533
  159SAPE   C2117728   5.673   5.857   6.611  0.8890  0.5039  0.3554
  159SAPE   O2217729   5.752   5.777   6.561 -0.1360 -0.8739 -0.7996
  159SAPE   C2217730   5.551   5.812   6.695 -0.8775 -0.1049 -0.0153
  159SAPE   H2R17731   5.483   5.899   6.708  0.6453  1.4354 -1.8207
  159SAPE   H2S17732   5.487   5.747   6.633 -0.6409 -0.2913 -0.0662
  159SAPE    C317733   5.817   6.172   6.545 -0.1996  1.2569 -0.3347
  159SAPE    HX17734   5.736   6.246   6.528 -0.7858  0.7837  0.3683
  159SAPE    HY17735   5.908   6.204   6.489 -1.0363  1.7692 -1.4407
  159SAPE   O3117736   5.841   6.161   6.686 -0.3487 -0.3239 -0.1246
  159SAPE   C3117737   5.876   6.269   6.751 -0.4424  0.0977  0.0804
  159SAPE   O3217738   5.863   6.383   6.707  0.1463 -0.1140  0.0064
  159SAPE   C3217739   5.911   6.244   6.895 -0.5085 -0.5891 -0.2921
  159SAPE   H2X17740   6.013   6.200   6.905  0.8257  1.8971 -2.1441
  159SAPE   H2Y17741   5.837   6.169   6.932  0.9289 -3.0125 -2.0278
  159SAPE   C2317742   5.585   5.763   6.833 -0.0693 -0.1244  0.0962
  159SAPE   H3R17743   5.671   5.693   6.828  1.1190  1.1827  1.4103
  159SAPE   H3S17744   5.506   5.697   6.875  0.4540 -0.1970  1.0013
  159SAPE   C2417745   5.612   5.873   6.932 -0.8550  0.5779  0.2332
  159SAPE   H4R17746   5.522   5.939   6.938 -0.1635  1.4692  0.9731
  159SAPE   H4S17747   5.695   5.939   6.901  1.4748 -2.0919  0.3502
  159SAPE   C2517748   5.652   5.822   7.068  0.5111  0.3029  0.2145
  159SAPE   H5R17749   5.689   5.719   7.077 -0.6012 -0.1932 -0.6791
  159SAPE   C2617750   5.620   5.878   7.189  0.1974 -0.7473 -0.1185
  159SAPE   H6R17751   5.648   5.833   7.285 -0.8554  2.9714  2.1582
  159SAPE   C2717752   5.545   6.014   7.213  0.4367  0.1422  0.1714
  159SAPE   H7R17753   5.581   6.077   7.128 -1.8103 -1.4661 -2.1073
  159SAPE   H7S17754   5.586   6.052   7.310  2.2382  0.4291 -0.6614
  159SAPE   C2817755   5.395   6.003   7.201  0.4712  0.2821 -0.4896
  159SAPE   H8R17756   5.372   6.011   7.094  0.2893  0.5702 -0.4285
  159SAPE   C2917757   5.306   5.983   7.300  0.6780  0.5259 -0.2631
  159SAPE   H9R17758   5.198   5.983   7.279  0.5689  0.2107  0.2770
  159SAPE  C21017759   5.335   5.965   7.444  0.2394  0.2889  0.6045
  159SAPE  H10R17760   5.442   5.945   7.467 -0.6076 -1.8919  3.0256
  159SAPE  H10S17761   5.287   5.870   7.475 -2.9103  2.2180  2.1702
  159SAPE  C21117762   5.289   6.080   7.526 -0.3152  0.0894 -0.2391
  159SAPE  H11R17763   5.194   6.069   7.579  0.8786  2.4870  2.7228
  159SAPE  C21217764   5.360   6.194   7.556 -0.0838 -0.1905 -0.4243
  159SAPE  H12R17765   5.302   6.272   7.607 -0.5112 -0.5503 -0.3509
  159SAPE  C21317766   5.498   6.248   7.520  0.4042  0.5318 -0.3915
  159SAPE  H13R17767   5.491   6.286   7.416  0.0512 -0.1679 -0.6273
  159SAPE  H13S17768   5.571   6.164   7.524  0.3979  0.5298 -0.3190
  159SAPE  C21417769   5.537   6.367   7.602  0.0360  0.2100  0.7471
  159SAPE  H14R17770   5.538   6.459   7.543  1.9479  0.1137  0.5711
  159SAPE  C21517771   5.582   6.376   7.729 -0.4883  0.2851  0.1086
  159SAPE  H15R17772   5.620   6.470   7.772 -1.1709 -0.0345  1.4841
  159SAPE  C21617773   5.591   6.257   7.822 -0.7436  0.0648  0.1577
  159SAPE  H16R17774   5.696   6.228   7.846  0.1775  0.6896 -2.7091
  159SAPE  H16S17775   5.547   6.166   7.776  0.8852 -0.5984 -0.1709
  159SAPE  C21717776   5.519   6.274   7.957 -0.4897 -0.7386  0.1430
  159SAPE  H17R17777   5.527   6.174   8.003  2.3988  0.1226  1.8092
  159SAPE  H17S17778   5.418   6.315   7.938 -0.0871  0.6116  0.7783
  159SAPE  C21817779   5.600   6.370   8.054  0.0138  0.2270 -0.4716
  159SAPE  H18R17780   5.604   6.471   8.009  1.1569 -0.2847 -1.5938
  159SAPE  H18S17781   5.705   6.333   8.065 -0.4962 -0.9255  0.9350
  159SAPE  C21917782   5.535   6.358   8.189 -0.3881 -0.5124 -0.2382
  159SAPE  H19R17783   5.527   6.250   8.215 -3.3097 -0.0734  1.0105
  159SAPE  H19S17784   5.429   6.392   8.186 -0.7280 -1.0232  2.6928
  159SAPE  C22017785   5.609   6.445   8.295  0.5842 -0.1829  0.0713
  159SAPE  H20R17786   5.615   6.551   8.265 -1.3826  0.6359  2.2623
  159SAPE  H20S17787   5.709   6.414   8.331  0.8398  2.8762  2.3739
  159SAPE  H20T17788   5.551   6.434   8.389  2.3929 -0.7092  1.1748
  159SAPE   C3317789   5.896   6.375   6.970  0.5590  0.7191  0.2640
  159SAPE   H3X17790   5.812   6.434   6.928  0.3656  0.1213 -0.1868
  159SAPE   H3Y17791   5.992   6.428   6.949  0.2789  0.4701 -1.8782
  159SAPE   C3417792   5.867   6.366   7.121 -0.9582 -0.5533 -0.0836
  159SAPE   H4X17793   5.760   6.343   7.139 -0.7346 -1.7842 -0.2296
  159SAPE   H4Y17794   5.873   6.472   7.154 -0.6746 -0.7830  0.6314
  159SAPE   C3517795   5.941   6.264   7.207 -0.2499  0.0335 -0.8926
  159SAPE   H5X17796   6.044   6.294   7.234 -0.6379  0.7062 -0.1156
  159SAPE   H5Y17797   5.937   6.171   7.146 -1.7484 -0.8568  0.4552
  159SAPE   C3617798   5.871   6.234   7.342 -0.2057  0.4115 -0.6709
  159SAPE   H6X17799   5.765   6.210   7.319 -1.2657  2.6067  1.5524
  159SAPE   H6Y17800   5.870   6.328   7.400  0.6201  1.1898 -1.8831
  159SAPE   C3717801   5.939   6.126   7.430 -0.0381 -0.0640 -0.6055
  159SAPE   H7X17802   6.038   6.169   7.456  0.3424 -0.7419 -0.9166
  159SAPE   H7Y17803   5.942   6.038   7.363  3.2642  1.2149 -2.3357
  159SAPE   C3817804   5.868   6.088   7.560  0.2490 -0.2751  0.7971
  159SAPE   H8X17805   5.763   6.076   7.523 -0.0211 -0.4913  1.6158
  159SAPE   H8Y17806   5.863   6.177   7.625 -3.5634  2.2243 -2.4252
  159SAPE   C3917807   5.910   5.965   7.625 -0.1228  0.2317 -0.2002
  159SAPE   H9X17808   6.020   5.971   7.640 -0.0728 -2.3023  0.8226
  159SAPE   H9Y17809   5.892   5.882   7.555 -0.5813  0.0757  0.1034
  159SAPE  C31017810   5.841   5.959   7.760  0.2025 -0.5500 -0.5522
  159SAPE  H10X17811   5.844   6.060   7.806 -0.8791 -0.1858 -1.2340
  159SAPE  H10Y17812   5.909   5.900   7.826  2.4446  2.8698  0.4485
  159SAPE  C31117813   5.698   5.904   7.757 -0.4461 -0.5847 -0.3453
  159SAPE  H11X17814   5.711   5.800   7.721 -1.2210 -0.0637 -2.2765
  159SAPE  H11Y17815   5.638   5.961   7.682  0.1792  0.9078  0.2444
  159SAPE  C31217816   5.626   5.903   7.894 -0.6432 -0.1759 -0.1265
  159SAPE  H12X17817   5.625   6.005   7.936 -1.9698 -0.0350 -0.4618
  159SAPE  H12Y17818   5.679   5.826   7.954  1.3266  0.0456 -1.4622
  159SAPE  C31317819   5.481   5.849   7.884  0.0681  0.3516  0.0252
  159SAPE  H13X17820   5.470   5.756   7.825  1.8364  0.2814 -0.2331
  159SAPE  H13Y17821   5.428   5.931   7.831 -0.2819  0.9941  1.3144
  159SAPE  C31417822   5.410   5.824   8.022  0.1668 -0.3746 -0.5642
  159SAPE  H14X17823   5.304   5.802   7.994 -0.1850  0.3943  0.1028
  159SAPE  H14Y17824   5.434   5.914   8.083 -1.6606  0.5548 -1.1351
  159SAPE  C31517825   5.479   5.715   8.105 -0.3504 -0.2711  0.7000
  159SAPE  H15X17826   5.570   5.763   8.146 -1.9740  2.0481  1.8776
  159SAPE  H15Y17827   5.502   5.629   8.039  1.0031  1.7028 -1.5722
  159SAPE  C31617828   5.404   5.666   8.231 -1.1267  0.5073  0.0590
  159SAPE  H16X17829   5.382   5.738   8.312 -0.9260  1.8156 -1.0160
  159SAPE  H16Y17830   5.472   5.589   8.273 -0.2513  1.5503  0.5976
  159SAPE  C31717831   5.272   5.596   8.195  0.1537 -0.2782  0.6872
  159SAPE  H17X17832   5.281   5.536   8.101  0.0635  1.7486 -0.6874
  159SAPE  H17Y17833   5.194   5.669   8.165 -0.1850  0.0589  2.2966
  159SAPE  C31817834   5.228   5.505   8.305 -0.4851  0.4194  0.1952
  159SAPE  H18X17835   5.147   5.434   8.277 -2.4846  1.9352  1.8563
  159SAPE  H18Y17836   5.188   5.560   8.392  0.8236  0.1370  0.9979
  159SAPE  H18Z17837   5.311   5.451   8.355 -0.1027  0.0491 -0.7934
  160SAPE     N17838   0.335   4.055   6.384  0.3492 -0.6137  0.5586
  160SAPE   HN117839   0.370   3.958   6.376  1.7033 -0.0005 -1.8422
  160SAPE   HN217840   0.297   4.096   6.296  1.9281  1.9801  0.9759
  160SAPE   HN317841   0.411   4.120   6.413 -0.1134  1.9094 -3.2092
  160SAPE   C1217842   0.214   4.060   6.473 -0.5455 -0.1506 -1.0668
  160SAPE  H12A17843   0.238   4.019   6.573 -2.1516 -1.4310 -1.1677
  160SAPE  H12B17844   0.136   3.997   6.425 -2.3644 -0.0455  1.5269
  160SAPE   C1117845   0.166   4.210   6.483 -0.7385 -0.0530 -0.5390
  160SAPE  H11A17846   0.249   4.271   6.523 -0.1857 -0.9643 -0.2793
  160SAPE  H11B17847   0.077   4.205   6.550 -2.2125 -1.8241 -2.5323
  160SAPE     P17848   0.094   4.406   6.333 -0.1262 -0.0498 -0.1989
  160SAPE   O1317849   0.221   4.487   6.358  0.1862 -0.1643  0.2518
  160SAPE   O1417850   0.021   4.421   6.213 -1.1355 -0.0211  0.3663
  160SAPE   O1217851   0.133   4.255   6.351 -0.3570 -0.3596 -0.5719
  160SAPE   O1117852  -0.003   4.423   6.457  0.8517 -0.5705 -0.4746
  160SAPE    C117853  -0.006   4.541   6.541  0.5244  0.6370  0.6777
  160SAPE    HA17854   0.096   4.585   6.547 -0.4430  2.9299  1.1249
  160SAPE    HB17855  -0.070   4.621   6.499  1.2285  0.2631 -1.2393
  160SAPE    C217856  -0.057   4.511   6.677  0.7330 -0.1891 -0.1681
  160SAPE    HS17857  -0.042   4.603   6.738 -1.1975  0.0576 -0.0243
  160SAPE   O2117858  -0.011   4.387   6.733  0.2784 -0.2870 -0.2227
  160SAPE   C2117859   0.111   4.396   6.776 -0.2215  0.2559  0.7267
  160SAPE   O2217860   0.186   4.493   6.764  0.3169  0.2970 -0.5268
  160SAPE   C2217861   0.156   4.263   6.828  0.2451  0.8297 -0.0809
  160SAPE   H2R17862   0.235   4.220   6.763  1.5624  3.1824 -0.1774
  160SAPE   H2S17863   0.202   4.286   6.927 -1.3829 -1.2597  1.2433
  160SAPE    C317864  -0.215   4.501   6.677  0.2959 -0.0729  0.6222
  160SAPE    HX17865  -0.245   4.405   6.630  1.1415  0.0368 -0.1731
  160SAPE    HY17866  -0.264   4.583   6.621 -0.7984 -1.7405 -0.9635
  160SAPE   O3117867  -0.274   4.516   6.811  0.2827  0.2847  0.5504
  160SAPE   C3117868  -0.387   4.455   6.830 -0.2288 -0.5029 -0.2532
  160SAPE   O3217869  -0.448   4.380   6.753 -0.0023 -0.6250 -0.2902
  160SAPE   C3217870  -0.404   4.471   6.984 -0.0960  0.0328  0.2297
  160SAPE   H2X17871  -0.377   4.572   7.022 -0.3594  0.1725  0.0546
  160SAPE   H2Y17872  -0.333   4.394   7.022  0.6204 -0.0999 -1.3100
  160SAPE   C2317873   0.050   4.151   6.839 -0.0505 -0.1528  0.1827
  160SAPE   H3R17874  -0.020   4.164   6.755  2.5080  3.1789 -1.6703
  160SAPE   H3S17875  -0.009   4.184   6.928 -0.1390  3.3130 -1.0124
  160SAPE   C2417876   0.091   4.011   6.860  0.1980 -0.4697 -0.0204
  160SAPE   H4R17877   0.178   3.993   6.793 -0.2391  1.9324 -1.3261
  160SAPE   H4S17878   0.002   3.950   6.830 -0.4922  0.8544 -0.7405
  160SAPE   C2517879   0.132   3.964   7.002 -0.0923 -0.6408 -0.3202
  160SAPE   H5R17880   0.219   4.013   7.049 -0.8374  0.7921 -0.3614
  160SAPE   C2617881   0.078   3.862   7.070 -0.3991  0.3225  0.0562
  160SAPE   H6R17882   0.132   3.852   7.165 -1.4692 -0.4358  0.6061
  160SAPE   C2717883  -0.029   3.771   7.031 -0.0975 -0.2804  0.4418
  160SAPE   H7R17884  -0.043   3.789   6.922  1.4849 -0.5251  0.1824
  160SAPE   H7S17885  -0.123   3.804   7.081 -0.6400 -0.8451 -0.1802
  160SAPE   C2817886   0.004   3.626   7.066 -0.1347  0.0437  0.7846
  160SAPE   H8R17887   0.027   3.563   6.979 -2.0965  0.3956 -0.0472
  160SAPE   C2917888   0.035   3.582   7.186 -0.0860  0.0581  0.1644
  160SAPE   H9R17889   0.029   3.472   7.195  1.0256 -0.2011 -1.8139
  160SAPE  C21017890   0.025   3.668   7.303  0.5720 -0.1735 -0.6726
  160SAPE  H10R17891  -0.062   3.737   7.300  2.0245  1.7528 -0.1911
  160SAPE  H10S17892   0.118   3.727   7.310  0.4046 -0.0220  0.5407
  160SAPE  C21117893   0.011   3.590   7.436 -0.1516 -0.3403  0.2281
  160SAPE  H11R17894  -0.059   3.506   7.441 -2.2049  1.3348  1.0061
  160SAPE  C21217895   0.090   3.601   7.543  0.5265  0.1089 -0.0488
  160SAPE  H12R17896   0.052   3.548   7.632 -1.9123  0.5624 -0.7460
  160SAPE  C21317897   0.200   3.695   7.577 -0.6801  0.1431 -0.1521
  160SAPE  H13R17898   0.191   3.715   7.686  0.4565 -0.3388  0.0361
  160SAPE  H13S17899   0.185   3.793   7.527 -1.5937  0.3283  0.4571
  160SAPE  C21417900   0.331   3.639   7.532  1.2142 -0.0416  0.2652
  160SAPE  H14R17901   0.349   3.664   7.427 -1.0914  0.9349  0.0342
  160SAPE  C21517902   0.422   3.574   7.611  0.7360 -0.2254  0.1011
  160SAPE  H15R17903   0.519   3.552   7.564  1.1946 -1.6264  1.6349
  160SAPE  C21617904   0.407   3.546   7.760  0.0374  0.1787  0.5238
  160SAPE  H16R17905   0.412   3.435   7.767 -1.4367  0.0484 -0.1307
  160SAPE  H16S17906   0.309   3.575   7.801 -1.5622 -2.5983 -0.9903
  160SAPE  C21717907   0.529   3.612   7.843 -0.3401  0.3285 -0.1599
  160SAPE  H17R17908   0.543   3.722   7.838 -1.1454  0.4816  0.7075
  160SAPE  H17S17909   0.620   3.563   7.803  0.3253  0.3735  1.2528
  160SAPE  C21817910   0.530   3.573   7.991 -0.4174 -0.7910 -0.1281
  160SAPE  H18R17911   0.635   3.584   8.026 -0.8202  0.2804  0.8353
  160SAPE  H18S17912   0.507   3.465   7.992  0.6393 -1.0863 -2.1780
  160SAPE  C21917913   0.443   3.658   8.086  0.5652  0.0875 -0.2697
  160SAPE  H19R17914   0.335   3.633   8.073  1.1814 -3.7985  0.6386
  160SAPE  H19S17915   0.452   3.766   8.065  2.0226  0.2897  1.2373
  160SAPE  C22017916   0.461   3.629   8.238 -0.2462  0.6054  0.2411
  160SAPE  H20R17917   0.474   3.522   8.263  0.1887  0.1912 -1.5651
  160SAPE  H20S17918   0.373   3.666   8.296  0.6827 -0.9340  2.7910
  160SAPE  H20T17919   0.552   3.676   8.279  1.1952 -0.5377 -1.4821
  160SAPE   C3317920  -0.545   4.422   7.025  0.8208 -0.5046 -0.3831
  160SAPE   H3X17921  -0.565   4.321   6.983  1.7093 -1.6722  1.8438
  160SAPE   H3Y17922  -0.625   4.487   6.981  0.6593 -1.6794 -1.8865
  160SAPE   C3417923  -0.573   4.398   7.182 -0.9451  0.2522  0.4273
  160SAPE   H4X17924  -0.557   4.495   7.234 -0.1004  0.0042  0.6396
  160SAPE   H4Y17925  -0.501   4.324   7.224 -1.4371 -0.3076  0.3038
  160SAPE   C3517926  -0.709   4.336   7.211 -0.1891  0.3890 -0.4808
  160SAPE   H5X17927  -0.718   4.233   7.170  1.6981  0.6151 -1.5970
  160SAPE   H5Y17928  -0.788   4.399   7.163  0.6678  1.6248 -0.3301
  160SAPE   C3617929  -0.749   4.335   7.356  0.2336 -0.3882 -0.3876
  160SAPE   H6X17930  -0.751   4.436   7.402  0.5664  0.0079 -1.2318
  160SAPE   H6Y17931  -0.685   4.263   7.413 -0.8503 -0.0583  1.3277
  160SAPE   C3717932  -0.887   4.286   7.377 -0.3009 -0.1465 -0.4988
  160SAPE   H7X17933  -0.901   4.181   7.342 -0.2198 -0.1723 -0.4575
  160SAPE   H7Y17934  -0.954   4.349   7.316  1.4661  3.8693  1.3816
  160SAPE   C3817935  -0.929   4.295   7.523 -0.0198  0.4487 -0.4163
  160SAPE   H8X17936  -0.899   4.391   7.570  4.3824 -0.7260 -0.3536
  160SAPE   H8Y17937  -0.865   4.218   7.572  0.0778 -0.3160 -1.7018
  160SAPE   C3917938  -1.076   4.253   7.552 -0.1081  0.3550 -0.2863
  160SAPE   H9X17939  -1.083   4.149   7.514 -0.2042  0.8292 -1.6116
  160SAPE   H9Y17940  -1.149   4.314   7.494 -2.0643 -1.3264  0.2838
  160SAPE  C31017941  -1.109   4.266   7.703 -0.1444  0.7921 -0.2965
  160SAPE  H10X17942  -1.086   4.371   7.728  1.8949  0.3517 -0.1882
  160SAPE  H10Y17943  -1.039   4.204   7.763 -0.4132 -1.0744 -1.7963
  160SAPE  C31117944  -1.252   4.219   7.744  0.1182 -0.2028 -0.1695
  160SAPE  H11X17945  -1.281   4.116   7.714 -0.9886 -0.0266  0.2395
  160SAPE  H11Y17946  -1.332   4.287   7.707  0.5872  0.1013 -0.6352
  160SAPE  C31217947  -1.263   4.232   7.893 -0.1433 -0.4689  0.3378
  160SAPE  H12X17948  -1.216   4.326   7.927  1.0649 -0.5967 -0.8926
  160SAPE  H12Y17949  -1.205   4.146   7.935 -0.7158 -0.3873  1.3275
  160SAPE  C31317950  -1.407   4.230   7.950 -0.0705 -0.1174  0.3847
  160SAPE  H13X17951  -1.466   4.320   7.925  0.3911 -0.0892 -0.6369
  160SAPE  H13Y17952  -1.400   4.218   8.060 -1.4707  1.0158  0.6218
  160SAPE  C31417953  -1.490   4.118   7.902  0.3932  0.0793 -0.9089
  160SAPE  H14X17954  -1.425   4.028   7.899  1.3853  0.6496  1.2043
  160SAPE  H14Y17955  -1.550   4.129   7.810 -0.6030 -1.8013 -0.5360
  160SAPE  C31517956  -1.600   4.086   8.008  0.2912  0.0679  0.0103
  160SAPE  H15X17957  -1.640   4.173   8.063  0.4230  0.3248 -0.2992
  160SAPE  H15Y17958  -1.552   4.022   8.085  1.3221  1.5622  0.6420
  160SAPE  C31617959  -1.721   4.012   7.947 -0.5788  0.1941 -1.1310
  160SAPE  H16X17960  -1.689   3.917   7.900 -1.5990 -0.8457  0.1989
  160SAPE  H16Y17961  -1.774   4.074   7.872  0.5876  0.7253 -1.5426
  160SAPE  C31717962  -1.815   3.963   8.054 -0.3627  0.4748  0.0464
  160SAPE  H17X17963  -1.878   4.049   8.086 -0.3398 -0.1016  1.7174
  160SAPE  H17Y17964  -1.759   3.928   8.143  1.1711  1.6337 -0.4112
  160SAPE  C31817965  -1.912   3.855   8.008 -0.9650 -0.5060 -0.0044
  160SAPE  H18X17966  -1.861   3.757   7.994  1.0251  0.4349  0.2867
  160SAPE  H18Y17967  -1.960   3.891   7.914  0.0217  0.0634 -0.2995
  160SAPE  H18Z17968  -1.982   3.841   8.093 -0.6793 -0.8576  0.1780
  161SOPE     N17969   5.520   2.316  10.648 -0.2811  0.3623 -0.1511
  161SOPE   HN117970   5.600   2.297  10.711  0.6232  2.7297 -0.4767
  161SOPE   HN217971   5.450   2.381  10.690 -1.3689  0.4420 -2.0048
  161SOPE   HN317972   5.475   2.227  10.620  0.0356  0.5340 -1.2364
  161SOPE   C1217973   5.571   2.377  10.521 -0.7363 -0.3503 -0.3695
  161SOPE  H12A17974   5.653   2.316  10.478 -2.1733 -1.4599 -1.6132
  161SOPE  H12B17975   5.591   2.483  10.550 -2.8804  0.0013  0.0380
  161SOPE   C1117976   5.458   2.408  10.416  0.4327  0.4139 -0.2693
  161SOPE  H11A17977   5.400   2.314  10.406  0.8292  0.3113 -1.9263
  161SOPE  H11B17978   5.494   2.428  10.312 -0.7857  0.4312 -0.7029
  161SOPE     P17979   5.258   2.514  10.543 -0.0570 -0.2632  0.2740
  161SOPE   O1317980   5.240   2.656  10.593  0.0701  0.3305  0.4793
  161SOPE   O1417981   5.271   2.421  10.659  0.1520  0.5200  0.6493
  161SOPE   O1217982   5.382   2.519  10.446 -0.7310  0.5883  0.3503
  161SOPE   O1117983   5.142   2.471  10.449 -0.1301  0.0775  0.6036
  161SOPE    C117984   5.069   2.571  10.380  0.1357 -1.2573  0.0106
  161SOPE    HA17985   5.129   2.659  10.349 -0.4219 -1.0629 -0.5609
  161SOPE    HB17986   4.986   2.612  10.441  0.3812 -0.6432 -0.0629
  161SOPE    C217987   5.020   2.534  10.238  0.0637  0.4119  0.3061
  161SOPE    HS17988   4.991   2.625  10.182 -1.4175 -0.6990 -0.8551
  161SOPE   O2117989   4.905   2.442  10.244 -0.5444  0.6921  0.2300
  161SOPE   C2117990   4.787   2.496  10.235  0.2391 -0.1738  0.9375
  161SOPE   O2217991   4.766   2.617  10.247 -0.3246 -0.2647 -0.3580
  161SOPE   C2217992   4.680   2.388  10.228 -0.2951 -0.8392 -0.4301
  161SOPE   H2R17993   4.632   2.368  10.326 -0.7224 -2.0083 -0.8614
  161SOPE   H2S17994   4.727   2.290  10.207  1.2671 -0.4690  1.1495
  161SOPE    C317995   5.134   2.459  10.164  0.2430 -0.3548  0.4157
  161SOPE    HX17996   5.147   2.359  10.212 -3.2327 -1.2938 -0.3520
  161SOPE    HY17997   5.224   2.524  10.174 -2.6646  4.2867 -0.4930
  161SOPE   O3117998   5.083   2.438  10.029  0.0368 -0.2943  0.0915
  161SOPE   C3117999   5.116   2.537   9.939  0.0140 -0.0108 -0.5062
  161SOPE   O3218000   5.165   2.645   9.973  0.4734  0.4028  0.8507
  161SOPE   C3218001   5.088   2.489   9.797  0.1239 -0.4822  0.2967
  161SOPE   H2X18002   4.980   2.461   9.792  0.1780 -0.9951  1.6137
  161SOPE   H2Y18003   5.137   2.390   9.784 -0.2729 -0.6950  0.3857
  161SOPE   C2318004   4.587   2.423  10.117 -0.2403  0.6582 -0.4525
  161SOPE   H3R18005   4.526   2.515  10.129  0.8531  1.4678 -0.9323
  161SOPE   H3S18006   4.502   2.352  10.124  0.8871 -0.6705  0.4176
  161SOPE   C2418007   4.651   2.409   9.981 -0.2127  0.8837  0.2627
  161SOPE   H4R18008   4.710   2.501   9.964 -0.1536  0.5966 -1.1572
  161SOPE   H4S18009   4.730   2.330   9.974  1.0233  2.0979  0.0361
  161SOPE   C2518010   4.542   2.401   9.873 -0.2271  0.6866 -0.7416
  161SOPE   H5R18011   4.477   2.320   9.913  1.9615 -0.6575  0.2547
  161SOPE   H5S18012   4.489   2.499   9.875  2.1852  2.1711  3.1954
  161SOPE   C2618013   4.573   2.361   9.731 -0.3216 -0.1724 -0.3981
  161SOPE   H6R18014   4.624   2.443   9.676  1.3236 -1.2520 -0.5344
  161SOPE   H6S18015   4.651   2.283   9.743  1.1096  1.4104  1.3055
  161SOPE   C2718016   4.446   2.310   9.661 -0.2207 -0.5512  0.9110
  161SOPE   H7R18017   4.409   2.218   9.711 -0.7762 -1.2823 -0.7694
  161SOPE   H7S18018   4.363   2.383   9.670  1.7189  1.8277  0.7278
  161SOPE   C2818019   4.468   2.283   9.509 -0.2953 -0.3255  0.8865
  161SOPE   H8R18020   4.364   2.261   9.478  0.2094 -0.1108 -1.0820
  161SOPE   H8S18021   4.493   2.381   9.462  0.0204 -1.0627 -0.5370
  161SOPE   C2918022   4.567   2.177   9.468  0.5845 -0.3583  0.2266
  161SOPE   H9118023   4.520   2.079   9.450 -2.7253  0.8339  1.5352
  161SOPE  C21018024   4.698   2.194   9.450  0.0461 -0.1349 -0.5190
  161SOPE  H10118025   4.755   2.108   9.415 -0.5479 -1.7786  2.2419
  161SOPE  C21118026   4.778   2.325   9.474  0.5377  0.1772 -0.6112
  161SOPE  H11R18027   4.842   2.313   9.564 -0.7292 -5.2252 -0.0646
  161SOPE  H11S18028   4.719   2.418   9.484  0.0576  0.0439 -2.0060
  161SOPE  C21218029   4.860   2.359   9.351 -0.1071  0.4000  0.2203
  161SOPE  H12R18030   4.934   2.279   9.329  0.1614 -0.1790  2.8653
  161SOPE  H12S18031   4.920   2.453   9.360  0.8999  0.1709 -2.9316
  161SOPE  C21318032   4.773   2.392   9.227  0.0417 -0.1925  0.3542
  161SOPE  H13R18033   4.719   2.488   9.242 -2.3472 -1.7679  2.5974
  161SOPE  H13S18034   4.703   2.310   9.202  0.6074 -1.6211  3.0615
  161SOPE  C21418035   4.855   2.408   9.100 -0.4159 -0.3959  0.3145
  161SOPE  H14R18036   4.777   2.433   9.024 -0.3190 -2.4181 -0.5115
  161SOPE  H14S18037   4.909   2.315   9.072  3.5034 -0.1050  5.3726
  161SOPE  C21518038   4.960   2.516   9.100  0.2973  0.4171 -0.0906
  161SOPE  H15R18039   5.031   2.503   9.184  0.6766 -0.8658 -0.5886
  161SOPE  H15S18040   4.907   2.614   9.105  1.8730  1.3145  0.0352
  161SOPE  C21618041   5.052   2.530   8.975 -0.1664 -0.0136  0.3066
  161SOPE  H16R18042   4.990   2.559   8.887 -0.1222  1.7026  0.7974
  161SOPE  H16S18043   5.093   2.428   8.963  0.0183 -0.0423  1.1137
  161SOPE  C21718044   5.173   2.625   9.005  1.2067  0.5101  0.0014
  161SOPE  H17R18045   5.220   2.580   9.095 -0.3185 -0.9537  0.1168
  161SOPE  H17S18046   5.136   2.727   9.027 -0.8485 -0.2336  0.1541
  161SOPE  C21818047   5.268   2.637   8.891  0.4143 -0.0000 -0.1169
  161SOPE  H18R18048   5.334   2.724   8.913 -2.5684  1.8181  2.4188
  161SOPE  H18S18049   5.207   2.661   8.801  0.5439 -0.1922 -0.2592
  161SOPE  H18T18050   5.327   2.545   8.872  2.8618  1.7063 -1.5150
  161SOPE   C3318051   5.128   2.597   9.696  0.0871 -0.1816  0.1465
  161SOPE   H3X18052   5.238   2.617   9.694  0.3756 -1.6977 -0.8984
  161SOPE   H3Y18053   5.081   2.693   9.723 -1.4933 -0.8294 -0.2125
  161SOPE   C3418054   5.079   2.567   9.554  0.1114  0.3223 -0.4047
  161SOPE   H4X18055   4.977   2.527   9.539  0.4638 -0.5803 -0.4796
  161SOPE   H4Y18056   5.141   2.486   9.508 -1.0083 -0.0239 -1.3556
  161SOPE   C3518057   5.081   2.681   9.459 -0.3126  0.0267  0.4012
  161SOPE   H5X18058   5.050   2.780   9.500 -1.1163  0.4666 -1.1983
  161SOPE   H5Y18059   5.001   2.664   9.384  1.2293  0.8237 -1.5006
  161SOPE   C3618060   5.202   2.701   9.374  0.5421 -0.4825 -0.3773
  161SOPE   H6X18061   5.174   2.789   9.312  0.3323 -1.4255 -1.6814
  161SOPE   H6Y18062   5.214   2.616   9.303 -1.9007 -0.2244 -1.1837
  161SOPE   C3718063   5.325   2.742   9.455 -1.2751  0.0912 -0.3869
  161SOPE   H7X18064   5.365   2.646   9.495 -0.0465  1.5462  2.1342
  161SOPE   H7Y18065   5.313   2.815   9.537 -0.2235 -0.1502 -0.0032
  161SOPE   C3818066   5.431   2.810   9.366 -1.1219 -0.2738  0.5164
  161SOPE   H8X18067   5.525   2.841   9.416 -0.9807  0.5820 -0.2503
  161SOPE   H8Y18068   5.404   2.909   9.323 -1.8178 -0.3508  0.7580
  161SOPE   C3918069   5.466   2.715   9.251 -0.0139 -0.7111 -0.0371
  161SOPE   H9X18070   5.379   2.715   9.183  0.2225  1.9491 -0.4408
  161SOPE   H9Y18071   5.490   2.617   9.298 -2.0709 -0.5308  1.5047
  161SOPE  C31018072   5.585   2.758   9.165  0.5922 -0.5373 -0.3738
  161SOPE  H10X18073   5.578   2.691   9.077 -2.6652 -1.9196  0.7677
  161SOPE  H10Y18074   5.676   2.751   9.228 -1.1314 -0.6885  2.2517
  161SOPE  C31118075   5.572   2.902   9.105  0.2733 -0.7040 -0.6614
  161SOPE  H11X18076   5.567   2.983   9.181  3.7018 -0.8687 -0.0922
  161SOPE  H11Y18077   5.480   2.907   9.042  0.0089  0.9919 -0.1824
  161SOPE  C31218078   5.681   2.936   8.999  0.3471 -0.0347  0.1809
  161SOPE  H12X18079   5.671   3.045   8.982 -1.2267  0.0643  1.5164
  161SOPE  H12Y18080   5.655   2.875   8.910 -0.3978 -1.4408  1.3264
  161SOPE  C31318081   5.828   2.904   9.042 -1.0653  0.3844 -0.2394
  161SOPE  H13X18082   5.815   2.793   9.046 -0.6192  0.3330 -0.1974
  161SOPE  H13Y18083   5.857   2.959   9.134 -0.0132  0.2817 -0.4983
  161SOPE  C31418084   5.934   2.956   8.939  0.0736  0.5310 -0.8527
  161SOPE  H14X18085   6.029   2.987   8.987  0.5732 -0.8147 -0.9337
  161SOPE  H14Y18086   5.883   3.052   8.912 -1.9121 -0.5634 -1.1966
  161SOPE  C31518087   5.938   2.874   8.818  0.4357  0.5444 -0.1748
  161SOPE  H15X18088   5.837   2.886   8.773  1.3032  2.2043 -1.8407
  161SOPE  H15Y18089   5.967   2.772   8.853 -2.0339 -0.1009  0.1729
  161SOPE  C31618090   6.025   2.924   8.699 -0.3065 -0.2453 -0.1627
  161SOPE  H16X18091   6.133   2.911   8.721 -0.1126  0.4822 -0.6481
  161SOPE  H16Y18092   5.991   3.026   8.672  1.3891  0.6575  0.9472
  161SOPE  C31718093   6.012   2.836   8.575  0.9449  0.1006 -0.3621
  161SOPE  H17X18094   5.903   2.819   8.557  0.2836  1.1944  2.1560
  161SOPE  H17Y18095   6.059   2.736   8.582 -0.2310 -0.6322 -2.1698
  161SOPE  C31818096   6.072   2.904   8.448 -0.3947 -0.8266  0.2115
  161SOPE  H18X18097   6.042   3.010   8.434 -1.0292 -1.1166 -0.7159
  161SOPE  H18Y18098   6.031   2.854   8.357  0.5516  0.2541 -0.8239
  161SOPE  H18Z18099   6.183   2.906   8.448 -0.3919 -0.8605 -0.6486
  162SOPE     N18100   3.568   0.746  10.840  0.7273 -0.5375 -0.3603
  162SOPE   HN118101   3.516   0.798  10.914 -0.1496 -1.9588  0.0690
  162SOPE   HN218102   3.564   0.647  10.872  0.8823 -1.1122 -2.0449
  162SOPE   HN318103   3.665   0.782  10.846 -0.1645  1.9863  0.0677
  162SOPE   C1218104   3.503   0.770  10.708 -0.2252  0.3370  0.0557
  162SOPE  H12A18105   3.393   0.757  10.723  0.1080  0.2638  3.2600
  162SOPE  H12B18106   3.535   0.689  10.639 -0.5253  1.8813 -1.9904
  162SOPE   C1118107   3.535   0.914  10.651  0.0026 -0.0887 -0.3571
  162SOPE  H11A18108   3.486   0.920  10.551 -1.0045  0.4265  0.1508
  162SOPE  H11B18109   3.646   0.926  10.648  0.0722  0.7703  2.8504
  162SOPE     P18110   3.532   1.144  10.788 -0.2485 -0.1986  0.3080
  162SOPE   O1318111   3.676   1.145  10.758 -0.3324 -0.2493  0.0873
  162SOPE   O1418112   3.498   1.182  10.930 -0.0539 -0.0782  0.7719
  162SOPE   O1218113   3.474   1.010  10.737 -0.4261 -0.3501 -0.6576
  162SOPE   O1118114   3.463   1.250  10.692 -0.4083  0.4910 -0.1935
  162SOPE    C118115   3.323   1.271  10.705  0.1966  0.1673  0.1251
  162SOPE    HA18116   3.310   1.374  10.744 -0.1985 -0.3479  1.3904
  162SOPE    HB18117   3.274   1.198  10.774 -0.8032  0.4033 -0.3048
  162SOPE    C218118   3.249   1.237  10.568 -0.8077 -0.1106  0.3040
  162SOPE    HS18119   3.294   1.143  10.529 -1.7772  0.1776 -1.6021
  162SOPE   O2118120   3.270   1.350  10.480 -0.2798 -0.2729 -0.1232
  162SOPE   C2118121   3.333   1.323  10.369  0.5020 -0.2956 -0.2953
  162SOPE   O2218122   3.369   1.210  10.337  0.3047 -0.2799  0.5224
  162SOPE   C2218123   3.324   1.445  10.282 -0.4324  0.5802  0.1871
  162SOPE   H2R18124   3.420   1.495  10.307  0.1480 -0.1408 -0.5485
  162SOPE   H2S18125   3.245   1.518  10.312 -0.5437  0.0937  1.0990
  162SOPE    C318126   3.100   1.208  10.597 -0.5385 -0.2922  0.1302
  162SOPE    HX18127   3.051   1.291  10.652  0.2669  1.7561 -2.0536
  162SOPE    HY18128   3.083   1.136  10.680 -1.8797 -1.6107 -1.2525
  162SOPE   O3118129   3.025   1.176  10.477 -0.2511 -0.0743  1.1454
  162SOPE   C3118130   3.005   1.049  10.442  0.6281 -0.1562 -0.9033
  162SOPE   O3218131   3.051   0.953  10.500  0.4774 -0.1279 -0.4251
  162SOPE   C3218132   2.927   1.043  10.310 -0.2323  0.1547  0.1654
  162SOPE   H2X18133   2.830   1.097  10.322 -0.4638 -0.3831  0.8023
  162SOPE   H2Y18134   2.907   0.936  10.288  0.0410  0.1360  0.0068
  162SOPE   C2318135   3.326   1.403  10.132 -0.8026 -0.2965 -0.0848
  162SOPE   H3R18136   3.259   1.316  10.115  1.1427 -1.8212 -0.3710
  162SOPE   H3S18137   3.430   1.369  10.110 -0.8062 -0.4001  0.0521
  162SOPE   C2418138   3.292   1.519  10.039  0.2012 -0.1069  0.9796
  162SOPE   H4R18139   3.190   1.556  10.062 -0.4438  0.7440 -2.7078
  162SOPE   H4S18140   3.349   1.614  10.053 -0.4219  0.5477 -0.6820
  162SOPE   C2518141   3.286   1.472   9.896 -0.4334  0.3019  0.3322
  162SOPE   H5R18142   3.381   1.416   9.882  0.8388  2.1422  1.1083
  162SOPE   H5S18143   3.200   1.404   9.883  0.1525 -0.4336  0.2245
  162SOPE   C2618144   3.292   1.588   9.797 -0.4212  0.1646  0.3887
  162SOPE   H6R18145   3.243   1.675   9.846 -0.5400 -1.3047  3.0901
  162SOPE   H6S18146   3.396   1.602   9.761 -1.1210  3.0163 -0.7800
  162SOPE   C2718147   3.216   1.555   9.668  1.1955  0.2575  0.7924
  162SOPE   H7R18148   3.211   1.445   9.652 -1.7650  0.3668  0.3502
  162SOPE   H7S18149   3.110   1.585   9.680  1.3022  0.9082  0.1688
  162SOPE   C2818150   3.264   1.628   9.544  0.3714  0.0767 -0.6383
  162SOPE   H8R18151   3.202   1.601   9.456 -0.8104 -0.0743  0.2258
  162SOPE   H8S18152   3.259   1.739   9.544 -0.5830  0.0418 -0.3218
  162SOPE   C2918153   3.407   1.588   9.508  0.5800  1.1358 -0.2452
  162SOPE   H9118154   3.481   1.579   9.589 -0.5541  2.4136  0.9847
  162SOPE  C21018155   3.445   1.575   9.379  0.7092 -0.8403  0.4950
  162SOPE  H10118156   3.549   1.544   9.359  0.4302 -1.1789 -0.4964
  162SOPE  C21118157   3.355   1.604   9.254 -0.1818 -0.0134  0.3544
  162SOPE  H11R18158   3.271   1.668   9.287  0.6587  0.2325  2.1514
  162SOPE  H11S18159   3.304   1.508   9.233 -0.4433 -0.1932  1.7375
  162SOPE  C21218160   3.406   1.656   9.113 -0.4036  0.3003  0.2056
  162SOPE  H12R18161   3.444   1.760   9.126 -0.2872  0.4177 -0.9699
  162SOPE  H12S18162   3.318   1.667   9.046 -0.1862  1.5760  0.0934
  162SOPE  C21318163   3.515   1.573   9.045  0.0953 -0.0016 -0.6880
  162SOPE  H13R18164   3.466   1.477   9.019  0.0929 -0.5808  1.2601
  162SOPE  H13S18165   3.590   1.565   9.127 -0.2865  2.4485 -0.0212
  162SOPE  C21418166   3.588   1.627   8.927 -0.3703  0.7750  0.3469
  162SOPE  H14R18167   3.609   1.732   8.956 -0.9956  1.0390 -0.1262
  162SOPE  H14S18168   3.510   1.636   8.849  0.2450 -0.6661 -0.4850
  162SOPE  C21518169   3.691   1.524   8.863  0.7489 -0.1724 -0.1089
  162SOPE  H15R18170   3.638   1.429   8.844 -0.6109  0.7449 -1.1473
  162SOPE  H15S18171   3.770   1.510   8.940 -0.7408  3.5488  2.3589
  162SOPE  C21618172   3.758   1.574   8.727 -0.2995 -0.3876 -0.6355
  162SOPE  H16R18173   3.868   1.560   8.738 -0.4124 -0.9907 -0.2377
  162SOPE  H16S18174   3.744   1.682   8.703 -0.3227 -0.1436  0.4346
  162SOPE  C21718175   3.724   1.482   8.602  0.0254  0.0532  0.2361
  162SOPE  H17R18176   3.613   1.472   8.598  0.0560 -0.3040 -3.5530
  162SOPE  H17S18177   3.759   1.377   8.616  0.2925 -0.1079 -1.4159
  162SOPE  C21818178   3.782   1.519   8.460  0.4888 -0.7969  0.0982
  162SOPE  H18R18179   3.753   1.621   8.428  2.5400 -0.7791 -1.9354
  162SOPE  H18S18180   3.736   1.455   8.382 -0.5508  0.4817 -0.3513
  162SOPE  H18T18181   3.891   1.498   8.455  0.1946 -2.2931 -0.7782
  162SOPE   C3318182   3.012   1.101  10.191  0.0625  0.3038  0.2894
  162SOPE   H3X18183   3.112   1.053  10.186  0.3573  0.9404 -0.0528
  162SOPE   H3Y18184   3.029   1.210  10.201  1.0816  0.3496 -1.5216
  162SOPE   C3418185   2.951   1.074  10.048 -0.8742  0.2443 -0.1147
  162SOPE   H4X18186   2.858   1.135  10.053 -1.7985 -1.1970  1.1811
  162SOPE   H4Y18187   2.926   0.969  10.024 -1.1987 -0.3332  2.4950
  162SOPE   C3518188   3.039   1.126   9.935  0.6300 -0.1409 -0.0404
  162SOPE   H5X18189   3.119   1.050   9.922 -1.3652 -2.6799  1.5137
  162SOPE   H5Y18190   3.084   1.222   9.968  0.2609 -0.4716  1.5034
  162SOPE   C3618191   2.957   1.148   9.804  0.5030  0.0306  0.1673
  162SOPE   H6X18192   2.891   1.234   9.830 -1.4357 -0.8562 -1.5682
  162SOPE   H6Y18193   2.896   1.059   9.778  0.7083 -0.6378  1.8649
  162SOPE   C3718194   3.050   1.181   9.690 -0.4020  0.4526  0.6189
  162SOPE   H7X18195   3.118   1.097   9.668  1.5255  2.5167 -2.0470
  162SOPE   H7Y18196   3.115   1.263   9.726 -0.0665 -0.5770  2.4656
  162SOPE   C3818197   2.969   1.214   9.561 -0.1782  0.5789 -0.0790
  162SOPE   H8X18198   2.911   1.307   9.582 -1.0862  0.4128 -1.7010
  162SOPE   H8Y18199   2.909   1.125   9.534  0.8299  0.5864 -2.6622
  162SOPE   C3918200   3.068   1.262   9.446  0.3425  1.1391  0.4817
  162SOPE   H9X18201   3.168   1.286   9.489  1.8028  1.2417 -2.7177
  162SOPE   H9Y18202   3.027   1.349   9.390  0.9939  2.2734  1.6924
  162SOPE  C31018203   3.098   1.153   9.343 -0.3178 -0.0774 -0.5190
  162SOPE  H10X18204   3.008   1.088   9.331 -0.0288 -1.0889  2.1261
  162SOPE  H10Y18205   3.169   1.080   9.387 -0.2095 -0.1612 -0.8303
  162SOPE  C31118206   3.153   1.198   9.212  0.1700  0.1942  0.1807
  162SOPE  H11X18207   3.255   1.238   9.229  1.6797 -3.9868  2.2288
  162SOPE  H11Y18208   3.093   1.279   9.163 -1.3828  0.1677  1.9277
  162SOPE  C31218209   3.148   1.095   9.101  0.8150  0.4175 -0.1592
  162SOPE  H12X18210   3.040   1.083   9.077 -0.3719  1.0572  4.0110
  162SOPE  H12Y18211   3.183   0.994   9.132 -1.7555 -0.0171  1.6707
  162SOPE  C31318212   3.218   1.142   8.969  0.3271  0.4823 -0.6202
  162SOPE  H13X18213   3.329   1.153   8.975  0.3191  0.5167 -0.5201
  162SOPE  H13Y18214   3.180   1.243   8.944 -0.9979  0.3715  0.8075
  162SOPE  C31418215   3.182   1.040   8.857  0.6077  0.1378  0.2056
  162SOPE  H14X18216   3.072   1.027   8.849  0.6638 -0.2761  0.1027
  162SOPE  H14Y18217   3.220   0.942   8.892  3.5904  0.3496 -1.9416
  162SOPE  C31518218   3.227   1.074   8.701 -0.2140  0.1167 -0.5726
  162SOPE  H15X18219   3.175   1.169   8.677 -0.7151  0.0210  0.1056
  162SOPE  H15Y18220   3.175   0.998   8.640 -0.2374 -1.5473  1.4030
  162SOPE  C31618221   3.377   1.067   8.699 -0.6713  0.2965  0.5568
  162SOPE  H16X18222   3.400   0.963   8.732  0.9324 -0.7470 -3.2282
  162SOPE  H16Y18223   3.413   1.145   8.770 -0.0063  2.1212 -1.6548
  162SOPE  C31718224   3.426   1.087   8.553 -0.2090 -0.7241  0.1847
  162SOPE  H17X18225   3.388   1.184   8.514 -0.8424 -0.5606  1.1593
  162SOPE  H17Y18226   3.378   1.010   8.490 -1.1139 -0.2403  0.2750
  162SOPE  C31818227   3.575   1.082   8.533 -0.1209 -0.1880 -0.2573
  162SOPE  H18X18228   3.610   0.979   8.552 -1.7575 -0.9060 -0.9361
  162SOPE  H18Y18229   3.625   1.160   8.594  1.7401 -1.5576  0.0540
  162SOPE  H18Z18230   3.599   1.104   8.427  2.3400  1.1681  0.4992
  163SOPE     N18231   4.151   4.894  10.685 -0.5597  0.1988  0.4346
  163SOPE   HN118232   4.127   4.860  10.589  2.1698 -0.8601  0.0373
  163SOPE   HN218233   4.252   4.875  10.700 -0.8218 -1.7217 -0.0020
  163SOPE   HN318234   4.094   4.845  10.756 -0.3034 -2.0036 -0.7895
  163SOPE   C1218235   4.123   5.035  10.698  0.2715 -1.2198 -0.0157
  163SOPE  H12A18236   4.014   5.055  10.692  0.3522 -1.0214 -0.8456
  163SOPE  H12B18237   4.159   5.091  10.610 -2.8732  3.3485  1.2202
  163SOPE   C1118238   4.186   5.097  10.828 -0.7024  0.3001  0.0865
  163SOPE  H11A18239   4.164   5.029  10.913 -1.3015 -1.8226 -1.6736
  163SOPE  H11B18240   4.135   5.192  10.855  0.3209  0.3072  2.1749
  163SOPE     P18241   4.397   5.245  10.758  0.0658  0.1462  0.4272
  163SOPE   O1318242   4.542   5.239  10.776 -0.4526 -0.0347 -0.4856
  163SOPE   O1418243   4.329   5.369  10.802 -0.7566 -0.2370 -0.1386
  163SOPE   O1218244   4.332   5.111  10.815 -0.2312 -0.3036  0.2573
  163SOPE   O1118245   4.353   5.231  10.607  0.3846 -0.6753 -0.0926
  163SOPE    C118246   4.438   5.218  10.498 -0.2984 -0.1634 -0.4991
  163SOPE    HA18247   4.469   5.111  10.498 -1.2517 -0.4529 -0.7454
  163SOPE    HB18248   4.528   5.281  10.512 -0.8457  0.1903  1.6920
  163SOPE    C218249   4.378   5.271  10.366  0.6644 -0.2203  0.7235
  163SOPE    HS18250   4.436   5.242  10.276 -1.2622 -1.5202 -0.1886
  163SOPE   O2118251   4.352   5.414  10.359  0.4883  0.0667 -0.0243
  163SOPE   C2118252   4.454   5.480  10.313 -1.5907  0.3265  0.1439
  163SOPE   O2218253   4.566   5.441  10.279  0.6028 -0.0691  0.1858
  163SOPE   C2218254   4.401   5.618  10.294  0.7507  0.2598  0.1712
  163SOPE   H2R18255   4.492   5.681  10.289  2.2360 -1.8391 -0.9114
  163SOPE   H2S18256   4.339   5.645  10.382  3.0712 -1.0580  2.3747
  163SOPE    C318257   4.241   5.207  10.333 -0.3392  0.3328  0.0047
  163SOPE    HX18258   4.176   5.239  10.418  1.4083  1.7882  0.8565
  163SOPE    HY18259   4.250   5.097  10.342  1.5056  0.4466 -0.1920
  163SOPE   O3118260   4.195   5.246  10.203 -0.6052  0.8176  0.1461
  163SOPE   C3118261   4.083   5.317  10.180  0.5863 -1.3322 -0.1942
  163SOPE   O3218262   4.015   5.365  10.274 -0.3244 -0.1277  0.4920
  163SOPE   C3218263   4.053   5.349  10.030 -0.3337  0.5693 -0.1931
  163SOPE   H2X18264   4.079   5.456  10.016 -2.6302  1.1248 -0.6127
  163SOPE   H2Y18265   3.944   5.331  10.018 -0.3963  0.7144  0.1661
  163SOPE   C2318266   4.314   5.625  10.168 -0.2672  0.3511  0.1137
  163SOPE   H3R18267   4.275   5.728  10.149  0.6316  0.9068  1.1805
  163SOPE   H3S18268   4.223   5.563  10.175 -1.0359  1.4279 -0.0214
  163SOPE   C2418269   4.403   5.607  10.036 -0.2940 -0.0231  0.0992
  163SOPE   H4R18270   4.500   5.658  10.053 -0.1325  0.9003 -3.0888
  163SOPE   H4S18271   4.420   5.499  10.016 -1.0686 -0.3391  1.0203
  163SOPE   C2518272   4.334   5.662   9.901 -0.0433  0.5106  1.4516
  163SOPE   H5R18273   4.237   5.610   9.881  0.4223 -0.3613  1.3841
  163SOPE   H5S18274   4.321   5.771   9.914  0.4395  1.2914 -3.0625
  163SOPE   C2618275   4.416   5.630   9.775 -0.6754 -0.1683  0.0408
  163SOPE   H6R18276   4.519   5.670   9.787 -0.1976 -1.6978  1.4490
  163SOPE   H6S18277   4.427   5.520   9.770 -0.8104 -0.1391 -1.2607
  163SOPE   C2718278   4.362   5.676   9.639  0.9532  0.2837  0.2077
  163SOPE   H7R18279   4.259   5.634   9.635  0.1980  2.0893 -0.6162
  163SOPE   H7S18280   4.348   5.786   9.643 -0.5597  0.1333 -0.1362
  163SOPE   C2818281   4.450   5.622   9.523  0.2378  0.4637 -0.0804
  163SOPE   H8R18282   4.426   5.669   9.426 -5.9527 -4.3058 -1.4476
  163SOPE   H8S18283   4.557   5.641   9.548  1.4217 -1.1100 -3.4157
  163SOPE   C2918284   4.421   5.476   9.499 -0.5437 -0.2730  0.0307
  163SOPE   H9118285   4.378   5.410   9.576 -1.1345  2.1849  1.9526
  163SOPE  C21018286   4.453   5.413   9.387 -0.0541 -0.0118  0.0313
  163SOPE  H10118287   4.433   5.308   9.363  0.8889 -0.0784 -0.5531
  163SOPE  C21118288   4.519   5.478   9.267 -0.1566 -0.4015 -0.0133
  163SOPE  H11R18289   4.576   5.396   9.220  0.4671 -1.8365  3.0048
  163SOPE  H11S18290   4.595   5.553   9.299  0.4836 -0.2949 -1.6997
  163SOPE  C21218291   4.417   5.531   9.171  0.4145 -0.2300  0.5896
  163SOPE  H12R18292   4.392   5.633   9.207  2.4798  1.1021 -1.3817
  163SOPE  H12S18293   4.337   5.455   9.162 -0.7556  1.0499 -0.1226
  163SOPE  C21318294   4.482   5.559   9.030  0.1444  0.5258  0.0242
  163SOPE  H13R18295   4.520   5.465   8.985 -1.7157 -0.8203  1.1433
  163SOPE  H13S18296   4.572   5.624   9.041  0.1943  0.3055  1.0675
  163SOPE  C21418297   4.380   5.625   8.932  0.1416  0.2764 -0.2352
  163SOPE  H14R18298   4.330   5.711   8.981 -1.9435 -1.5428  1.0136
  163SOPE  H14S18299   4.305   5.556   8.890  0.3709 -1.5593  2.1324
  163SOPE  C21518300   4.458   5.680   8.813  0.5773  0.6485  0.6273
  163SOPE  H15R18301   4.545   5.739   8.847  1.2140 -1.1017  2.2198
  163SOPE  H15S18302   4.395   5.755   8.761 -2.1180  0.0270  2.7537
  163SOPE  C21618303   4.502   5.574   8.715 -0.1295 -0.3817  0.1549
  163SOPE  H16R18304   4.415   5.508   8.692  0.1024 -1.1196  1.3046
  163SOPE  H16S18305   4.578   5.500   8.749  0.9112  0.2882 -0.6525
  163SOPE  C21718306   4.550   5.635   8.578  0.2387 -0.3326  0.8399
  163SOPE  H17R18307   4.638   5.594   8.524  1.4992  2.7932  0.3447
  163SOPE  H17S18308   4.590   5.736   8.600  3.0018 -1.4064  1.2064
  163SOPE  C21818309   4.430   5.646   8.480 -0.1591 -0.2165 -0.7461
  163SOPE  H18R18310   4.452   5.718   8.398  0.1079  0.9537  0.3103
  163SOPE  H18S18311   4.348   5.686   8.543  1.2167  2.0054 -0.2228
  163SOPE  H18T18312   4.421   5.545   8.435 -0.8382 -0.6413  0.3080
  163SOPE   C3318313   4.140   5.259   9.941 -0.1050 -0.0238  0.0674
  163SOPE   H3X18314   4.105   5.155   9.952  2.0948 -0.7512  0.7707
  163SOPE   H3Y18315   4.248   5.267   9.969  0.4537 -0.8096 -1.6821
  163SOPE   C3418316   4.134   5.312   9.795 -0.2156  0.4431  1.2727
  163SOPE   H4X18317   4.187   5.410   9.791 -1.1962  0.9469 -1.3051
  163SOPE   H4Y18318   4.027   5.308   9.766  0.2526 -1.3270 -0.4993
  163SOPE   C3518319   4.205   5.218   9.697 -0.8697 -0.1468 -0.2468
  163SOPE   H5X18320   4.306   5.187   9.730  0.1789  1.4053 -1.7637
  163SOPE   H5Y18321   4.218   5.271   9.600 -3.6344  0.0100 -0.5993
  163SOPE   C3618322   4.132   5.087   9.662  0.2432 -0.4900  0.1471
  163SOPE   H6X18323   4.040   5.110   9.603  0.8093  1.4642 -0.0270
  163SOPE   H6Y18324   4.095   5.021   9.744 -1.4055 -1.7122 -1.4747
  163SOPE   C3718325   4.210   4.992   9.574  0.1711 -0.1441  0.8852
  163SOPE   H7X18326   4.141   4.911   9.540 -0.4418  0.5209  0.5164
  163SOPE   H7Y18327   4.294   4.942   9.626 -0.5485 -1.5134  0.7970
  163SOPE   C3818328   4.280   5.050   9.455 -0.0069 -0.0738  0.6499
  163SOPE   H8X18329   4.348   4.978   9.405 -0.6861  0.6081 -1.3679
  163SOPE   H8Y18330   4.338   5.141   9.483 -1.4926  1.2818 -0.5087
  163SOPE   C3918331   4.182   5.088   9.344 -0.1981 -0.0922  0.3175
  163SOPE   H9X18332   4.113   5.163   9.388 -0.3283 -0.3800  0.6056
  163SOPE   H9Y18333   4.120   5.001   9.316  1.3990 -0.8570 -1.0562
  163SOPE  C31018334   4.258   5.136   9.217  0.3285  0.7171 -0.2730
  163SOPE  H10X18335   4.341   5.064   9.207 -0.0177  0.6416 -3.7252
  163SOPE  H10Y18336   4.292   5.240   9.237  1.4991  0.2832  0.0563
  163SOPE  C31118337   4.180   5.128   9.083  0.1931  0.4410 -0.1395
  163SOPE  H11X18338   4.090   5.187   9.112  0.2764 -0.2379  1.5866
  163SOPE  H11Y18339   4.142   5.026   9.063  1.0419  0.0142  0.3518
  163SOPE  C31218340   4.254   5.188   8.961  0.1518 -0.5969 -0.7079
  163SOPE  H12X18341   4.351   5.136   8.942  1.4431  1.3623  0.1044
  163SOPE  H12Y18342   4.273   5.295   8.985  1.0232 -1.2349  1.8598
  163SOPE  C31318343   4.176   5.177   8.833  0.0792  0.2644  0.3593
  163SOPE  H13X18344   4.084   5.238   8.844  0.0692  0.2718  0.2432
  163SOPE  H13Y18345   4.128   5.080   8.807 -0.5408  0.2810  1.3973
  163SOPE  C31418346   4.245   5.232   8.706 -0.5047 -0.0036  0.0277
  163SOPE  H14X18347   4.313   5.156   8.662  1.4149  1.9643 -0.6102
  163SOPE  H14Y18348   4.305   5.323   8.728 -0.4657  0.5484 -2.0861
  163SOPE  C31518349   4.147   5.274   8.592  0.5084 -0.2913 -0.6275
  163SOPE  H15X18350   4.068   5.345   8.624 -1.4874 -1.5056 -2.5191
  163SOPE  H15Y18351   4.075   5.193   8.564 -1.7053  1.5616 -0.5760
  163SOPE  C31618352   4.209   5.307   8.457 -0.0781 -0.0270 -0.7282
  163SOPE  H16X18353   4.236   5.212   8.407  1.5172 -0.3696  0.6751
  163SOPE  H16Y18354   4.302   5.367   8.470 -0.1445 -0.2593  0.9946
  163SOPE  C31718355   4.102   5.355   8.363  0.3496 -0.3006  0.2331
  163SOPE  H17X18356   4.146   5.359   8.261  0.1300  0.3935  0.1612
  163SOPE  H17Y18357   4.092   5.462   8.389 -1.6768 -0.8150  1.7904
  163SOPE  C31818358   3.973   5.270   8.355 -0.6751 -0.0207  0.3706
  163SOPE  H18X18359   3.912   5.289   8.264 -0.1258 -0.0714 -0.0156
  163SOPE  H18Y18360   3.908   5.287   8.444 -0.9444  3.7366 -0.3553
  163SOPE  H18Z18361   3.999   5.163   8.342  2.4474  0.7265 -0.5187
  164SOPE     N18362   6.661   3.341  10.752 -0.0962  0.3111 -0.0913
  164SOPE   HN118363   6.594   3.411  10.790 -1.0049  0.5009 -1.9510
  164SOPE   HN218364   6.620   3.249  10.777  1.6690 -0.5175 -0.0888
  164SOPE   HN318365   6.745   3.357  10.811 -0.2520  2.6564 -0.4245
  164SOPE   C1218366   6.687   3.340  10.603  0.3281  1.0058  0.1644
  164SOPE  H12A18367   6.591   3.373  10.558 -0.1689  1.5894  1.6000
  164SOPE  H12B18368   6.719   3.236  10.580 -0.3454 -0.0212  3.3637
  164SOPE   C1118369   6.790   3.444  10.565  0.0892  0.1925  0.9528
  164SOPE  H11A18370   6.734   3.539  10.580 -1.4706 -0.1371 -2.0729
  164SOPE  H11B18371   6.829   3.444  10.461 -2.7058 -0.1099 -0.1821
  164SOPE     P18372   7.025   3.340  10.615  0.1129 -0.2749 -0.1916
  164SOPE   O1318373   6.981   3.206  10.572  0.0461  0.0605 -0.2190
  164SOPE   O1418374   7.137   3.362  10.711 -0.0679 -0.7838  0.0896
  164SOPE   O1218375   6.904   3.434  10.657  0.6952  0.0959  0.2356
  164SOPE   O1118376   7.078   3.413  10.480 -0.1482 -0.0803  0.0534
  164SOPE    C118377   7.117   3.555  10.482  0.2374 -0.1567  0.2891
  164SOPE    HA18378   7.214   3.566  10.536 -0.6506  2.6553  1.4498
  164SOPE    HB18379   7.034   3.619  10.517  0.1686  1.1608 -2.0799
  164SOPE    C218380   7.147   3.616  10.335  0.4226 -0.1771 -0.8705
  164SOPE    HS18381   7.168   3.722  10.363  1.3925 -0.9417  1.6255
  164SOPE   O2118382   7.046   3.597  10.244  0.5249  0.0872 -0.2046
  164SOPE   C2118383   6.956   3.685  10.247  0.7021  0.4572  0.0584
  164SOPE   O2218384   6.958   3.787  10.320  0.0305 -0.4791  0.5682
  164SOPE   C2218385   6.835   3.654  10.153 -1.0033 -0.8359 -0.0226
  164SOPE   H2R18386   6.747   3.710  10.191 -1.4329 -2.3562  1.3226
  164SOPE   H2S18387   6.817   3.547  10.175  2.5790 -1.7560 -0.8940
  164SOPE    C318388   7.278   3.554  10.283  0.3019  0.2939 -0.2523
  164SOPE    HX18389   7.251   3.460  10.230 -0.3869  0.1027  0.4129
  164SOPE    HY18390   7.352   3.532  10.363 -0.3080  1.1529  0.5773
  164SOPE   O3118391   7.344   3.638  10.178 -0.2528 -0.0290  0.0557
  164SOPE   C3118392   7.395   3.748  10.226  0.2509 -0.3670 -0.4462
  164SOPE   O3218393   7.410   3.774  10.344  0.1182  0.1454 -0.2318
  164SOPE   C3218394   7.416   3.844  10.110  0.0123  0.3708 -0.8752
  164SOPE   H2X18395   7.481   3.799  10.032  0.7595  0.3067 -0.2313
  164SOPE   H2Y18396   7.458   3.941  10.144 -1.5169  1.1056 -1.0149
  164SOPE   C2318397   6.869   3.686  10.008 -0.4320  0.4710  0.5355
  164SOPE   H3R18398   6.939   3.609   9.970 -1.1695 -0.6029  1.2713
  164SOPE   H3S18399   6.922   3.783  10.001  0.7719 -0.2358 -0.2892
  164SOPE   C2418400   6.746   3.685   9.916  0.9014 -0.3923 -0.0989
  164SOPE   H4R18401   6.708   3.581   9.932  1.4648 -0.6927 -0.6393
  164SOPE   H4S18402   6.673   3.756   9.959  0.6950  0.1100 -1.2282
  164SOPE   C2518403   6.760   3.705   9.763  0.1734  0.3771 -0.5355
  164SOPE   H5R18404   6.662   3.681   9.717  0.6553 -0.8062 -0.9721
  164SOPE   H5S18405   6.782   3.812   9.740  0.8009  0.2083 -0.7405
  164SOPE   C2618406   6.867   3.610   9.703  0.0084 -0.1554  0.0391
  164SOPE   H6R18407   6.873   3.521   9.769  0.2464  1.7008  2.7032
  164SOPE   H6S18408   6.831   3.574   9.604  1.0446  1.4421 -0.9676
  164SOPE   C2718409   6.999   3.678   9.682  0.4974 -0.7852  0.3850
  164SOPE   H7R18410   6.983   3.773   9.626 -1.9277 -1.0840  0.4638
  164SOPE   H7S18411   7.040   3.700   9.783 -3.5527  0.6621  1.9282
  164SOPE   C2818412   7.089   3.596   9.589 -0.1852  0.4329  0.0412
  164SOPE   H8R18413   7.091   3.489   9.620 -0.6840  0.1411 -0.8853
  164SOPE   H8S18414   7.040   3.603   9.489 -2.5005  0.6646  1.1094
  164SOPE   C2918415   7.229   3.647   9.602  1.1996 -0.0348  0.7323
  164SOPE   H9118416   7.271   3.650   9.703  1.3592  1.2773  0.6449
  164SOPE  C21018417   7.302   3.700   9.503 -0.3116  0.3183  0.2068
  164SOPE  H10118418   7.408   3.728   9.513  0.1215 -0.5577 -1.6198
  164SOPE  C21118419   7.253   3.718   9.364 -0.0037 -0.6849  0.3465
  164SOPE  H11R18420   7.217   3.823   9.355  2.0500  0.1186  1.0343
  164SOPE  H11S18421   7.163   3.662   9.330 -1.2352  0.8395  0.9725
  164SOPE  C21218422   7.352   3.693   9.251 -0.5046  0.1132  0.2987
  164SOPE  H12R18423   7.447   3.725   9.298 -1.8844  3.1252  1.3198
  164SOPE  H12S18424   7.321   3.763   9.170 -0.7159  1.9420  1.8786
  164SOPE  C21318425   7.358   3.550   9.192 -0.3664  0.0280 -0.0794
  164SOPE  H13R18426   7.317   3.539   9.090  1.4868  1.8511 -1.0998
  164SOPE  H13S18427   7.300   3.484   9.260 -1.8272  0.9351 -0.4092
  164SOPE  C21418428   7.494   3.495   9.183 -0.7954  0.2072 -0.7219
  164SOPE  H14R18429   7.501   3.384   9.186 -3.4428 -0.0207  1.0949
  164SOPE  H14S18430   7.546   3.518   9.278  0.3100  0.6757 -1.4249
  164SOPE  C21518431   7.569   3.553   9.055 -0.7310 -0.5697  0.1390
  164SOPE  H15R18432   7.549   3.661   9.065 -1.2597 -0.6966  0.5190
  164SOPE  H15S18433   7.507   3.530   8.966  0.4490 -1.5197 -0.4708
  164SOPE  C21618434   7.712   3.494   9.051 -0.1749 -0.6219  0.8212
  164SOPE  H16R18435   7.745   3.520   8.948 -0.1641  0.2398  1.0417
  164SOPE  H16S18436   7.709   3.383   9.042 -0.5193 -0.4360 -3.6205
  164SOPE  C21718437   7.798   3.551   9.166  0.5670  0.0126  0.0923
  164SOPE  H17R18438   7.786   3.486   9.255  0.6096 -0.1463 -0.0182
  164SOPE  H17S18439   7.751   3.646   9.199 -2.0337 -1.6073  1.2875
  164SOPE  C21818440   7.942   3.567   9.116 -0.1212 -0.0610 -0.4043
  164SOPE  H18R18441   7.973   3.488   9.045 -1.8274  1.3085 -2.8377
  164SOPE  H18S18442   8.013   3.587   9.199  1.9836  0.7308 -2.2780
  164SOPE  H18T18443   7.931   3.658   9.053 -2.9169  0.9184  1.3360
  164SOPE   C3318444   7.274   3.871  10.047  0.3214 -0.6289 -0.1549
  164SOPE   H3X18445   7.207   3.902  10.130  0.2327  0.5640 -0.6608
  164SOPE   H3Y18446   7.248   3.774   9.999  1.0496 -0.8236 -0.1804
  164SOPE   C3418447   7.276   3.983   9.939  0.4162  0.3759 -0.3875
  164SOPE   H4X18448   7.357   4.053   9.968  0.6190 -0.4934  1.2580
  164SOPE   H4Y18449   7.184   4.045   9.942  1.4230  1.9189 -0.4391
  164SOPE   C3518450   7.294   3.939   9.794 -0.4581 -0.2035 -0.2799
  164SOPE   H5X18451   7.212   3.873   9.760 -0.4694  0.5792 -1.8767
  164SOPE   H5Y18452   7.394   3.893   9.776 -0.5527 -0.2799 -0.6160
  164SOPE   C3618453   7.285   4.064   9.708 -0.1253  0.2778 -0.1182
  164SOPE   H6X18454   7.374   4.123   9.738  1.1442 -1.9995  0.7881
  164SOPE   H6Y18455   7.190   4.115   9.734 -0.1849 -0.4310  1.1432
  164SOPE   C3718456   7.290   4.036   9.558 -0.4129 -0.3329  0.2541
  164SOPE   H7X18457   7.195   3.984   9.536 -1.4908  1.4457  0.4606
  164SOPE   H7Y18458   7.381   3.978   9.533  1.1416  2.1840 -0.3813
  164SOPE   C3818459   7.291   4.168   9.485  0.1913 -0.7401 -0.0699
  164SOPE   H8X18460   7.394   4.210   9.489 -0.8486  2.0449 -0.3745
  164SOPE   H8Y18461   7.231   4.244   9.540 -0.4066 -2.0756  1.2023
  164SOPE   C3918462   7.242   4.149   9.343  0.0056  0.2708 -0.7406
  164SOPE   H9X18463   7.141   4.105   9.356  0.4191 -0.4406  0.1959
  164SOPE   H9Y18464   7.305   4.074   9.290  0.4129 -0.1178  0.2730
  164SOPE  C31018465   7.224   4.286   9.269 -0.8450 -0.2915 -0.4190
  164SOPE  H10X18466   7.314   4.350   9.283 -0.4006 -1.3638  2.3874
  164SOPE  H10Y18467   7.148   4.347   9.322 -0.3328 -0.0361  0.0442
  164SOPE  C31118468   7.175   4.284   9.122 -1.0494 -0.2277 -0.2196
  164SOPE  H11X18469   7.160   4.383   9.072  1.0143  0.9244  1.3056
  164SOPE  H11Y18470   7.073   4.240   9.128 -0.5999 -1.1482  1.0613
  164SOPE  C31218471   7.244   4.189   9.025  0.3782 -0.0774 -0.8184
  164SOPE  H12X18472   7.277   4.095   9.074 -0.9679 -1.2131 -2.0270
  164SOPE  H12Y18473   7.340   4.232   8.988  1.6310 -2.5071 -0.5734
  164SOPE  C31318474   7.164   4.138   8.903  0.2845 -0.0230 -0.0670
  164SOPE  H13X18475   7.097   4.056   8.937 -0.9402  0.9802  0.0083
  164SOPE  H13Y18476   7.247   4.099   8.840  0.7019  0.2131  0.3338
  164SOPE  C31418477   7.094   4.246   8.828  0.3147 -0.3249  0.7112
  164SOPE  H14X18478   7.143   4.346   8.837  3.6767 -1.4438 -2.3893
  164SOPE  H14Y18479   6.991   4.264   8.864 -1.0447  2.2135 -3.6571
  164SOPE  C31518480   7.094   4.218   8.672 -0.4985  0.4044 -0.6479
  164SOPE  H15X18481   7.044   4.121   8.651  0.4197  0.0146 -1.0825
  164SOPE  H15Y18482   7.192   4.213   8.620 -0.4977  0.1479 -0.6243
  164SOPE  C31618483   7.006   4.319   8.595  0.0019  0.1470  0.2097
  164SOPE  H16X18484   6.918   4.349   8.656  0.4462  0.2093  0.8359
  164SOPE  H16Y18485   6.970   4.271   8.502 -0.2195 -0.9961  0.8604
  164SOPE  C31718486   7.081   4.449   8.546 -0.2310 -0.5674 -0.2533
  164SOPE  H17X18487   7.177   4.411   8.505 -0.3329  0.4727 -1.5278
  164SOPE  H17Y18488   7.102   4.505   8.639 -0.2964  0.5998 -0.9180
  164SOPE  C31818489   7.008   4.540   8.448  1.2367 -0.6819 -0.2563
  164SOPE  H18X18490   7.079   4.613   8.404  0.2808  1.0525  0.9897
  164SOPE  H18Y18491   6.931   4.594   8.507  1.6695 -1.2644  0.8632
  164SOPE  H18Z18492   6.966   4.483   8.362 -0.9605  0.5506 -0.0586
  165SOPE     N18493   5.695   4.467  10.633 -0.7686  0.3449 -0.3102
  165SOPE   HN118494   5.699   4.366  10.657  0.8067  0.1207 -1.3990
  165SOPE   HN218495   5.652   4.527  10.707  2.2860  0.2779  1.7079
  165SOPE   HN318496   5.638   4.476  10.547  0.0330 -0.2385 -0.9139
  165SOPE   C1218497   5.841   4.495  10.597 -0.3923 -0.0308  0.3722
  165SOPE  H12A18498   5.881   4.429  10.518  2.4092  1.2232  0.6106
  165SOPE  H12B18499   5.891   4.467  10.692 -2.8316 -0.6752  1.5512
  165SOPE   C1118500   5.870   4.653  10.582  0.4433  0.3800 -0.4500
  165SOPE  H11A18501   5.818   4.697  10.494 -0.0182  0.9768  0.1120
  165SOPE  H11B18502   5.981   4.664  10.576  0.6449 -0.0572  1.7892
  165SOPE     P18503   5.862   4.865  10.732  0.0855 -0.0083 -0.2747
  165SOPE   O1318504   5.891   4.878  10.876 -0.7993  0.6008 -0.2326
  165SOPE   O1418505   5.755   4.957  10.688  0.1414 -0.3789  0.5053
  165SOPE   O1218506   5.825   4.719  10.697  0.0215 -0.2104 -0.0481
  165SOPE   O1118507   5.993   4.897  10.649  0.7624  0.3524  0.0880
  165SOPE    C118508   6.001   5.011  10.565 -0.3352 -0.6163  0.0155
  165SOPE    HA18509   6.101   5.059  10.573 -0.8892  1.2996 -2.8859
  165SOPE    HB18510   5.925   5.091  10.580 -1.0082 -1.2568  0.0535
  165SOPE    C218511   5.983   4.978  10.403 -0.5747  0.2378  0.3935
  165SOPE    HS18512   6.001   5.072  10.345 -2.6078 -0.4509 -1.4771
  165SOPE   O2118513   5.856   4.924  10.376 -0.7346 -0.4804  0.2351
  165SOPE   C2118514   5.754   4.997  10.386 -0.7162  0.5081  0.4092
  165SOPE   O2218515   5.758   5.117  10.394  0.0665  0.1456 -0.8110
  165SOPE   C2218516   5.624   4.919  10.368  0.0993 -0.0382 -0.0979
  165SOPE   H2R18517   5.540   4.988  10.344 -1.0375 -1.5449 -0.5854
  165SOPE   H2S18518   5.602   4.876  10.469  0.1361  0.3278  0.0694
  165SOPE    C318519   6.101   4.872  10.363 -0.4663  0.0722  0.1069
  165SOPE    HX18520   6.094   4.787  10.433  1.7063  1.1054  1.7124
  165SOPE    HY18521   6.200   4.914  10.392  0.8169 -2.6573 -0.0411
  165SOPE   O3118522   6.101   4.826  10.222 -0.2080 -0.5911  0.1235
  165SOPE   C3118523   6.153   4.920  10.138  0.6396  0.0707 -0.7193
  165SOPE   O3218524   6.189   5.032  10.175 -0.0991  0.0067 -0.1274
  165SOPE   C3218525   6.166   4.860   9.999 -0.0307 -0.1629  0.0399
  165SOPE   H2X18526   6.076   4.799   9.975 -0.9355  0.8116  0.8511
  165SOPE   H2Y18527   6.257   4.797   9.988 -1.1225 -2.2661  2.1854
  165SOPE   C2318528   5.638   4.807  10.264 -0.4056  0.1170  0.4207
  165SOPE   H3R18529   5.545   4.746  10.270 -1.0801  0.4710 -3.7432
  165SOPE   H3S18530   5.704   4.731  10.309 -0.0464 -0.3202 -0.8156
  165SOPE   C2418531   5.677   4.840  10.121  0.6004  0.0042 -0.6243
  165SOPE   H4R18532   5.611   4.916  10.075  0.3497  0.3338  0.2594
  165SOPE   H4S18533   5.778   4.888  10.121 -0.3203  2.1925  1.8915
  165SOPE   C2518534   5.686   4.709  10.032 -0.5840  0.0321 -0.2609
  165SOPE   H5R18535   5.786   4.667  10.056 -0.4756  0.9712  1.0831
  165SOPE   H5S18536   5.600   4.644  10.057 -1.0824  0.5840 -0.5050
  165SOPE   C2618537   5.668   4.748   9.887 -0.0978  0.2153 -0.4465
  165SOPE   H6R18538   5.566   4.781   9.858 -0.1522  1.3211  0.8920
  165SOPE   H6S18539   5.739   4.830   9.866  0.2163  0.0798  0.0598
  165SOPE   C2718540   5.710   4.636   9.800 -0.3546  0.5278  0.0180
  165SOPE   H7R18541   5.820   4.627   9.797 -0.2967  1.3711 -2.1879
  165SOPE   H7S18542   5.661   4.541   9.828 -0.8525  1.3432  2.0735
  165SOPE   C2818543   5.684   4.672   9.653  0.0748 -0.5689 -0.1063
  165SOPE   H8R18544   5.579   4.700   9.629  1.0597  0.6016 -3.6140
  165SOPE   H8S18545   5.742   4.763   9.628  0.8345 -1.3850 -1.4417
  165SOPE   C2918546   5.705   4.551   9.556 -0.0259  0.1501 -0.4747
  165SOPE   H9118547   5.717   4.455   9.609  2.2124  1.2108  1.1077
  165SOPE  C21018548   5.714   4.559   9.422 -0.0919  0.0969 -0.1933
  165SOPE  H10118549   5.726   4.464   9.368 -0.9714 -0.1803  0.0851
  165SOPE  C21118550   5.701   4.688   9.347 -0.0360 -0.2476  0.0655
  165SOPE  H11R18551   5.792   4.750   9.358  0.4714 -1.0068  0.1656
  165SOPE  H11S18552   5.616   4.753   9.377  1.0795  1.4129 -0.2347
  165SOPE  C21218553   5.676   4.658   9.198 -0.5913  0.6352  0.1809
  165SOPE  H12R18554   5.654   4.750   9.141  1.0092  0.4145 -0.8258
  165SOPE  H12S18555   5.590   4.589   9.183 -0.9991  1.2793 -0.5231
  165SOPE  C21318556   5.800   4.602   9.122  0.2919 -0.2295 -0.2657
  165SOPE  H13R18557   5.843   4.506   9.159  1.6265 -0.2365 -1.7430
  165SOPE  H13S18558   5.891   4.664   9.137  0.7579 -1.6961  4.7534
  165SOPE  C21418559   5.754   4.600   8.977 -0.4111 -0.2249  0.1802
  165SOPE  H14R18560   5.724   4.698   8.935 -0.6503 -0.5642 -0.4504
  165SOPE  H14S18561   5.672   4.528   8.956 -1.3103  1.0013 -0.6035
  165SOPE  C21518562   5.881   4.561   8.892  0.4722  0.5470 -0.3089
  165SOPE  H15R18563   5.921   4.464   8.927  0.3841  1.4183  2.5042
  165SOPE  H15S18564   5.963   4.628   8.925  2.5775 -2.2867  0.5453
  165SOPE  C21618565   5.858   4.559   8.740 -0.0708 -0.1177  0.2787
  165SOPE  H16R18566   5.952   4.533   8.687 -0.9168 -0.3538 -1.1440
  165SOPE  H16S18567   5.826   4.656   8.698  0.1105  0.6124  1.7562
  165SOPE  C21718568   5.741   4.464   8.699  0.8147  0.4929 -0.7129
  165SOPE  H17R18569   5.652   4.491   8.759 -0.2203 -1.2342 -1.3843
  165SOPE  H17S18570   5.757   4.356   8.720 -3.5546 -0.5887 -1.9029
  165SOPE  C21818571   5.682   4.469   8.560  0.2486  0.0703  0.3903
  165SOPE  H18R18572   5.594   4.401   8.548 -0.4280  0.8998  0.6087
  165SOPE  H18S18573   5.763   4.435   8.491 -0.9973 -0.4479 -0.8684
  165SOPE  H18T18574   5.661   4.575   8.535 -2.5481 -0.8022 -1.4602
  165SOPE   C3318575   6.173   4.970   9.887  0.2064  0.2345  0.1401
  165SOPE   H3X18576   6.265   5.032   9.897 -0.3334  1.2726 -1.0780
  165SOPE   H3Y18577   6.086   5.039   9.891 -1.5782 -1.8959  0.0894
  165SOPE   C3418578   6.175   4.916   9.745 -0.0154 -0.1393 -0.6564
  165SOPE   H4X18579   6.248   4.833   9.740 -0.7454 -0.7387 -2.3938
  165SOPE   H4Y18580   6.208   4.994   9.673  1.3359  0.7742  0.8873
  165SOPE   C3518581   6.044   4.845   9.706  0.5370  0.4002 -0.0133
  165SOPE   H5X18582   5.970   4.918   9.669  1.6234  0.6414 -1.8701
  165SOPE   H5Y18583   5.999   4.790   9.792  1.6112 -2.7107 -1.2930
  165SOPE   C3618584   6.070   4.737   9.601 -0.3390  0.1088 -0.3824
  165SOPE   H6X18585   5.973   4.684   9.592 -0.2159 -0.2073  0.1366
  165SOPE   H6Y18586   6.154   4.671   9.631  0.1724  0.4309 -1.0819
  165SOPE   C3718587   6.095   4.800   9.462 -0.2897 -0.1545  0.0761
  165SOPE   H7X18588   6.190   4.856   9.466 -1.0577  1.2078 -0.2930
  165SOPE   H7Y18589   6.011   4.858   9.417  0.4152  1.7030  1.0897
  165SOPE   C3818590   6.119   4.695   9.351 -0.4049  0.1253  0.3637
  165SOPE   H8X18591   6.035   4.626   9.332 -2.1472  1.7568  1.7626
  165SOPE   H8Y18592   6.206   4.636   9.389 -0.6287 -0.7705 -0.4837
  165SOPE   C3918593   6.157   4.757   9.217  0.0748 -0.1673 -0.1774
  165SOPE   H9X18594   6.244   4.826   9.219 -0.3368  0.5412 -3.1217
  165SOPE   H9Y18595   6.077   4.822   9.176  0.1249  1.3453  1.9180
  165SOPE  C31018596   6.190   4.662   9.102 -0.0496 -0.1348  0.2651
  165SOPE  H10X18597   6.103   4.593   9.101 -0.7846  0.7470  1.0079
  165SOPE  H10Y18598   6.284   4.612   9.134  1.4186  1.1955 -1.7067
  165SOPE  C31118599   6.223   4.756   8.981 -0.3102  0.5741 -0.4674
  165SOPE  H11X18600   6.294   4.833   9.017  0.2977 -0.6466  1.0661
  165SOPE  H11Y18601   6.131   4.807   8.944 -1.1155 -2.2684 -2.8145
  165SOPE  C31218602   6.294   4.674   8.876  0.3265 -0.4889 -0.5874
  165SOPE  H12X18603   6.226   4.601   8.828 -2.7843  3.6413 -3.1716
  165SOPE  H12Y18604   6.380   4.631   8.932  0.5305  1.2650  0.5375
  165SOPE  C31318605   6.352   4.760   8.761 -0.4912 -0.4305 -0.2052
  165SOPE  H13X18606   6.397   4.856   8.794 -0.4299 -0.7667  0.6926
  165SOPE  H13Y18607   6.267   4.794   8.697 -3.0687 -3.2506  1.4361
  165SOPE  C31418608   6.456   4.688   8.670  0.4278  0.2810 -1.2249
  165SOPE  H14X18609   6.552   4.666   8.722  0.4107  0.6804 -1.0150
  165SOPE  H14Y18610   6.479   4.748   8.579  2.2430  0.2432 -0.8396
  165SOPE  C31518611   6.393   4.555   8.634 -0.6902  0.3885 -0.5181
  165SOPE  H15X18612   6.293   4.568   8.587 -0.5494 -0.1595 -0.9803
  165SOPE  H15Y18613   6.375   4.497   8.726  1.5347  0.6119  0.1196
  165SOPE  C31618614   6.488   4.468   8.551  0.9272 -0.4354  0.5519
  165SOPE  H16X18615   6.564   4.427   8.621  0.6223  0.7481  1.6138
  165SOPE  H16Y18616   6.533   4.529   8.469  1.3025 -1.2698  0.1258
  165SOPE  C31718617   6.413   4.350   8.486 -0.5910 -0.4461 -0.6251
  165SOPE  H17X18618   6.370   4.288   8.568  0.8096  0.1350  0.5925
  165SOPE  H17Y18619   6.485   4.294   8.423  1.2294  1.7516 -0.6191
  165SOPE  C31818620   6.293   4.383   8.398  0.3940  0.3305 -0.7648
  165SOPE  H18X18621   6.318   4.461   8.323  0.4286 -0.6571 -1.7949
  165SOPE  H18Y18622   6.208   4.417   8.460 -1.6627  0.9434 -3.7404
  165SOPE  H18Z18623   6.252   4.290   8.356 -2.1183 -0.2488  2.5350
  166SOPE     N18624   3.621   4.434  10.724 -0.4875  0.0970  0.3263
  166SOPE   HN118625   3.557   4.352  10.730 -1.1193  0.7033  2.9268
  166SOPE   HN218626   3.571   4.513  10.769 -1.2449  0.6145 -1.3396
  166SOPE   HN318627   3.645   4.457  10.625  1.1011 -1.9640  0.1657
  166SOPE   C1218628   3.741   4.408  10.805  0.0835  0.3941 -0.4433
  166SOPE  H12A18629   3.794   4.316  10.773 -0.3659  0.6500 -1.9787
  166SOPE  H12B18630   3.703   4.397  10.909 -0.0091  1.8865 -0.2985
  166SOPE   C1118631   3.838   4.529  10.802  0.2780 -0.6724  0.5059
  166SOPE  H11A18632   3.870   4.555  10.699  0.0120 -2.7609 -0.1522
  166SOPE  H11B18633   3.936   4.493  10.840  0.5704  1.0847  1.5436
  166SOPE     P18634   3.834   4.791  10.833  0.0535  0.2573  0.3605
  166SOPE   O1318635   3.978   4.809  10.867 -0.1223 -0.2483  0.2068
  166SOPE   O1418636   3.754   4.897  10.898  0.3085  0.3939  0.8184
  166SOPE   O1218637   3.783   4.642  10.874  0.0304  0.3260  0.1297
  166SOPE   O1118638   3.810   4.791  10.679  0.2341  0.4104  0.3276
  166SOPE    C118639   3.682   4.806  10.619  0.0093  0.2465 -0.0365
  166SOPE    HA18640   3.621   4.879  10.675  2.6306  2.3699  0.2990
  166SOPE    HB18641   3.623   4.713  10.631  0.4816 -0.0971 -0.2976
  166SOPE    C218642   3.673   4.825  10.464  0.4398  0.2719  0.6060
  166SOPE    HS18643   3.572   4.804  10.425  0.5595  0.1451  0.3631
  166SOPE   O2118644   3.755   4.741  10.382 -0.1876  1.0229 -0.2632
  166SOPE   C2118645   3.747   4.612  10.401  0.2951 -0.4595 -0.2126
  166SOPE   O2218646   3.652   4.555  10.456  0.8117 -0.5162 -0.1223
  166SOPE   C2218647   3.844   4.545  10.303 -1.3710 -0.4636  0.5334
  166SOPE   H2R18648   3.891   4.454  10.344 -1.0359 -1.5710 -2.0781
  166SOPE   H2S18649   3.912   4.630  10.282  0.0465 -1.3774  1.2985
  166SOPE    C318650   3.705   4.972  10.422 -0.7325 -0.2199 -0.5076
  166SOPE    HX18651   3.809   5.002  10.445 -0.3641 -0.0747 -2.2251
  166SOPE    HY18652   3.655   5.040  10.494  1.4704  0.6983  0.2329
  166SOPE   O3118653   3.663   5.008  10.288 -0.3036 -0.1005  0.0413
  166SOPE   C3118654   3.764   5.010  10.204 -0.4239  0.3642 -1.0699
  166SOPE   O3218655   3.878   4.973  10.223 -0.1576 -0.3465  0.3097
  166SOPE   C3218656   3.720   5.066  10.071 -0.0612  1.0920  0.7007
  166SOPE   H2X18657   3.770   5.163  10.049 -0.3823  1.8036  2.9101
  166SOPE   H2Y18658   3.609   5.067  10.084  0.0902 -0.7171  2.7512
  166SOPE   C2318659   3.778   4.501  10.171 -0.5699  0.3099  0.1707
  166SOPE   H3R18660   3.720   4.407  10.174 -0.6614  0.2558 -1.8396
  166SOPE   H3S18661   3.858   4.484  10.097  0.6347 -1.2529  1.7569
  166SOPE   C2418662   3.684   4.610  10.116 -0.1781 -1.0815 -0.1712
  166SOPE   H4R18663   3.606   4.630  10.192 -0.0471 -0.7386 -0.1273
  166SOPE   H4S18664   3.747   4.700  10.103  0.1865 -1.5571 -2.1352
  166SOPE   C2518665   3.625   4.576   9.978  0.2984 -0.2488 -0.3658
  166SOPE   H5R18666   3.703   4.590   9.901  0.0199  1.0662 -0.4219
  166SOPE   H5S18667   3.593   4.469   9.980  2.8495 -1.0869 -1.1070
  166SOPE   C2618668   3.512   4.668   9.938 -0.2291 -0.3586  0.1156
  166SOPE   H6R18669   3.425   4.661  10.005 -0.5287 -0.0457 -0.2371
  166SOPE   H6S18670   3.541   4.775   9.937  0.2809 -0.4729 -1.5283
  166SOPE   C2718671   3.467   4.642   9.794 -0.0395  0.4189 -0.4532
  166SOPE   H7R18672   3.552   4.656   9.724 -0.3603 -0.3205 -1.0164
  166SOPE   H7S18673   3.453   4.532   9.783  1.4095  0.0993  0.6689
  166SOPE   C2818674   3.329   4.704   9.751 -0.4186  0.6231 -0.5796
  166SOPE   H8R18675   3.303   4.653   9.656  3.6737  0.6178 -1.8810
  166SOPE   H8S18676   3.250   4.690   9.828  0.5795 -1.0145  0.1936
  166SOPE   C2918677   3.338   4.851   9.714  0.1575 -0.1669  0.0242
  166SOPE   H9118678   3.362   4.918   9.798 -0.6963  1.5699 -1.0568
  166SOPE  C21018679   3.334   4.901   9.590  0.0302 -0.2626  0.4026
  166SOPE  H10118680   3.335   5.010   9.574  0.6293 -0.3643 -0.3006
  166SOPE  C21118681   3.328   4.826   9.456 -0.1407  0.5330 -0.1734
  166SOPE  H11R18682   3.262   4.737   9.453  1.9864 -1.1132 -0.9778
  166SOPE  H11S18683   3.426   4.781   9.427  1.5381  2.2956  2.3494
  166SOPE  C21218684   3.287   4.919   9.336 -0.2885  0.1819  0.0472
  166SOPE  H12R18685   3.373   4.988   9.319 -0.5184  0.6252  0.6414
  166SOPE  H12S18686   3.191   4.970   9.355 -0.4666 -0.6075  1.3875
  166SOPE  C21318687   3.251   4.830   9.218  0.4980  0.0347  0.2684
  166SOPE  H13R18688   3.187   4.745   9.248  0.7032  0.1113  0.9369
  166SOPE  H13S18689   3.351   4.794   9.186  0.4404 -0.3531  0.5223
  166SOPE  C21418690   3.185   4.908   9.108  0.1150  0.6129 -0.0170
  166SOPE  H14R18691   3.085   4.937   9.149  1.3609  2.2711  2.0679
  166SOPE  H14S18692   3.157   4.851   9.018 -3.5802 -0.8794  1.8702
  166SOPE  C21518693   3.256   5.040   9.075 -0.1291 -0.2845  0.0168
  166SOPE  H15R18694   3.362   5.028   9.043  0.5156 -0.7335  2.1523
  166SOPE  H15S18695   3.257   5.100   9.169 -2.2576  1.3309 -0.9218
  166SOPE  C21618696   3.175   5.129   8.973 -0.4281  0.2353  0.3795
  166SOPE  H16R18697   3.224   5.228   8.976 -0.0437  0.1384 -1.6127
  166SOPE  H16S18698   3.073   5.127   9.016 -1.1195  0.7381 -1.1732
  166SOPE  C21718699   3.167   5.074   8.836 -0.2016  0.6580  0.5515
  166SOPE  H17R18700   3.162   4.963   8.838  0.4659  0.5579 -1.3011
  166SOPE  H17S18701   3.251   5.109   8.773  0.4055 -1.6290  0.0008
  166SOPE  C21818702   3.043   5.106   8.761 -0.1809 -0.8716  0.3408
  166SOPE  H18R18703   2.959   5.110   8.834 -0.5430 -0.6911 -0.0798
  166SOPE  H18S18704   3.009   5.027   8.690 -1.4749 -1.9430  2.0576
  166SOPE  H18T18705   3.054   5.202   8.706  0.3752 -0.4300  1.2112
  166SOPE   C3318706   3.769   4.984   9.949  0.6148 -0.2885  0.2458
  166SOPE   H3X18707   3.715   4.887   9.945  0.0214  0.0225  0.5469
  166SOPE   H3Y18708   3.876   4.956   9.943  0.3324 -1.1006 -1.8350
  166SOPE   C3418709   3.750   5.070   9.822 -0.1213 -0.0692  0.0755
  166SOPE   H4X18710   3.829   5.148   9.827 -1.7735  1.5850  1.5192
  166SOPE   H4Y18711   3.655   5.126   9.816  1.4803  3.2004  2.4295
  166SOPE   C3518712   3.757   4.981   9.704  0.1203  0.0008 -0.5496
  166SOPE   H5X18713   3.676   4.906   9.717 -1.5111  1.6761 -0.6041
  166SOPE   H5Y18714   3.852   4.925   9.711  0.6807  1.1431  2.4000
  166SOPE   C3618715   3.751   5.066   9.578 -0.1485 -0.1236  0.2393
  166SOPE   H6X18716   3.829   5.145   9.589  2.5796 -2.9590  3.5129
  166SOPE   H6Y18717   3.653   5.116   9.565 -0.2847 -0.8131 -1.8013
  166SOPE   C3718718   3.778   4.987   9.449  0.2760 -0.2144 -0.4378
  166SOPE   H7X18719   3.700   4.910   9.430  1.0010 -1.3371  0.9620
  166SOPE   H7Y18720   3.868   4.926   9.473  0.2224 -0.6465 -1.3026
  166SOPE   C3818721   3.784   5.068   9.322 -0.3107  0.1744 -0.2147
  166SOPE   H8X18722   3.876   5.130   9.327 -0.8030  0.8627  1.0928
  166SOPE   H8Y18723   3.702   5.142   9.306 -0.6455 -0.5268 -1.9563
  166SOPE   C3918724   3.781   4.981   9.207  0.3316  0.0930 -0.2245
  166SOPE   H9X18725   3.679   4.936   9.199  0.0843  0.4257  0.8990
  166SOPE   H9Y18726   3.855   4.898   9.201 -0.7456 -0.9540  0.4299
  166SOPE  C31018727   3.805   5.068   9.079  0.0630 -0.3564  0.3129
  166SOPE  H10X18728   3.905   5.115   9.092 -0.0909 -0.2922  1.3793
  166SOPE  H10Y18729   3.742   5.159   9.086 -0.1712 -0.4735 -0.1866
  166SOPE  C31118730   3.789   4.983   8.954  0.7183  0.6973 -0.1836
  166SOPE  H11X18731   3.692   4.933   8.977  1.9467 -0.9345  1.9282
  166SOPE  H11Y18732   3.864   4.901   8.956  1.7411  1.6119  0.1611
  166SOPE  C31218733   3.791   5.055   8.821 -0.3182  0.4431 -0.3193
  166SOPE  H12X18734   3.829   4.994   8.736  3.1521 -0.2705  1.5323
  166SOPE  H12Y18735   3.850   5.149   8.823 -0.1898  0.3669  2.1286
  166SOPE  C31318736   3.650   5.100   8.780  0.1335  0.0706  0.1211
  166SOPE  H13X18737   3.590   5.161   8.850  0.2317 -1.3778  1.5283
  166SOPE  H13Y18738   3.594   5.004   8.784  1.2938 -0.7908 -2.2358
  166SOPE  C31418739   3.643   5.172   8.643 -0.5852  0.8846 -0.2463
  166SOPE  H14X18740   3.703   5.124   8.564 -0.7203  3.3202 -1.9367
  166SOPE  H14Y18741   3.696   5.267   8.666  0.6286  0.0612  0.4458
  166SOPE  C31518742   3.501   5.195   8.595  0.4510  0.1453 -0.1135
  166SOPE  H15X18743   3.447   5.098   8.603  0.4506  0.0174 -1.3885
  166SOPE  H15Y18744   3.509   5.221   8.487  1.3184 -1.5966 -0.5104
  166SOPE  C31618745   3.423   5.296   8.672  0.8687 -0.4235  0.7332
  166SOPE  H16X18746   3.482   5.389   8.686 -0.2148  0.3279  0.3854
  166SOPE  H16Y18747   3.410   5.262   8.777  2.0438 -2.0865  0.3872
  166SOPE  C31718748   3.277   5.332   8.626 -1.1982  0.4905  0.2094
  166SOPE  H17X18749   3.218   5.342   8.719 -1.9196 -0.6312 -0.1112
  166SOPE  H17Y18750   3.238   5.245   8.570 -2.3013  2.1580 -1.7735
  166SOPE  C31818751   3.274   5.454   8.530 -0.0617 -0.4435  0.1732
  166SOPE  H18X18752   3.325   5.544   8.572 -1.7375  1.0388 -0.8233
  166SOPE  H18Y18753   3.169   5.476   8.503  0.4408  0.1281 -1.4207
  166SOPE  H18Z18754   3.324   5.430   8.434  2.7877  0.1513  1.4004
  167SOPE     N18755   4.203   2.036   6.011 -0.0496  0.5200 -0.0069
  167SOPE   HN118756   4.304   2.058   6.018 -0.0359  0.1863  1.0362
  167SOPE   HN218757   4.164   1.996   6.099  2.4213  0.1770  1.0178
  167SOPE   HN318758   4.209   1.957   5.944  3.0924 -1.0274  1.8633
  167SOPE   C1218759   4.115   2.149   5.958 -0.0435 -0.3220 -0.0136
  167SOPE  H12A18760   4.014   2.132   6.002  0.5617  0.6915  1.8196
  167SOPE  H12B18761   4.106   2.140   5.847  0.7239  0.0487 -0.1101
  167SOPE   C1118762   4.152   2.288   5.994 -0.1253 -0.8372 -0.4586
  167SOPE  H11A18763   4.074   2.357   5.956  0.1981 -0.9881 -1.4433
  167SOPE  H11B18764   4.249   2.313   5.945  0.2490  1.0505  1.1184
  167SOPE     P18765   4.232   2.430   6.189 -0.4428 -0.3478 -0.3840
  167SOPE   O1318766   4.169   2.463   6.322  0.9621 -0.2638  0.2092
  167SOPE   O1418767   4.246   2.534   6.078 -0.0390 -0.4077  0.5419
  167SOPE   O1218768   4.167   2.300   6.129  0.2077  0.1534  0.2454
  167SOPE   O1118769   4.379   2.381   6.215 -0.3290  0.1691  0.7726
  167SOPE    C118770   4.408   2.252   6.261  0.1516 -0.1622 -0.5756
  167SOPE    HA18771   4.457   2.184   6.189 -0.3032 -2.4845  1.2081
  167SOPE    HB18772   4.317   2.198   6.294 -0.9970  1.2954 -1.2185
  167SOPE    C218773   4.517   2.265   6.379  0.2457 -0.0094  0.1018
  167SOPE    HS18774   4.561   2.163   6.377  1.1885  0.3972 -0.8616
  167SOPE   O2118775   4.455   2.301   6.503  0.5410  0.0833 -0.4628
  167SOPE   C2118776   4.409   2.189   6.570  0.6329 -0.5719  0.3365
  167SOPE   O2218777   4.424   2.075   6.536 -0.1576 -0.0627  0.4216
  167SOPE   C2218778   4.351   2.240   6.704  0.2872 -0.3664  0.1458
  167SOPE   H2R18779   4.251   2.193   6.703  0.6223 -1.0945  0.2838
  167SOPE   H2S18780   4.353   2.351   6.698 -0.2370 -0.3904 -0.8245
  167SOPE    C318781   4.630   2.358   6.332  0.5160  0.8431 -0.1259
  167SOPE    HX18782   4.572   2.452   6.330 -0.2530  0.3826  0.0596
  167SOPE    HY18783   4.662   2.323   6.231  0.0435 -3.3356  0.9690
  167SOPE   O3118784   4.744   2.357   6.422  0.4378  0.4727 -0.3078
  167SOPE   C3118785   4.857   2.414   6.372  0.7380  0.1349 -0.0624
  167SOPE   O3218786   4.860   2.466   6.261 -0.5572  0.3983  0.1525
  167SOPE   C3218787   4.963   2.387   6.466 -0.3915  1.5176 -0.6442
  167SOPE   H2X18788   5.056   2.417   6.413  1.2422 -0.1829  1.0836
  167SOPE   H2Y18789   4.981   2.279   6.487  0.5719  2.2835  3.1786
  167SOPE   C2318790   4.426   2.175   6.827  0.8108  0.4766 -0.3345
  167SOPE   H3R18791   4.415   2.065   6.816  0.8700  0.6998 -3.6027
  167SOPE   H3S18792   4.363   2.216   6.909 -1.9486  2.3384 -3.1416
  167SOPE   C2418793   4.567   2.212   6.857 -0.9162 -0.1029  0.0703
  167SOPE   H4R18794   4.615   2.201   6.757  0.9667 -0.0087  0.9178
  167SOPE   H4S18795   4.577   2.320   6.883  2.2293 -0.8894  2.7454
  167SOPE   C2518796   4.638   2.122   6.960 -0.6325  0.1209  0.5934
  167SOPE   H5R18797   4.615   2.021   6.920 -2.5708  0.5864  0.4280
  167SOPE   H5S18798   4.750   2.124   6.957 -0.5705 -1.9497 -0.6674
  167SOPE   C2618799   4.603   2.150   7.105  0.3042  0.3759  0.1498
  167SOPE   H6R18800   4.632   2.256   7.121 -0.7441  0.1891  4.3531
  167SOPE   H6S18801   4.496   2.163   7.133  0.1764  0.8157 -0.5126
  167SOPE   C2718802   4.652   2.048   7.205 -0.2120  0.6128  0.3576
  167SOPE   H7R18803   4.642   1.944   7.168 -0.2255  0.0728  1.8079
  167SOPE   H7S18804   4.762   2.061   7.204 -0.1053 -0.2708 -0.1225
  167SOPE   C2818805   4.601   2.064   7.350  0.4169  0.1769  0.6083
  167SOPE   H8R18806   4.652   1.988   7.413 -0.3576 -0.6261  0.2923
  167SOPE   H8S18807   4.627   2.165   7.389 -0.2061  1.1018 -1.2263
  167SOPE   C2918808   4.450   2.051   7.365 -0.5042 -0.3406 -0.9907
  167SOPE   H9118809   4.396   2.033   7.271  0.7071 -1.8959 -1.4338
  167SOPE  C21018810   4.378   2.054   7.482  0.4618  0.1160  0.0001
  167SOPE  H10118811   4.270   2.032   7.481 -0.0131  2.2273 -0.4338
  167SOPE  C21118812   4.446   2.066   7.614 -0.2677 -0.0531 -0.9526
  167SOPE  H11R18813   4.554   2.089   7.600 -0.3682  0.2948 -1.1424
  167SOPE  H11S18814   4.437   1.973   7.675  1.1780  1.0511  1.0431
  167SOPE  C21218815   4.373   2.181   7.689 -0.2869 -0.2916  0.0992
  167SOPE  H12R18816   4.280   2.157   7.745 -0.2241  0.6678  0.6450
  167SOPE  H12S18817   4.353   2.267   7.620 -1.4741 -0.8753 -0.3226
  167SOPE  C21318818   4.456   2.238   7.809 -0.5334 -0.7137  0.5807
  167SOPE  H13R18819   4.547   2.288   7.768  0.2443 -2.2632  0.3378
  167SOPE  H13S18820   4.476   2.150   7.874 -0.6233 -0.3309  1.1325
  167SOPE  C21418821   4.384   2.334   7.902  0.2459 -1.1085  0.9596
  167SOPE  H14R18822   4.337   2.413   7.840  1.9369 -1.2437 -0.6027
  167SOPE  H14S18823   4.459   2.376   7.973  2.9578  0.9278 -2.7064
  167SOPE  C21518824   4.274   2.272   7.992  0.2976 -0.2697  0.4292
  167SOPE  H15R18825   4.199   2.211   7.938 -1.5852  0.3891  2.1730
  167SOPE  H15S18826   4.207   2.354   8.025 -0.4477 -0.8330  0.3408
  167SOPE  C21618827   4.306   2.205   8.121 -0.1480 -0.1249 -0.4323
  167SOPE  H16R18828   4.340   2.281   8.194  3.3125 -2.8418  1.0486
  167SOPE  H16S18829   4.390   2.133   8.109 -0.6194 -1.1055  1.6461
  167SOPE  C21718830   4.189   2.151   8.198 -0.3314 -0.3477  0.3081
  167SOPE  H17R18831   4.137   2.074   8.136  1.9371  0.0876 -2.3210
  167SOPE  H17S18832   4.116   2.230   8.226 -0.3337 -1.1460  2.7894
  167SOPE  C21818833   4.243   2.083   8.329 -0.2459  0.1432 -0.0036
  167SOPE  H18R18834   4.282   1.981   8.311 -0.0427  0.5628 -2.2817
  167SOPE  H18S18835   4.167   2.071   8.409 -0.9106 -1.1957 -0.8109
  167SOPE  H18T18836   4.331   2.136   8.373  1.4147 -0.7757 -2.0396
  167SOPE   C3318837   4.938   2.461   6.599  0.2464 -0.2048 -0.3011
  167SOPE   H3X18838   4.870   2.398   6.662  0.7376 -0.1539  0.2950
  167SOPE   H3Y18839   4.888   2.558   6.577  0.3414 -0.7998 -3.5811
  167SOPE   C3418840   5.064   2.488   6.681  0.3145 -0.1931  0.4465
  167SOPE   H4X18841   5.053   2.572   6.753  0.8745  0.2149  0.0640
  167SOPE   H4Y18842   5.136   2.526   6.605  1.1209 -0.1475  1.2169
  167SOPE   C3518843   5.130   2.367   6.743  0.1013 -0.1715  0.3381
  167SOPE   H5X18844   5.223   2.391   6.798  0.1444  1.6213 -0.4490
  167SOPE   H5Y18845   5.161   2.287   6.672  1.6060 -0.2490  1.0354
  167SOPE   C3618846   5.041   2.297   6.847  0.5410  0.3854  0.0717
  167SOPE   H6X18847   5.015   2.197   6.806  0.5527  0.6380 -0.5763
  167SOPE   H6Y18848   4.957   2.367   6.863 -0.5171 -0.9495  0.5652
  167SOPE   C3718849   5.097   2.280   6.986  0.1149  0.1341 -0.2057
  167SOPE   H7X18850   5.116   2.383   7.024  0.1966 -0.5966  1.8458
  167SOPE   H7Y18851   5.195   2.228   6.998 -0.5194 -1.1691 -0.5574
  167SOPE   C3818852   4.992   2.222   7.091  0.2246 -0.0493  0.2828
  167SOPE   H8X18853   4.968   2.119   7.057  1.6885 -0.5045  0.5809
  167SOPE   H8Y18854   4.898   2.280   7.077  0.0287 -0.4957 -0.2954
  167SOPE   C3918855   5.048   2.227   7.238  0.7128  0.3037  0.4911
  167SOPE   H9X18856   5.079   2.330   7.266  1.0401  0.4345 -0.3416
  167SOPE   H9Y18857   5.141   2.166   7.237 -0.8449 -2.2100 -0.8223
  167SOPE  C31018858   4.961   2.179   7.349 -0.6858 -0.3632  0.2029
  167SOPE  H10X18859   4.956   2.068   7.347  1.0600 -0.4598 -1.2913
  167SOPE  H10Y18860   4.862   2.225   7.332 -1.6891 -2.4200  0.1204
  167SOPE  C31118861   5.012   2.226   7.486 -0.7384  0.0622 -0.0703
  167SOPE  H11X18862   5.032   2.335   7.480 -1.2907  0.2490  1.1368
  167SOPE  H11Y18863   5.099   2.174   7.532 -0.3443  1.3601  0.7126
  167SOPE  C31218864   4.897   2.197   7.584  0.3285  0.5534  0.1307
  167SOPE  H12X18865   4.897   2.087   7.567  0.2699  0.7853 -1.5419
  167SOPE  H12Y18866   4.801   2.243   7.551  1.1933  0.4197 -2.9096
  167SOPE  C31318867   4.938   2.237   7.726 -0.7308  0.1026  0.0724
  167SOPE  H13X18868   4.926   2.347   7.728  0.3081  0.2724 -1.3572
  167SOPE  H13Y18869   5.043   2.205   7.739 -1.8174 -3.0494  2.3199
  167SOPE  C31418870   4.851   2.174   7.826  0.2133  0.2649 -0.2496
  167SOPE  H14X18871   4.863   2.063   7.818 -0.8397  0.2438 -2.0351
  167SOPE  H14Y18872   4.744   2.180   7.798  0.3895 -1.6720 -1.5223
  167SOPE  C31518873   4.867   2.223   7.976  0.0453  0.1242  0.0420
  167SOPE  H15X18874   4.855   2.333   7.976 -0.3950  0.0917  1.3266
  167SOPE  H15Y18875   4.965   2.194   8.018 -1.1143 -1.0796  2.1217
  167SOPE  C31618876   4.749   2.173   8.072  0.1407  0.1261  0.2790
  167SOPE  H16X18877   4.746   2.063   8.082 -2.1384 -0.0569 -1.5566
  167SOPE  H16Y18878   4.653   2.218   8.038  0.7741  0.7319 -0.7662
  167SOPE  C31718879   4.765   2.228   8.212  0.3622 -0.0346  0.5263
  167SOPE  H17X18880   4.863   2.198   8.255 -0.2227 -0.4300  1.6225
  167SOPE  H17Y18881   4.691   2.184   8.282  0.7412  0.2658  1.1261
  167SOPE  C31818882   4.755   2.378   8.212 -0.4265 -0.4707 -0.4787
  167SOPE  H18X18883   4.759   2.427   8.311 -0.6032 -2.4776  0.5807
  167SOPE  H18Y18884   4.660   2.403   8.160  0.2587  3.7023 -0.0128
  167SOPE  H18Z18885   4.836   2.427   8.155 -0.5983 -1.6985 -1.8572
  168SOPE     N18886   5.234   5.346   6.109  0.2964  0.2730  0.1869
  168SOPE   HN118887   5.265   5.311   6.202  0.5550 -0.1617 -0.0612
  168SOPE   HN218888   5.147   5.403   6.121  0.0368  0.3768 -1.8832
  168SOPE   HN318889   5.223   5.269   6.040  2.0249  1.7446 -1.8591
  168SOPE   C1218890   5.340   5.439   6.059  0.0174 -0.0038  0.3695
  168SOPE  H12A18891   5.312   5.467   5.956 -1.6627  1.1501  1.1092
  168SOPE  H12B18892   5.432   5.376   6.069 -0.2832 -0.1408  3.1906
  168SOPE   C1118893   5.355   5.569   6.143 -0.7045  0.1048  0.1061
  168SOPE  H11A18894   5.258   5.622   6.139 -1.0105 -0.4067  0.6233
  168SOPE  H11B18895   5.440   5.623   6.096 -0.9620  0.0425 -0.4358
  168SOPE     P18896   5.329   5.586   6.404  0.1448  0.1331 -0.1906
  168SOPE   O1318897   5.316   5.734   6.408 -0.2771 -0.2839 -0.2723
  168SOPE   O1418898   5.409   5.520   6.508 -0.0070  0.1503 -0.1720
  168SOPE   O1218899   5.397   5.541   6.267  0.3820  0.2273 -0.1136
  168SOPE   O1118900   5.192   5.511   6.398 -0.1801 -0.7500 -0.3786
  168SOPE    C118901   5.068   5.571   6.382 -0.0439  0.0868 -0.0123
  168SOPE    HA18902   4.993   5.493   6.359 -0.7078  0.8052 -0.2996
  168SOPE    HB18903   5.058   5.631   6.289 -2.1520 -0.0275  0.0927
  168SOPE    C218904   5.023   5.659   6.501  0.1340 -0.0024  0.1349
  168SOPE    HS18905   5.067   5.759   6.483 -0.5823  0.7228  2.1200
  168SOPE   O2118906   5.080   5.617   6.629  0.3383  0.4294 -0.6503
  168SOPE   C2118907   5.117   5.707   6.723 -0.7692 -0.0937  0.7520
  168SOPE   O2218908   5.092   5.822   6.723 -0.1702  0.2424  0.5185
  168SOPE   C2218909   5.214   5.646   6.830 -0.6002 -0.1208  0.0727
  168SOPE   H2R18910   5.277   5.722   6.880  0.7287 -0.7690 -0.5629
  168SOPE   H2S18911   5.286   5.585   6.772 -0.5669 -0.5540  0.5558
  168SOPE    C318912   4.865   5.673   6.511  0.7587  0.0636 -0.2935
  168SOPE    HX18913   4.811   5.579   6.536  0.4459  0.2839 -0.1495
  168SOPE    HY18914   4.837   5.713   6.412 -0.5804  1.4962  0.6143
  168SOPE   O3118915   4.827   5.764   6.616 -0.6270  0.3125 -0.1879
  168SOPE   C3118916   4.814   5.890   6.583 -0.1006  0.1014 -0.3038
  168SOPE   O3218917   4.831   5.948   6.479  0.5336  0.1945 -0.4066
  168SOPE   C3218918   4.764   5.967   6.708 -0.4421 -0.0995  1.1466
  168SOPE   H2X18919   4.763   6.077   6.693  1.6453 -0.2264 -0.3442
  168SOPE   H2Y18920   4.845   5.960   6.784  1.2121  1.9727 -0.3071
  168SOPE   C2318921   5.133   5.569   6.938  0.0855 -0.0911 -0.2394
  168SOPE   H3R18922   5.200   5.493   6.984  0.1838 -0.0886 -0.3790
  168SOPE   H3S18923   5.055   5.504   6.894  0.5728 -1.7842  1.2332
  168SOPE   C2418924   5.089   5.668   7.049  0.1503  0.2256 -0.2061
  168SOPE   H4R18925   5.185   5.712   7.083 -0.7872  1.4923  0.9257
  168SOPE   H4S18926   5.026   5.747   7.004 -0.0964 -1.0784 -2.2461
  168SOPE   C2518927   5.030   5.588   7.167 -0.7622 -0.2216 -0.5065
  168SOPE   H5R18928   4.931   5.552   7.133 -1.9738  1.0532  1.4734
  168SOPE   H5S18929   5.106   5.514   7.198  1.0896  1.4239 -0.9063
  168SOPE   C2618930   4.993   5.680   7.284  0.6775  0.1573  0.3110
  168SOPE   H6R18931   5.081   5.733   7.326  0.6445 -0.2094  0.8480
  168SOPE   H6S18932   4.916   5.750   7.244 -0.6155  0.1967  2.6839
  168SOPE   C2718933   4.924   5.612   7.405  0.2143 -0.1917  1.0885
  168SOPE   H7R18934   4.837   5.547   7.381  1.1955 -1.9774  2.1484
  168SOPE   H7S18935   4.999   5.538   7.439  0.0416 -0.0738  1.7486
  168SOPE   C2818936   4.893   5.720   7.510 -0.1519 -0.1042  0.3808
  168SOPE   H8R18937   4.985   5.779   7.526  0.1507 -0.2948 -0.5793
  168SOPE   H8S18938   4.820   5.788   7.460 -0.7137 -0.8331  0.1915
  168SOPE   C2918939   4.848   5.660   7.638  0.0931  0.1228  1.0583
  168SOPE   H9118940   4.745   5.621   7.646 -0.6293  1.5028 -0.7182
  168SOPE  C21018941   4.899   5.669   7.765 -0.0658  0.1150  0.0217
  168SOPE  H10118942   4.842   5.628   7.849 -0.8047 -1.9535 -1.4134
  168SOPE  C21118943   5.045   5.723   7.781  0.2450 -0.7285 -0.2530
  168SOPE  H11R18944   5.112   5.668   7.712 -0.9689 -2.8497  0.1733
  168SOPE  H11S18945   5.082   5.694   7.882 -1.1798 -0.6728  0.3062
  168SOPE  C21218946   5.061   5.877   7.771  0.6500 -0.5670  0.5513
  168SOPE  H12R18947   5.000   5.920   7.689  0.9164 -0.5407  0.3654
  168SOPE  H12S18948   5.168   5.897   7.751 -0.0191  0.8479 -1.9941
  168SOPE  C21318949   5.034   5.951   7.900 -0.0353 -0.0854  0.4252
  168SOPE  H13R18950   5.121   5.948   7.968 -0.5296  0.2908  1.0878
  168SOPE  H13S18951   4.940   5.913   7.946 -1.2701  1.5437 -0.6358
  168SOPE  C21418952   5.016   6.102   7.891  0.2339 -0.5887 -0.2845
  168SOPE  H14R18953   4.940   6.119   7.811 -0.0249 -1.5922 -0.2654
  168SOPE  H14S18954   5.111   6.156   7.871  0.0701 -0.4919 -0.8285
  168SOPE  C21518955   4.959   6.169   8.023 -0.7625  0.4633 -0.4390
  168SOPE  H15R18956   4.850   6.149   8.030 -1.4446  3.5194 -0.5790
  168SOPE  H15S18957   4.968   6.280   8.016  2.1822  0.2745 -0.7447
  168SOPE  C21618958   5.029   6.132   8.155  0.3380  0.3934 -0.5144
  168SOPE  H16R18959   5.003   6.025   8.167  3.3369 -0.4980 -1.0116
  168SOPE  H16S18960   4.968   6.186   8.230  0.8700  1.7420 -1.0233
  168SOPE  C21718961   5.180   6.158   8.153  0.2694 -0.1149 -0.5545
  168SOPE  H17R18962   5.208   6.259   8.118 -0.1709  0.4999  0.7849
  168SOPE  H17S18963   5.232   6.083   8.090 -0.2216  0.0260 -1.1397
  168SOPE  C21818964   5.229   6.150   8.300 -0.0078  0.0106  0.6610
  168SOPE  H18R18965   5.191   6.056   8.347 -0.1136 -1.5005 -2.2045
  168SOPE  H18S18966   5.197   6.234   8.365 -0.5681 -1.1150  1.8868
  168SOPE  H18T18967   5.339   6.149   8.287 -0.1776 -0.3957 -0.9175
  168SOPE   C3318968   4.628   5.906   6.758  0.0570  0.2872  0.1298
  168SOPE   H3X18969   4.615   5.799   6.734 -1.4560  1.0735 -3.0110
  168SOPE   H3Y18970   4.547   5.962   6.707  1.1682  1.8078 -0.0351
  168SOPE   C3418971   4.611   5.911   6.914  0.5789 -0.4833  0.7091
  168SOPE   H4X18972   4.629   6.014   6.952 -2.1124  0.0717  0.6840
  168SOPE   H4Y18973   4.678   5.835   6.959  0.4135 -0.3542  1.1791
  168SOPE   C3518974   4.457   5.884   6.942  0.6056  0.0185 -0.1136
  168SOPE   H5X18975   4.448   5.774   6.926  0.3517  0.0814 -0.4209
  168SOPE   H5Y18976   4.397   5.938   6.866 -0.0987  0.1539  0.5307
  168SOPE   C3618977   4.406   5.936   7.083 -0.3418 -0.1038  0.6406
  168SOPE   H6X18978   4.295   5.930   7.090 -0.4271  1.4950  1.0701
  168SOPE   H6Y18979   4.421   6.046   7.089 -2.1467  0.2077  0.0988
  168SOPE   C3718980   4.468   5.852   7.196  1.0629 -1.0592  0.2814
  168SOPE   H7X18981   4.572   5.888   7.211  0.5867  0.7220 -0.3301
  168SOPE   H7Y18982   4.477   5.747   7.162 -1.1190 -0.7590 -1.4252
  168SOPE   C3818983   4.399   5.875   7.333  0.0531 -0.2318 -0.3751
  168SOPE   H8X18984   4.291   5.847   7.332 -0.1057  0.1533  1.5069
  168SOPE   H8Y18985   4.412   5.982   7.362  0.7623 -0.4822  0.2658
  168SOPE   C3918986   4.480   5.793   7.436 -0.0211 -0.0478  0.0025
  168SOPE   H9X18987   4.581   5.835   7.455  0.4650 -1.5171  0.7438
  168SOPE   H9Y18988   4.474   5.689   7.399 -1.1029  0.0037 -0.0163
  168SOPE  C31018989   4.407   5.788   7.574 -0.0619  0.0905 -0.1643
  168SOPE  H10X18990   4.305   5.750   7.552  0.6315 -0.3874 -3.0053
  168SOPE  H10Y18991   4.390   5.890   7.616 -0.0287  0.2907 -0.6265
  168SOPE  C31118992   4.475   5.689   7.670  0.1597 -0.0845  1.2218
  168SOPE  H11X18993   4.576   5.728   7.695  0.3132  2.9841 -3.1072
  168SOPE  H11Y18994   4.498   5.599   7.609  1.4949  2.5584 -2.5159
  168SOPE  C31218995   4.390   5.667   7.798  0.3627  0.1453  0.2752
  168SOPE  H12X18996   4.282   5.642   7.785 -0.0338  1.6730  0.4550
  168SOPE  H12Y18997   4.409   5.762   7.852  2.0465 -0.1654  0.2686
  168SOPE  C31318998   4.442   5.554   7.887 -0.0937  0.2209 -0.3897
  168SOPE  H13X18999   4.553   5.545   7.884  0.1122  2.1859 -0.3303
  168SOPE  H13Y19000   4.400   5.463   7.839 -0.6023 -0.2166  0.8489
  168SOPE  C31419001   4.396   5.555   8.031 -0.1931 -0.2766  0.0743
  168SOPE  H14X19002   4.285   5.556   8.030 -0.2030 -0.5923  0.4768
  168SOPE  H14Y19003   4.427   5.653   8.073 -1.6837 -0.6725  2.2535
  168SOPE  C31519004   4.448   5.445   8.129 -0.1533 -0.6804  0.7125
  168SOPE  H15X19005   4.412   5.345   8.097 -1.3172  0.0592 -0.4178
  168SOPE  H15Y19006   4.402   5.463   8.229 -4.0955  0.4248 -1.0867
  168SOPE  C31619007   4.600   5.439   8.142 -0.0012 -0.5320 -0.5380
  168SOPE  H16X19008   4.638   5.541   8.162 -0.2621 -0.8535  1.7797
  168SOPE  H16Y19009   4.650   5.397   8.052  0.8788 -2.6895  0.8904
  168SOPE  C31719010   4.655   5.356   8.260 -0.0115  0.0353  0.2597
  168SOPE  H17X19011   4.631   5.402   8.358  0.6592  0.9997 -0.0126
  168SOPE  H17Y19012   4.765   5.349   8.250 -0.0952  1.5663 -3.6209
  168SOPE  C31819013   4.609   5.206   8.254 -0.2291 -0.5642 -0.6608
  168SOPE  H18X19014   4.564   5.193   8.154  1.5168  1.3722 -1.7776
  168SOPE  H18Y19015   4.533   5.199   8.334 -0.6197  2.2694 -0.6530
  168SOPE  H18Z19016   4.692   5.136   8.278 -1.1915 -2.0307 -1.4884
  169SOPE     N19017   5.528   6.661   6.380  0.0307 -0.3163  0.4731
  169SOPE   HN119018   5.622   6.632   6.413  0.3793  0.4127  0.1521
  169SOPE   HN219019   5.469   6.655   6.465 -0.3290  1.2996  0.3718
  169SOPE   HN319020   5.497   6.592   6.308  1.7893 -0.8174  0.1472
  169SOPE   C1219021   5.526   6.805   6.321 -0.4186  0.2988  0.4744
  169SOPE  H12A19022   5.424   6.838   6.294 -0.0763 -0.1543 -1.5959
  169SOPE  H12B19023   5.590   6.803   6.230  0.4426  1.5765  1.0271
  169SOPE   C1119024   5.613   6.898   6.406 -0.6619 -1.2842  0.4616
  169SOPE  H11A19025   5.577   6.909   6.511  1.5936 -1.3017  1.2959
  169SOPE  H11B19026   5.608   7.000   6.362 -0.3171 -1.2683  0.4569
  169SOPE     P19027   5.870   6.915   6.347 -0.1540  0.2455 -0.3145
  169SOPE   O1319028   5.871   7.056   6.380 -0.2950  0.1806 -0.4451
  169SOPE   O1419029   5.874   6.876   6.206 -0.0397  0.2135  0.8219
  169SOPE   O1219030   5.745   6.846   6.408 -0.2325  0.3724  0.0540
  169SOPE   O1119031   5.994   6.845   6.423  0.1042 -0.5617 -0.1311
  169SOPE    C119032   5.984   6.749   6.526  0.2439 -0.1615 -0.2514
  169SOPE    HA19033   6.083   6.700   6.533  0.2669 -0.4695 -2.3545
  169SOPE    HB19034   5.909   6.671   6.500  0.5759  0.4385 -3.3454
  169SOPE    C219035   5.934   6.819   6.663  0.0463  0.6935  0.0926
  169SOPE    HS19036   5.838   6.871   6.644 -2.1117 -3.5966 -2.2455
  169SOPE   O2119037   6.040   6.910   6.698 -0.3173  0.0438  0.3861
  169SOPE   C2119038   5.991   7.016   6.769 -0.2608 -0.1879 -0.4154
  169SOPE   O2219039   5.873   7.042   6.781 -0.1148 -0.2104 -0.5907
  169SOPE   C2219040   6.103   7.097   6.817  0.0802 -0.2397  0.3016
  169SOPE   H2R19041   6.095   7.203   6.785 -0.6171 -0.2290  0.4998
  169SOPE   H2S19042   6.198   7.064   6.770 -0.0254 -3.0588  1.8612
  169SOPE    C319043   5.927   6.706   6.773  0.9174  0.7400  0.2512
  169SOPE    HX19044   6.016   6.640   6.771  0.9614  0.7158  1.9284
  169SOPE    HY19045   5.836   6.648   6.747  1.5779 -0.1921 -0.0666
  169SOPE   O3119046   5.930   6.763   6.907 -0.7064 -0.0090 -0.7283
  169SOPE   C3119047   5.806   6.797   6.947 -0.0040 -0.1591  0.1283
  169SOPE   O3219048   5.701   6.791   6.886  0.1026 -0.0624  0.4715
  169SOPE   C3219049   5.804   6.880   7.079 -0.2447 -0.3709 -0.0261
  169SOPE   H2X19050   5.706   6.932   7.078 -0.1550 -0.1992 -1.6147
  169SOPE   H2Y19051   5.889   6.951   7.066 -1.8596  1.7989  0.7123
  169SOPE   C2319052   6.123   7.105   6.970 -0.2281 -0.3874  0.4021
  169SOPE   H3R19053   6.034   7.097   7.036  0.8011 -0.1339  1.8951
  169SOPE   H3S19054   6.165   7.206   6.991  0.3056 -0.4641 -0.2661
  169SOPE   C2419055   6.220   6.995   7.014  0.7541  0.3451  0.0460
  169SOPE   H4R19056   6.185   6.903   6.963 -2.0878  1.6739 -0.5809
  169SOPE   H4S19057   6.318   7.028   6.972  0.6539  0.2840 -0.2364
  169SOPE   C2519058   6.237   6.978   7.164 -0.5092 -0.2796 -0.3447
  169SOPE   H5R19059   6.147   6.932   7.211 -1.8623  1.8628 -0.6553
  169SOPE   H5S19060   6.324   6.914   7.185 -0.0682  0.9176  1.7032
  169SOPE   C2619061   6.266   7.109   7.240  0.3242  0.5588  0.2543
  169SOPE   H6R19062   6.361   7.090   7.293 -0.2514  1.6803  1.7687
  169SOPE   H6S19063   6.290   7.198   7.177  0.1128 -0.2553 -1.0056
  169SOPE   C2719064   6.165   7.144   7.353 -0.4746 -1.2603  0.7768
  169SOPE   H7R19065   6.063   7.133   7.311  0.6379  1.0189 -3.0745
  169SOPE   H7S19066   6.175   7.070   7.435 -0.3527 -1.6647  0.4086
  169SOPE   C2819067   6.175   7.294   7.404 -0.1540  0.1466  0.4850
  169SOPE   H8R19068   6.166   7.353   7.310 -0.8937 -0.1812  0.3428
  169SOPE   H8S19069   6.092   7.322   7.472 -1.1115  3.7356 -1.8838
  169SOPE   C2919070   6.311   7.315   7.460  0.7191  0.7010 -0.4121
  169SOPE   H9119071   6.397   7.269   7.409 -0.4741 -1.9792 -0.2045
  169SOPE  C21019072   6.333   7.392   7.570 -0.6529 -0.4803  0.1890
  169SOPE  H10119073   6.437   7.401   7.605 -0.9306 -0.3623  0.9990
  169SOPE  C21119074   6.238   7.458   7.662 -0.3323  0.1080 -0.1474
  169SOPE  H11R19075   6.136   7.457   7.619  0.1332 -0.8760 -1.2789
  169SOPE  H11S19076   6.254   7.568   7.656 -1.3506  0.2949  0.3124
  169SOPE  C21219077   6.230   7.390   7.800 -0.2769  0.2638  0.4961
  169SOPE  H12R19078   6.166   7.454   7.864  1.4202  1.0802  1.4399
  169SOPE  H12S19079   6.331   7.382   7.845 -1.7148 -1.3599  3.8618
  169SOPE  C21319080   6.174   7.241   7.785 -0.1211  0.6762  0.3479
  169SOPE  H13R19081   6.252   7.184   7.731 -0.7712  0.1213 -0.0187
  169SOPE  H13S19082   6.078   7.235   7.729  1.4268  1.4632 -2.6369
  169SOPE  C21419083   6.150   7.175   7.923 -0.2291 -0.4133  0.3417
  169SOPE  H14R19084   6.073   7.238   7.972  0.2786  0.1603  0.4279
  169SOPE  H14S19085   6.246   7.174   7.979 -0.3546  0.6659  0.6014
  169SOPE  C21519086   6.086   7.034   7.899  0.1809  0.0249 -0.4302
  169SOPE  H15R19087   6.162   6.984   7.836  0.0357  1.3898 -1.7427
  169SOPE  H15S19088   5.998   7.055   7.833  1.3581 -0.7659 -2.3257
  169SOPE  C21619089   6.066   6.955   8.037 -0.5724 -0.6089  0.5795
  169SOPE  H16R19090   6.012   7.016   8.112  1.8263  0.1741  1.7812
  169SOPE  H16S19091   6.171   6.943   8.071 -0.5602  2.4118  1.9802
  169SOPE  C21719092   5.991   6.821   8.014 -0.4058  0.3164  0.2560
  169SOPE  H17R19093   6.000   6.764   8.109 -1.1197 -0.1812  0.0379
  169SOPE  H17S19094   6.048   6.770   7.934  0.0302 -0.7625  1.2121
  169SOPE  C21819095   5.846   6.841   7.966  0.9936 -0.5252  0.1341
  169SOPE  H18R19096   5.778   6.867   8.049 -0.3150 -3.7915  0.2500
  169SOPE  H18S19097   5.809   6.741   7.935 -0.1365 -0.8565  2.3612
  169SOPE  H18T19098   5.832   6.914   7.884 -0.3448  0.9107  1.5880
  169SOPE   C3319099   5.813   6.797   7.210  0.0178 -0.5678 -0.0521
  169SOPE   H3X19100   5.899   6.728   7.196  0.5023  0.3495 -1.7731
  169SOPE   H3Y19101   5.717   6.740   7.209  0.5135 -1.5106  1.5561
  169SOPE   C3419102   5.835   6.871   7.340 -0.5609  0.0732 -0.0731
  169SOPE   H4X19103   5.773   6.963   7.338  0.5267  0.8046 -1.1766
  169SOPE   H4Y19104   5.939   6.909   7.341 -1.0272  1.4632  1.9455
  169SOPE   C3519105   5.820   6.797   7.476  0.3618 -0.1205  0.8024
  169SOPE   H5X19106   5.711   6.783   7.490  0.0031  0.4226 -1.1309
  169SOPE   H5Y19107   5.847   6.878   7.547 -0.6473  1.3750 -0.4497
  169SOPE   C3619108   5.881   6.663   7.489 -0.6441 -0.3033  0.1736
  169SOPE   H6X19109   5.988   6.667   7.457 -0.0962  0.5660  1.9847
  169SOPE   H6Y19110   5.830   6.584   7.429 -1.3974 -0.1298  0.5787
  169SOPE   C3719111   5.895   6.620   7.640  0.1284  0.3022  0.1353
  169SOPE   H7X19112   5.789   6.626   7.674  0.1232  1.3146 -0.0291
  169SOPE   H7Y19113   5.942   6.704   7.694  0.2065 -0.2798  1.0017
  169SOPE   C3819114   5.977   6.493   7.671  0.1258  0.2239  0.2368
  169SOPE   H8X19115   5.927   6.401   7.634  2.3406 -1.3640  0.9653
  169SOPE   H8Y19116   6.075   6.501   7.621  0.5629 -0.7050  0.9034
  169SOPE   C3919117   5.980   6.455   7.820 -0.5248  0.6620 -0.2277
  169SOPE   H9X19118   5.874   6.458   7.851 -0.8876 -1.2519 -1.1918
  169SOPE   H9Y19119   6.030   6.540   7.872 -1.0815  0.6034  0.4107
  169SOPE  C31019120   6.062   6.339   7.852 -0.1518  0.6684 -0.6441
  169SOPE  H10X19121   6.147   6.317   7.783 -0.3840  0.4687 -0.8670
  169SOPE  H10Y19122   6.000   6.247   7.852 -0.9148  1.1715 -0.5724
  169SOPE  C31119123   6.112   6.337   8.000 -0.2493 -0.7606  0.4978
  169SOPE  H11X19124   6.205   6.397   7.996 -0.1994 -0.8939 -0.8553
  169SOPE  H11Y19125   6.140   6.233   8.025  1.6127 -0.1349  1.1938
  169SOPE  C31219126   6.018   6.385   8.107 -0.3631 -0.0326  0.2257
  169SOPE  H12X19127   5.919   6.336   8.095 -0.6392 -0.1772  2.5309
  169SOPE  H12Y19128   5.992   6.492   8.098 -0.9495 -0.3451 -2.5462
  169SOPE  C31319129   6.076   6.369   8.246 -0.6240 -0.0422 -0.1703
  169SOPE  H13X19130   6.075   6.262   8.277  0.7694 -0.6843 -2.1025
  169SOPE  H13Y19131   6.037   6.436   8.325 -0.0108  0.6565 -0.4527
  169SOPE  C31419132   6.229   6.415   8.263 -0.1524  0.2110 -0.1729
  169SOPE  H14X19133   6.303   6.351   8.210 -1.2212 -2.0764  0.9609
  169SOPE  H14Y19134   6.257   6.414   8.371 -1.7130  0.6741  0.2694
  169SOPE  C31519135   6.255   6.556   8.214  0.1993 -0.1249  0.2442
  169SOPE  H15X19136   6.168   6.612   8.255 -0.6356 -1.2125  0.0009
  169SOPE  H15Y19137   6.259   6.570   8.104 -0.8920  0.8732  0.3095
  169SOPE  C31619138   6.388   6.612   8.272  0.4222  0.9455  0.5570
  169SOPE  H16X19139   6.467   6.556   8.217  0.5642  2.1449 -0.5238
  169SOPE  H16Y19140   6.397   6.574   8.376 -0.6157  0.2626  0.4072
  169SOPE  C31719141   6.399   6.760   8.248  0.4992 -0.0757 -0.0620
  169SOPE  H17X19142   6.346   6.819   8.326 -0.7059 -0.0561 -0.8746
  169SOPE  H17Y19143   6.361   6.790   8.148  1.6112  0.0842 -0.4476
  169SOPE  C31819144   6.543   6.813   8.263  0.0317 -0.0379  0.2767
  169SOPE  H18X19145   6.622   6.754   8.212  0.8708 -0.2884  1.7754
  169SOPE  H18Y19146   6.562   6.825   8.372 -0.2451  1.1896  0.2088
  169SOPE  H18Z19147   6.544   6.921   8.235  1.0469  0.3849  1.7801
  170SOPE     N19148   0.158   5.399   6.397  0.3531  0.2426  0.3656
  170SOPE   HN119149   0.060   5.363   6.394  0.9877 -1.8550  2.3135
  170SOPE   HN219150   0.226   5.321   6.393  0.2435  0.1816 -0.6022
  170SOPE   HN319151   0.189   5.452   6.481  1.2233 -1.0322  0.8869
  170SOPE   C1219152   0.179   5.499   6.287 -0.0675  0.1642  0.0857
  170SOPE  H12A19153   0.161   5.600   6.331 -0.8900  0.4742 -0.9149
  170SOPE  H12B19154   0.099   5.491   6.210 -0.1010 -1.5726  0.2688
  170SOPE   C1119155   0.316   5.473   6.229 -0.2718 -0.6685  0.3878
  170SOPE  H11A19156   0.331   5.573   6.183 -1.2490 -0.0731  1.3045
  170SOPE  H11B19157   0.321   5.401   6.145 -0.0261 -0.1429 -0.0532
  170SOPE     P19158   0.560   5.385   6.277  0.0429 -0.1678  0.2949
  170SOPE   O1319159   0.627   5.478   6.188  0.3754 -0.5981 -0.4458
  170SOPE   O1419160   0.528   5.252   6.222 -0.4113  0.4974 -0.0477
  170SOPE   O1219161   0.424   5.456   6.321 -0.0643  0.3169  0.1999
  170SOPE   O1119162   0.639   5.368   6.417 -0.3419  0.2444  1.1420
  170SOPE    C119163   0.627   5.453   6.526  0.1420 -0.3453 -0.0047
  170SOPE    HA19164   0.560   5.540   6.505 -1.6439 -1.4115  0.9853
  170SOPE    HB19165   0.722   5.502   6.553  1.3403 -0.9141 -2.8768
  170SOPE    C219166   0.569   5.378   6.649  0.2678 -0.5051 -0.0788
  170SOPE    HS19167   0.539   5.455   6.723  0.9159 -1.0910  0.8038
  170SOPE   O2119168   0.676   5.287   6.685 -0.1483 -0.0164 -0.5214
  170SOPE   C2119169   0.675   5.256   6.817  0.6448 -0.0838  0.1141
  170SOPE   O2219170   0.599   5.307   6.898  0.2111  0.0055 -0.0343
  170SOPE   C2219171   0.789   5.156   6.844  0.1777 -0.8745 -0.1818
  170SOPE   H2R19172   0.888   5.200   6.818  0.1702  0.3469  1.6598
  170SOPE   H2S19173   0.782   5.069   6.776  1.6243 -0.6739 -0.6222
  170SOPE    C319174   0.435   5.298   6.611  0.6825 -0.5684 -0.1718
  170SOPE    HX19175   0.462   5.223   6.534 -1.2139 -0.0803 -1.3893
  170SOPE    HY19176   0.364   5.377   6.579  1.7598  0.0495 -1.1285
  170SOPE   O3119177   0.386   5.227   6.727 -0.2707  0.0828  0.2948
  170SOPE   C3119178   0.253   5.205   6.734 -0.0287  0.8068  0.3238
  170SOPE   O3219179   0.176   5.244   6.650  0.0257  0.7602  0.2087
  170SOPE   C3219180   0.217   5.109   6.847  0.8929 -1.2801  0.1832
  170SOPE   H2X19181   0.181   5.022   6.788 -3.8613  0.7752 -0.4655
  170SOPE   H2Y19182   0.129   5.155   6.897  2.1374  2.2509 -0.6068
  170SOPE   C2319183   0.801   5.115   6.994  0.2427  0.5899 -0.0731
  170SOPE   H3R19184   0.796   5.207   7.056 -0.2738 -0.6698  1.8442
  170SOPE   H3S19185   0.894   5.055   7.009  0.5461  0.8878 -0.6995
  170SOPE   C2419186   0.693   5.015   7.041  0.3616  0.0137 -0.3479
  170SOPE   H4R19187   0.610   5.083   7.068 -0.1039 -1.1256  1.1937
  170SOPE   H4S19188   0.671   4.949   6.954  0.8305  1.0418 -1.2759
  170SOPE   C2519189   0.736   4.935   7.165 -0.1288  0.0727  0.1568
  170SOPE   H5R19190   0.832   4.890   7.134 -0.5937 -0.2434 -0.8440
  170SOPE   H5S19191   0.766   5.003   7.248  0.7858  0.0527 -0.1464
  170SOPE   C2619192   0.639   4.832   7.206 -0.0138 -0.4782  0.9146
  170SOPE   H6R19193   0.542   4.875   7.238 -0.1714 -1.1129  1.3081
  170SOPE   H6S19194   0.614   4.763   7.123  0.7232 -0.2940  0.5277
  170SOPE   C2719195   0.702   4.754   7.325  0.2475  0.1751  0.0761
  170SOPE   H7R19196   0.782   4.693   7.278 -1.1467 -0.8216 -1.0418
  170SOPE   H7S19197   0.742   4.824   7.402 -0.7515  2.1237 -1.1071
  170SOPE   C2819198   0.603   4.655   7.388  0.2707 -0.0050 -0.1298
  170SOPE   H8R19199   0.537   4.618   7.307  0.9896 -1.3267 -0.1481
  170SOPE   H8S19200   0.667   4.570   7.418  2.1882  1.1096 -0.8123
  170SOPE   C2919201   0.526   4.720   7.504 -0.4579  0.3346 -0.5718
  170SOPE   H9119202   0.570   4.807   7.556 -0.0580 -0.5976  0.6988
  170SOPE  C21019203   0.404   4.675   7.556  0.4140  0.5112 -0.6060
  170SOPE  H10119204   0.350   4.741   7.626 -0.8418  0.5469 -1.5638
  170SOPE  C21119205   0.321   4.561   7.511 -0.4422  0.2470  0.3542
  170SOPE  H11R19206   0.377   4.476   7.465 -3.2327 -1.6075  0.1300
  170SOPE  H11S19207   0.258   4.594   7.425 -1.0086 -1.7640 -0.0557
  170SOPE  C21219208   0.231   4.494   7.620 -0.0764 -0.1714  0.6224
  170SOPE  H12R19209   0.185   4.576   7.680  2.0618 -0.0796  2.2858
  170SOPE  H12S19210   0.301   4.434   7.682 -0.2363  0.1198  1.0934
  170SOPE  C21319211   0.108   4.410   7.569 -0.4685 -0.4117 -0.3433
  170SOPE  H13R19212   0.138   4.358   7.476 -1.0904  0.6100 -1.1359
  170SOPE  H13S19213   0.032   4.479   7.527  1.3410  1.2468 -1.0000
  170SOPE  C21419214   0.058   4.322   7.677  0.1000 -0.0994  0.3321
  170SOPE  H14R19215  -0.037   4.276   7.642  0.8034 -1.5593  0.2669
  170SOPE  H14S19216   0.013   4.382   7.758  0.5772  0.3203  0.2945
  170SOPE  C21519217   0.161   4.212   7.724  0.8678  0.2249 -0.1240
  170SOPE  H15R19218   0.249   4.262   7.770  1.0059  1.3160 -1.5260
  170SOPE  H15S19219   0.194   4.158   7.633 -2.5308  0.5809 -1.7078
  170SOPE  C21619220   0.090   4.122   7.837 -0.0080  0.7552 -0.4066
  170SOPE  H16R19221  -0.006   4.095   7.788  0.3985  0.9449 -1.3184
  170SOPE  H16S19222   0.057   4.188   7.920 -1.5231 -1.0721  0.5253
  170SOPE  C21719223   0.176   4.008   7.890  1.0464  0.1134 -1.1831
  170SOPE  H17R19224   0.269   4.048   7.937  0.6715  0.7438 -0.9672
  170SOPE  H17S19225   0.215   3.962   7.797  1.8413  2.8642 -2.3089
  170SOPE  C21819226   0.111   3.903   7.978  0.1501  0.0598 -0.2989
  170SOPE  H18R19227   0.013   3.875   7.935 -0.8591  0.8030  1.4392
  170SOPE  H18S19228   0.102   3.935   8.084  0.4876  0.9312 -0.5160
  170SOPE  H18T19229   0.177   3.814   7.988 -1.2134 -0.8758  0.6189
  170SOPE   C3319230   0.320   5.079   6.962 -0.2090 -0.4229 -0.3038
  170SOPE   H3X19231   0.333   5.169   7.026  1.0902 -0.9302  0.1624
  170SOPE   H3Y19232   0.414   5.047   6.913 -0.7030 -0.6351 -1.1441
  170SOPE   C3419233   0.266   4.975   7.058  0.2706  0.3404 -0.1979
  170SOPE   H4X19234   0.171   5.020   7.094 -0.0226 -1.2874  1.2441
  170SOPE   H4Y19235   0.337   4.969   7.143  0.5638  0.7784 -0.4084
  170SOPE   C3519236   0.237   4.837   7.001 -0.4799  0.2870 -0.3249
  170SOPE   H5X19237   0.329   4.780   6.977  0.1775  0.6953  1.1019
  170SOPE   H5Y19238   0.177   4.840   6.908 -0.3832 -2.6187 -0.5551
  170SOPE   C3619239   0.159   4.762   7.098  0.5690  0.3357  0.6000
  170SOPE   H6X19240   0.086   4.835   7.139  0.9252 -1.2820  4.4661
  170SOPE   H6Y19241   0.230   4.732   7.178 -0.5661 -0.1530  1.4414
  170SOPE   C3719242   0.088   4.635   7.054  0.3862 -1.3514  0.1602
  170SOPE   H7X19243   0.167   4.570   7.009  1.3954  1.4293 -2.3995
  170SOPE   H7Y19244   0.013   4.667   6.979  0.6482 -0.3047  0.3295
  170SOPE   C3819245   0.020   4.559   7.167  0.5505  0.2817 -0.1889
  170SOPE   H8X19246  -0.053   4.625   7.218  0.0630 -0.0598 -0.4403
  170SOPE   H8Y19247   0.093   4.540   7.249  0.4590  0.3978 -0.0814
  170SOPE   C3919248  -0.047   4.419   7.126 -0.5822  0.2145  0.0202
  170SOPE   H9X19249   0.038   4.352   7.105 -1.2851  0.1253 -2.8839
  170SOPE   H9Y19250  -0.093   4.429   7.026  2.2625 -0.9748 -1.5193
  170SOPE  C31019251  -0.135   4.375   7.235 -0.3203 -0.8091 -0.1456
  170SOPE  H10X19252  -0.239   4.402   7.210 -0.3036  0.7581  1.2823
  170SOPE  H10Y19253  -0.121   4.441   7.323 -2.0810  0.5455 -0.8291
  170SOPE  C31119254  -0.121   4.226   7.269  0.2442 -0.0008 -0.6598
  170SOPE  H11X19255  -0.026   4.189   7.313 -0.2089 -2.6311 -1.7289
  170SOPE  H11Y19256  -0.124   4.167   7.175  0.1704  2.7144 -2.4835
  170SOPE  C31219257  -0.242   4.174   7.350 -0.0013  0.1572  0.0963
  170SOPE  H12X19258  -0.332   4.167   7.285  0.6226 -2.6900 -0.6306
  170SOPE  H12Y19259  -0.253   4.255   7.425  2.2041  0.7583 -0.1421
  170SOPE  C31319260  -0.204   4.038   7.413  0.7182 -0.2706  0.0112
  170SOPE  H13X19261  -0.142   3.975   7.346  0.4767 -0.0257 -0.4494
  170SOPE  H13Y19262  -0.299   3.982   7.428  1.4670 -1.2699  1.2440
  170SOPE  C31419263  -0.137   4.035   7.552 -0.0919 -0.0042 -0.0693
  170SOPE  H14X19264  -0.198   4.094   7.625 -2.0623 -0.3577 -1.3422
  170SOPE  H14Y19265  -0.042   4.091   7.538 -0.7032  1.1021  0.0491
  170SOPE  C31519266  -0.088   3.892   7.604  0.5998  0.0732  0.0091
  170SOPE  H15X19267   0.008   3.917   7.654  0.4593  1.0065 -0.1590
  170SOPE  H15Y19268  -0.057   3.836   7.514 -1.6486 -0.6729 -0.3746
  170SOPE  C31619269  -0.179   3.825   7.707  0.0717 -0.0655  0.2310
  170SOPE  H16X19270  -0.217   3.899   7.781 -3.7848 -1.4136 -0.1869
  170SOPE  H16Y19271  -0.120   3.749   7.763 -1.4277 -0.2693  1.6141
  170SOPE  C31719272  -0.299   3.766   7.642  0.3904  0.3314 -0.6562
  170SOPE  H17X19273  -0.261   3.699   7.562 -0.4337  0.4413 -1.1612
  170SOPE  H17Y19274  -0.351   3.858   7.608 -3.2332 -1.1539  0.3596
  170SOPE  C31819275  -0.379   3.684   7.741 -0.3523  0.2221  0.1826
  170SOPE  H18X19276  -0.320   3.602   7.786 -0.9557  0.5644  1.6722
  170SOPE  H18Y19277  -0.469   3.640   7.693 -0.3834  0.5831 -0.0892
  170SOPE  H18Z19278  -0.416   3.755   7.818 -1.7082 -1.2001  0.9155
  171SOPE     N19279   0.590   1.453   6.198 -0.2535  0.3190 -0.6882
  171SOPE   HN119280   0.605   1.366   6.143  0.0332  1.1447 -1.9629
  171SOPE   HN219281   0.489   1.446   6.222 -0.2943  0.1029 -0.9270
  171SOPE   HN319282   0.613   1.542   6.150 -0.1415  1.2212  0.9514
  171SOPE   C1219283   0.676   1.428   6.314  0.4356 -0.4047 -0.5447
  171SOPE  H12A19284   0.672   1.520   6.376 -2.9261  0.0657 -1.2484
  171SOPE  H12B19285   0.778   1.424   6.269  0.2927  1.5565 -1.1375
  171SOPE   C1119286   0.636   1.311   6.408 -0.8473  0.1666  0.0627
  171SOPE  H11A19287   0.537   1.334   6.452 -1.5355 -1.0665 -0.7821
  171SOPE  H11B19288   0.714   1.318   6.487 -0.3503  0.1065 -0.4225
  171SOPE     P19289   0.768   1.087   6.343 -0.2080 -0.4965 -0.0087
  171SOPE   O1319290   0.884   1.134   6.263  0.2378  0.5172  0.3857
  171SOPE   O1419291   0.721   0.955   6.307 -0.9446  0.9146 -0.0441
  171SOPE   O1219292   0.647   1.184   6.336  0.2243 -0.6255  0.0319
  171SOPE   O1119293   0.811   1.098   6.498 -0.1051 -0.9003 -0.1857
  171SOPE    C119294   0.811   0.989   6.587 -0.1904 -0.3049 -0.6906
  171SOPE    HA19295   0.861   1.018   6.682  0.6646 -1.5050 -0.7549
  171SOPE    HB19296   0.865   0.901   6.547  0.8306  0.2864 -0.6575
  171SOPE    C219297   0.670   0.958   6.632 -0.6969 -0.0282 -0.8840
  171SOPE    HS19298   0.611   0.925   6.544 -0.6115  0.3552 -1.0859
  171SOPE   O2119299   0.624   1.073   6.703  1.2232 -0.3553 -0.2963
  171SOPE   C2119300   0.500   1.117   6.674 -0.0560  0.7597 -0.2569
  171SOPE   O2219301   0.425   1.062   6.595 -0.2660  0.0816  0.0214
  171SOPE   C2219302   0.467   1.238   6.761 -0.2161 -0.4588 -0.6382
  171SOPE   H2R19303   0.413   1.312   6.698 -0.0095 -1.2557 -1.7835
  171SOPE   H2S19304   0.566   1.275   6.797  0.2921 -0.7060 -1.7450
  171SOPE    C319305   0.670   0.848   6.739  0.2775  0.7437  0.0783
  171SOPE    HX19306   0.678   0.757   6.676 -1.7573  1.0859 -0.7497
  171SOPE    HY19307   0.568   0.827   6.777 -0.6243  0.6410 -2.2227
  171SOPE   O3119308   0.759   0.852   6.854  0.8657 -0.7629  0.3655
  171SOPE   C3119309   0.833   0.748   6.875 -0.9156  0.6189 -0.6167
  171SOPE   O3219310   0.839   0.641   6.810 -0.0766 -0.6146 -0.7712
  171SOPE   C3219311   0.919   0.773   7.000 -0.6592  0.3727 -0.3482
  171SOPE   H2X19312   0.883   0.868   7.045 -1.9364 -1.2805  2.3766
  171SOPE   H2Y19313   1.023   0.778   6.961  0.5352 -1.1078  2.3532
  171SOPE   C2319314   0.383   1.213   6.888 -0.0410  0.4905 -0.1687
  171SOPE   H3R19315   0.288   1.167   6.855 -0.4607  1.6889 -0.6724
  171SOPE   H3S19316   0.365   1.309   6.941  1.0710  0.8443 -0.3929
  171SOPE   C2419317   0.454   1.115   6.988 -0.5068  0.1619 -0.1598
  171SOPE   H4R19318   0.455   1.012   6.946 -0.2149  0.2504 -0.3736
  171SOPE   H4S19319   0.558   1.145   7.011  0.3849 -1.4291 -1.8077
  171SOPE   C2519320   0.400   1.096   7.130  0.0591 -0.2054  0.4250
  171SOPE   H5R19321   0.450   1.172   7.193 -0.3180  0.1852  0.2575
  171SOPE   H5S19322   0.290   1.112   7.137  0.0996 -0.5244  2.4996
  171SOPE   C2619323   0.436   0.959   7.191 -0.1671  0.8567 -0.0727
  171SOPE   H6R19324   0.348   0.913   7.240 -0.5865  1.4291 -0.2682
  171SOPE   H6S19325   0.491   0.894   7.119  3.8288  2.7465  0.9385
  171SOPE   C2719326   0.540   0.973   7.307 -0.2701 -0.1958 -0.0561
  171SOPE   H7R19327   0.628   1.025   7.263  0.0083 -1.2037 -0.7151
  171SOPE   H7S19328   0.487   1.017   7.395 -2.6333 -1.3910 -0.7851
  171SOPE   C2819329   0.599   0.840   7.357 -0.2840  0.9370 -0.1679
  171SOPE   H8R19330   0.649   0.802   7.265 -0.6402 -0.8593  0.3462
  171SOPE   H8S19331   0.688   0.847   7.422 -0.3048  1.2889 -0.1711
  171SOPE   C2919332   0.504   0.747   7.422  0.2131  0.1288  0.7646
  171SOPE   H9119333   0.451   0.681   7.352 -0.2071 -2.1240  3.0231
  171SOPE  C21019334   0.462   0.740   7.548  0.0781  0.1672  0.0800
  171SOPE  H10119335   0.387   0.663   7.574  1.3895 -1.4164 -0.6481
  171SOPE  C21119336   0.500   0.815   7.673 -0.3645 -0.7363 -0.2865
  171SOPE  H11R19337   0.405   0.856   7.713 -0.3898 -0.3951 -0.6828
  171SOPE  H11S19338   0.571   0.899   7.662 -1.3231  0.2177  0.5856
  171SOPE  C21219339   0.570   0.723   7.774 -0.4438 -0.3411  1.1141
  171SOPE  H12R19340   0.666   0.690   7.730  0.0789  0.4020  1.6886
  171SOPE  H12S19341   0.505   0.637   7.800 -0.2608 -0.8362  0.0189
  171SOPE  C21319342   0.607   0.801   7.893 -0.0182 -0.6080  0.0782
  171SOPE  H13R19343   0.514   0.839   7.941 -0.7809 -0.1559 -1.6803
  171SOPE  H13S19344   0.662   0.893   7.864  1.1615 -0.4326  2.6290
  171SOPE  C21419345   0.701   0.725   7.990 -0.9567 -0.0063  0.3362
  171SOPE  H14R19346   0.799   0.722   7.938 -0.8518 -1.2196  0.5910
  171SOPE  H14S19347   0.658   0.625   7.969 -0.3267 -0.1256 -0.4278
  171SOPE  C21519348   0.685   0.752   8.138 -0.2547  1.2641  0.6046
  171SOPE  H15R19349   0.575   0.748   8.152 -0.2276 -0.6478  0.4357
  171SOPE  H15S19350   0.714   0.854   8.173  0.5996  0.6401  1.7825
  171SOPE  C21619351   0.757   0.652   8.220 -0.2077  0.1968 -0.0372
  171SOPE  H16R19352   0.867   0.656   8.203 -0.3756  1.7171 -1.0164
  171SOPE  H16S19353   0.714   0.557   8.183 -1.1363  1.2099 -1.7472
  171SOPE  C21719354   0.721   0.672   8.367  0.0412 -0.2984  0.1392
  171SOPE  H17R19355   0.612   0.664   8.388 -0.4244  3.8458  0.0692
  171SOPE  H17S19356   0.746   0.773   8.407  0.5933 -0.1238 -0.6109
  171SOPE  C21819357   0.786   0.562   8.454 -0.3802 -0.3130  0.0258
  171SOPE  H18R19358   0.769   0.590   8.560 -2.1581 -1.2292  0.0248
  171SOPE  H18S19359   0.894   0.545   8.436 -0.0971  0.6521  0.7242
  171SOPE  H18T19360   0.731   0.468   8.429 -3.4050  1.3155 -0.0256
  171SOPE   C3319361   0.901   0.665   7.107  0.2958  0.4867  0.0568
  171SOPE   H3X19362   0.949   0.574   7.067 -2.1930 -0.4683 -0.9612
  171SOPE   H3Y19363   0.793   0.660   7.132  0.3795  0.9377  0.5384
  171SOPE   C3419364   0.974   0.693   7.243  0.2374 -0.2860  0.6295
  171SOPE   H4X19365   0.942   0.797   7.266 -2.8988 -1.6877  3.4158
  171SOPE   H4Y19366   1.084   0.696   7.228  0.0400 -0.7937 -1.1063
  171SOPE   C3519367   0.930   0.593   7.347  0.4284 -0.2048  0.8951
  171SOPE   H5X19368   0.976   0.494   7.328  0.4737  0.0007 -0.1208
  171SOPE   H5Y19369   0.820   0.589   7.360  0.0768  0.1294 -1.5446
  171SOPE   C3619370   0.996   0.628   7.484 -0.1639  0.1027  0.2541
  171SOPE   H6X19371   0.949   0.719   7.526 -0.6852 -0.9960  2.1516
  171SOPE   H6Y19372   1.104   0.635   7.460 -0.6196 -1.1967 -2.6395
  171SOPE   C3719373   0.972   0.519   7.589  0.0939  0.3983  0.1094
  171SOPE   H7X19374   0.987   0.413   7.558 -2.1409 -0.2184  0.9005
  171SOPE   H7Y19375   0.866   0.516   7.621 -0.0052 -1.8557 -0.2752
  171SOPE   C3819376   1.047   0.552   7.714 -0.4664 -0.2396 -0.3000
  171SOPE   H8X19377   1.041   0.655   7.753 -2.8512 -0.0463 -1.0379
  171SOPE   H8Y19378   1.157   0.542   7.700 -0.2792  1.7934 -0.4502
  171SOPE   C3919379   1.001   0.465   7.832 -0.5597 -0.4254 -0.0908
  171SOPE   H9X19380   1.034   0.362   7.807  1.9909  0.5557 -1.0723
  171SOPE   H9Y19381   0.890   0.462   7.828 -0.5754  1.0234 -1.7459
  171SOPE  C31019382   1.043   0.514   7.967  0.7971 -0.1580  0.4803
  171SOPE  H10X19383   1.006   0.444   8.046 -0.1069 -0.1089  0.1155
  171SOPE  H10Y19384   0.994   0.612   7.981  0.6764 -0.4246  2.0976
  171SOPE  C31119385   1.186   0.543   7.980 -0.1285  1.1438 -0.2508
  171SOPE  H11X19386   1.203   0.636   7.922  1.4832 -0.0573 -1.7859
  171SOPE  H11Y19387   1.249   0.463   7.937 -0.8448  1.4954 -2.0170
  171SOPE  C31219388   1.212   0.580   8.127 -0.1590  0.8942 -0.1486
  171SOPE  H12X19389   1.129   0.618   8.190 -0.1172 -3.0242  2.6440
  171SOPE  H12Y19390   1.289   0.660   8.139  0.3443  0.5770 -1.1671
  171SOPE  C31319391   1.268   0.463   8.205 -0.2526 -0.6144  0.1262
  171SOPE  H13X19392   1.365   0.443   8.155 -0.6462 -0.9091 -0.5381
  171SOPE  H13Y19393   1.211   0.368   8.202 -0.3661 -0.5348 -0.5618
  171SOPE  C31419394   1.288   0.496   8.356 -0.5551 -0.5931  0.4839
  171SOPE  H14X19395   1.282   0.404   8.418 -0.4922 -0.3655  0.8266
  171SOPE  H14Y19396   1.203   0.550   8.404  0.3661  0.4377  0.9939
  171SOPE  C31519397   1.415   0.577   8.371 -0.0309  0.5209  0.3857
  171SOPE  H15X19398   1.486   0.536   8.296  0.4918  0.8033  0.7177
  171SOPE  H15Y19399   1.459   0.556   8.471  3.2719  0.2490 -0.9810
  171SOPE  C31619400   1.414   0.728   8.378 -0.3508  0.7504 -0.4420
  171SOPE  H16X19401   1.341   0.757   8.456 -0.0691  1.5965 -0.4713
  171SOPE  H16Y19402   1.379   0.766   8.280 -4.7414  1.3004  1.1301
  171SOPE  C31719403   1.553   0.784   8.411 -0.3848  0.6828  0.4814
  171SOPE  H17X19404   1.552   0.889   8.374 -1.0503  0.2017 -0.9167
  171SOPE  H17Y19405   1.630   0.727   8.355  0.0755  0.5843  1.1957
  171SOPE  C31819406   1.580   0.798   8.560  0.0537  0.5150  0.1810
  171SOPE  H18X19407   1.499   0.846   8.618  1.8064  2.3711  1.1927
  171SOPE  H18Y19408   1.677   0.848   8.582  0.9880 -0.3964 -1.5565
  171SOPE  H18Z19409   1.600   0.692   8.588 -0.6433  0.1930 -0.5078
  172SOPE     N19410   0.964   4.361   6.321 -0.2959  0.0827  0.1867
  172SOPE   HN119411   1.042   4.418   6.285 -1.5766  2.2480  0.6902
  172SOPE   HN219412   0.927   4.303   6.243 -0.6439  2.0019 -1.1212
  172SOPE   HN319413   0.886   4.426   6.342 -1.0016 -0.6089 -0.2326
  172SOPE   C1219414   1.003   4.271   6.438  0.1554 -0.0992 -0.5530
  172SOPE  H12A19415   1.053   4.181   6.395  1.6885  0.7373 -0.6195
  172SOPE  H12B19416   0.908   4.238   6.484 -0.3182  1.7288 -0.1453
  172SOPE   C1119417   1.102   4.350   6.524  0.0792 -0.4542 -1.5352
  172SOPE  H11A19418   1.132   4.278   6.604  0.0703  1.6452  0.4388
  172SOPE  H11B19419   1.057   4.443   6.563  3.3570  0.2990  0.8497
  172SOPE     P19420   1.307   4.496   6.498  0.3859  0.3276  0.1518
  172SOPE   O1319421   1.253   4.620   6.444 -1.0892  0.2898 -0.1577
  172SOPE   O1419422   1.451   4.471   6.468  0.0696  0.2438  0.2034
  172SOPE   O1219423   1.212   4.380   6.450 -0.4906 -0.3046 -0.1020
  172SOPE   O1119424   1.288   4.486   6.653 -0.4113  0.5178  0.3180
  172SOPE    C119425   1.399   4.453   6.744 -0.5404  0.0665 -0.0880
  172SOPE    HA19426   1.476   4.388   6.698  0.0511  1.1791 -0.7085
  172SOPE    HB19427   1.364   4.400   6.836 -0.5041  0.9627  0.4560
  172SOPE    C219428   1.471   4.584   6.787  0.0154 -0.1308  0.2233
  172SOPE    HS19429   1.510   4.626   6.692 -0.9719  0.9557  0.2684
  172SOPE   O2119430   1.578   4.545   6.878  0.8371  0.2436 -0.1678
  172SOPE   C2119431   1.639   4.642   6.934  0.2810 -0.4083 -0.1419
  172SOPE   O2219432   1.618   4.765   6.914 -0.1226  0.9199  0.3789
  172SOPE   C2219433   1.746   4.586   7.023 -0.5328 -0.0107  0.8847
  172SOPE   H2R19434   1.819   4.556   6.945 -1.9579  0.8323 -0.8294
  172SOPE   H2S19435   1.716   4.493   7.077  2.8713 -1.3404  0.7505
  172SOPE    C319436   1.358   4.687   6.853 -0.5944 -0.0945 -0.3921
  172SOPE    HX19437   1.261   4.666   6.802 -0.0846 -0.6264 -1.1730
  172SOPE    HY19438   1.407   4.785   6.835  1.2211 -1.0112 -0.6526
  172SOPE   O3119439   1.333   4.659   6.996  0.0501  0.0274  0.7663
  172SOPE   C3119440   1.277   4.765   7.061 -0.5753  0.1951 -0.1769
  172SOPE   O3219441   1.251   4.870   7.003  0.0144 -0.1356 -0.2803
  172SOPE   C3219442   1.253   4.727   7.209 -0.2224  0.3041 -0.0332
  172SOPE   H2X19443   1.336   4.769   7.268  1.8366 -0.6938 -2.0716
  172SOPE   H2Y19444   1.265   4.617   7.218 -0.5452  0.2468 -0.2643
  172SOPE   C2319445   1.795   4.696   7.129  0.2657  0.7320 -0.1856
  172SOPE   H3R19446   1.809   4.795   7.081  0.1697  1.4279  1.1867
  172SOPE   H3S19447   1.890   4.662   7.175  0.8311  1.1787 -0.9918
  172SOPE   C2419448   1.682   4.697   7.242  0.3354  0.1483  0.1690
  172SOPE   H4R19449   1.588   4.730   7.192  0.5108 -1.5826 -1.3658
  172SOPE   H4S19450   1.669   4.592   7.275 -0.5216  0.3510  0.5081
  172SOPE   C2519451   1.715   4.768   7.368  0.1107  0.1307 -0.5961
  172SOPE   H5R19452   1.799   4.716   7.420 -0.9631 -1.9434 -0.8213
  172SOPE   H5S19453   1.734   4.877   7.357 -1.7380  0.4876 -0.6381
  172SOPE   C2619454   1.604   4.772   7.476  0.0490  0.1232  0.0602
  172SOPE   H6R19455   1.517   4.823   7.430 -1.3336 -1.2034  1.0911
  172SOPE   H6S19456   1.577   4.664   7.483 -0.9689  0.3538 -0.1792
  172SOPE   C2719457   1.649   4.839   7.607 -0.6302  0.0356  0.3224
  172SOPE   H7R19458   1.708   4.929   7.579  1.2720 -1.0590  0.6558
  172SOPE   H7S19459   1.565   4.876   7.671  0.4244  0.0101  1.7775
  172SOPE   C2819460   1.735   4.749   7.695 -0.0951 -0.9808 -0.4127
  172SOPE   H8R19461   1.817   4.703   7.636  0.1904 -1.1904  0.1455
  172SOPE   H8S19462   1.792   4.819   7.759  1.0675 -1.6520 -0.6755
  172SOPE   C2919463   1.658   4.636   7.763  0.3846  0.3793 -0.5344
  172SOPE   H9119464   1.651   4.546   7.699 -0.8472  1.0042 -1.3203
  172SOPE  C21019465   1.631   4.627   7.897 -0.6459  0.0086  0.0183
  172SOPE  H10119466   1.579   4.541   7.942  1.9977 -1.1350  1.0901
  172SOPE  C21119467   1.658   4.733   8.001  0.2498 -0.6806 -0.2407
  172SOPE  H11R19468   1.570   4.741   8.068 -1.2945 -0.7247 -2.1644
  172SOPE  H11S19469   1.672   4.833   7.955 -2.5157 -0.5482 -0.9698
  172SOPE  C21219470   1.766   4.695   8.106 -0.1914  0.1560  0.7783
  172SOPE  H12R19471   1.863   4.725   8.060 -0.8825 -0.4663 -1.1733
  172SOPE  H12S19472   1.773   4.588   8.137 -0.4097  0.2774  1.2430
  172SOPE  C21319473   1.745   4.782   8.220  0.6440 -0.1234 -0.9479
  172SOPE  H13R19474   1.646   4.748   8.255  0.6012  1.3092  0.4886
  172SOPE  H13S19475   1.735   4.888   8.188  0.2068 -0.1229 -0.8054
  172SOPE  C21419476   1.839   4.765   8.339 -0.4046 -0.0838  0.0993
  172SOPE  H14R19477   1.937   4.817   8.328  0.1509 -1.2506 -0.7560
  172SOPE  H14S19478   1.861   4.661   8.372  0.0273  0.0978  0.3912
  172SOPE  C21519479   1.781   4.824   8.468  0.3065 -0.1984 -0.7146
  172SOPE  H15R19480   1.689   4.769   8.497 -0.1323  1.1226  0.5212
  172SOPE  H15S19481   1.755   4.931   8.456 -1.3245 -0.6991 -2.0083
  172SOPE  C21619482   1.872   4.817   8.593 -0.0803  0.5097  1.1345
  172SOPE  H16R19483   1.974   4.858   8.574  0.4993 -1.2413  0.3123
  172SOPE  H16S19484   1.885   4.709   8.615 -0.2901  0.4013  0.7248
  172SOPE  C21719485   1.800   4.873   8.719  0.0738 -0.5896  0.1720
  172SOPE  H17R19486   1.706   4.817   8.734 -1.3683  1.4272 -0.8345
  172SOPE  H17S19487   1.759   4.973   8.692  1.1240 -0.3639 -0.6808
  172SOPE  C21819488   1.891   4.873   8.836  0.3080  0.7475  0.2655
  172SOPE  H18R19489   1.950   4.779   8.840  0.2361  0.7194  0.6692
  172SOPE  H18S19490   1.824   4.892   8.922 -0.3466 -1.9165  0.4275
  172SOPE  H18T19491   1.966   4.954   8.821  0.6059  0.5424  0.6352
  172SOPE   C3319492   1.109   4.766   7.265 -0.4473 -0.2965  0.2527
  172SOPE   H3X19493   1.075   4.685   7.333  2.1166 -1.0817  0.7200
  172SOPE   H3Y19494   1.046   4.768   7.173 -0.1325 -1.8988 -0.0369
  172SOPE   C3419495   1.107   4.898   7.347  0.7799 -0.5501 -0.3328
  172SOPE   H4X19496   1.030   4.962   7.299  2.8299  2.8722  0.6547
  172SOPE   H4Y19497   1.202   4.955   7.339  0.1387  0.3973 -1.5808
  172SOPE   C3519498   1.065   4.876   7.493 -0.3218  0.0209 -0.2542
  172SOPE   H5X19499   0.961   4.847   7.520 -0.7444  1.7428  0.0612
  172SOPE   H5Y19500   1.067   4.972   7.548 -1.8875 -1.0416  1.7949
  172SOPE   C3619501   1.169   4.785   7.559 -0.1669 -0.1841 -0.4357
  172SOPE   H6X19502   1.273   4.802   7.525 -0.9544  2.1490 -1.9070
  172SOPE   H6Y19503   1.147   4.678   7.537  1.6364 -0.3269 -1.7042
  172SOPE   C3719504   1.151   4.799   7.712  0.6610  0.0513 -0.4522
  172SOPE   H7X19505   1.046   4.771   7.731  0.7678 -0.6784 -0.8702
  172SOPE   H7Y19506   1.167   4.904   7.744  1.5754 -0.0979 -0.3811
  172SOPE   C3819507   1.241   4.703   7.803  0.3957  0.0078 -0.4145
  172SOPE   H8X19508   1.349   4.719   7.783  0.8561 -1.7590  0.4806
  172SOPE   H8Y19509   1.220   4.597   7.778 -0.2718 -0.1572  0.7634
  172SOPE   C3919510   1.194   4.726   7.951  0.5695 -0.1727 -0.5195
  172SOPE   H9X19511   1.083   4.726   7.965  0.6036  0.9187 -0.1843
  172SOPE   H9Y19512   1.230   4.823   7.990  0.5444 -1.1009  2.0157
  172SOPE  C31019513   1.246   4.611   8.041 -0.0256  0.1585 -0.5743
  172SOPE  H10X19514   1.356   4.606   8.045 -0.1063 -1.5239  1.3966
  172SOPE  H10Y19515   1.191   4.519   8.013  1.7448 -2.0928  2.7140
  172SOPE  C31119516   1.210   4.631   8.192  0.0086 -0.1558 -0.9961
  172SOPE  H11X19517   1.245   4.536   8.238  3.2050  1.3957  0.0607
  172SOPE  H11Y19518   1.105   4.628   8.226 -0.5449 -0.9455 -2.6398
  172SOPE  C31219519   1.276   4.746   8.270  0.3242 -0.1328 -0.0634
  172SOPE  H12X19520   1.245   4.847   8.235  3.0181  1.0663  0.7138
  172SOPE  H12Y19521   1.385   4.743   8.249  0.6389 -2.8945  1.5030
  172SOPE  C31319522   1.246   4.721   8.417  0.0725 -0.4631 -0.9351
  172SOPE  H13X19523   1.304   4.632   8.449  1.8948  0.6314 -1.0242
  172SOPE  H13Y19524   1.138   4.701   8.427 -0.3851  1.6250 -1.1343
  172SOPE  C31419525   1.284   4.842   8.501  0.0462 -0.4495  0.6611
  172SOPE  H14X19526   1.196   4.909   8.486 -0.1455 -1.0959 -1.4250
  172SOPE  H14Y19527   1.378   4.893   8.472 -0.5428  0.2030 -0.1450
  172SOPE  C31519528   1.306   4.802   8.649 -0.3475 -0.7875 -0.0629
  172SOPE  H15X19529   1.389   4.729   8.639  1.2668  1.0839 -0.8202
  172SOPE  H15Y19530   1.213   4.749   8.680 -0.1110  0.2210  2.6402
  172SOPE  C31619531   1.349   4.901   8.745  0.2242 -0.3496 -0.3113
  172SOPE  H16X19532   1.275   4.983   8.735 -0.9962 -0.8348  3.2898
  172SOPE  H16Y19533   1.452   4.933   8.718 -0.3118  0.2420 -1.7899
  172SOPE  C31719534   1.352   4.839   8.886  0.4297  0.0717  0.1350
  172SOPE  H17X19535   1.395   4.736   8.877 -1.6865 -0.8328 -0.2557
  172SOPE  H17Y19536   1.248   4.839   8.924  0.5535  0.0425  0.4867
  172SOPE  C31819537   1.433   4.925   8.988  0.4356 -0.5852  0.4362
  172SOPE  H18X19538   1.423   4.878   9.088 -0.0231 -0.0564  0.6458
  172SOPE  H18Y19539   1.384   5.023   9.009  0.1792 -0.8521  1.0901
  172SOPE  H18Z19540   1.543   4.932   8.979  0.4903 -2.4047 -0.7225
  173SAPI   C1219541   5.332   1.908  10.826  0.5474 -0.2240 -0.2145
  173SAPI    H219542   5.285   1.854  10.740  1.4649  0.3921 -1.1203
  173SAPI    O219543   5.361   2.041  10.781 -0.3652 -0.2022  0.2407
  173SAPI   HO219544   5.395   2.016  10.695 -0.6460 -0.2793  0.1498
  173SAPI   C1319545   5.236   1.904  10.945  0.6497 -1.2312  0.9631
  173SAPI    H319546   5.222   1.798  10.973  0.9199 -1.6304 -0.3580
  173SAPI    O319547   5.105   1.955  10.910  0.3411  0.0674  0.2106
  173SAPI   HO319548   5.065   1.889  10.852 -0.8782 -0.1461  1.2512
  173SAPI   C1419549   5.292   1.975  11.064  0.0807 -1.0005  0.2706
  173SAPI    H419550   5.319   2.079  11.036 -0.7950 -0.3536  1.6905
  173SAPI    O419551   5.204   1.984  11.174  0.0707  0.1763  0.3357
  173SAPI   HO419552   5.165   2.072  11.176  1.0615  0.6425  0.1042
  173SAPI   C1519553   5.431   1.916  11.104 -0.4630 -0.0062 -0.3934
  173SAPI    H519554   5.414   1.807  11.116 -1.1403 -0.7576 -5.8230
  173SAPI    O519555   5.485   1.974  11.221  0.0497 -0.0051 -0.6176
  173SAPI   HO519556   5.445   2.060  11.232 -0.3325  0.0657 -2.2786
  173SAPI   C1619557   5.521   1.919  10.981  0.3178  0.1227 -0.4187
  173SAPI    H619558   5.540   2.025  10.952  1.7793  0.6750  2.1665
  173SAPI    O619559   5.642   1.865  11.016  0.6511  0.4141  0.3081
  173SAPI   HO619560   5.663   1.793  10.958 -1.0440  1.5623 -1.8832
  173SAPI   C1119561   5.459   1.832  10.869 -0.4594 -0.0624  0.6882
  173SAPI    H119562   5.435   1.733  10.912  1.0495  0.0825  1.9769
  173SAPI     P19563   5.543   1.712  10.645  0.0441 -0.5158 -0.0910
  173SAPI   O1319564   5.507   1.585  10.703  0.0092 -0.6136  0.8565
  173SAPI   O1419565   5.671   1.704  10.575 -0.4380  0.0117 -0.3900
  173SAPI   O1219566   5.548   1.828  10.761 -0.5009  1.0259 -0.1808
  173SAPI   O1119567   5.435   1.771  10.540 -0.3941 -0.9154 -0.1610
  173SAPI    C119568   5.352   1.682  10.470  0.0608 -0.4545 -0.3828
  173SAPI    HA19569   5.404   1.604  10.411 -0.3089  0.2677 -1.7080
  173SAPI    HB19570   5.281   1.642  10.545  0.1118  0.4583  0.1719
  173SAPI    C219571   5.258   1.761  10.372 -0.1020 -0.6364  0.0971
  173SAPI    HS19572   5.220   1.694  10.292  0.9590 -1.4597  0.2599
  173SAPI   O2119573   5.323   1.877  10.326  0.3312 -0.8367  0.2960
  173SAPI   C2119574   5.423   1.844  10.235  0.0122  0.6923  0.2219
  173SAPI   O2219575   5.456   1.731  10.206 -0.2467 -0.4205 -0.1953
  173SAPI   C2219576   5.493   1.979  10.197  0.2743 -0.3802  0.5753
  173SAPI   H2R19577   5.406   2.039  10.163  1.3923  1.1404  0.3275
  173SAPI   H2S19578   5.547   2.024  10.282 -0.5763 -2.3721  2.2529
  173SAPI    C319579   5.135   1.819  10.441  0.3321  0.8732 -0.4169
  173SAPI    HX19580   5.161   1.867  10.538 -1.7030 -0.8790  1.1008
  173SAPI    HY19581   5.071   1.734  10.475 -0.4074  1.7908  0.5347
  173SAPI   O3119582   5.048   1.897  10.360  0.3614  0.3364  0.0505
  173SAPI   C3119583   5.077   2.024  10.341 -0.1070 -0.0323 -0.1022
  173SAPI   O3219584   5.166   2.087  10.393 -0.0314 -0.6529  0.2434
  173SAPI   C3219585   4.960   2.089  10.267  0.0678 -0.1490  0.5326
  173SAPI   H2X19586   4.949   2.184  10.324 -1.8480  0.3376 -0.5788
  173SAPI   H2Y19587   4.868   2.029  10.279  0.2378 -0.4173  0.5140
  173SAPI   C2319588   5.596   1.967  10.077  0.3332  0.4655 -0.0526
  173SAPI   H3R19589   5.537   1.926   9.992  0.1415  0.3142  0.1512
  173SAPI   H3S19590   5.678   1.898  10.104  0.4303  1.4767  2.5108
  173SAPI   C2419591   5.659   2.096  10.029  0.0735  0.3908  0.0690
  173SAPI   H4R19592   5.692   2.075   9.925 -2.6230  1.1103 -1.0288
  173SAPI   H4S19593   5.747   2.114  10.094 -0.6683  0.3852  1.0950
  173SAPI   C2519594   5.561   2.205  10.032  0.1542  0.0469 -0.5491
  173SAPI   H5R19595   5.567   2.264  10.125  1.6281 -1.2293  0.2180
  173SAPI   C2619596   5.469   2.242   9.940  0.2024  0.3458  0.2459
  173SAPI   H6R19597   5.407   2.331   9.958  0.7796  1.1622 -1.5610
  173SAPI   C2719598   5.462   2.185   9.802  0.9086 -0.0754  0.2852
  173SAPI   H7R19599   5.376   2.116   9.794 -0.0026  1.1965 -1.8968
  173SAPI   H7S19600   5.552   2.123   9.781  1.9778  1.9896 -1.7193
  173SAPI   C2819601   5.452   2.288   9.693 -0.0302 -0.1807  0.2967
  173SAPI   H8R19602   5.507   2.379   9.722 -1.8247  1.0268  0.0407
  173SAPI   C2919603   5.382   2.285   9.578  0.2166  0.5317 -0.2539
  173SAPI   H9R19604   5.375   2.374   9.514  0.4715  1.7189  1.3043
  173SAPI  C21019605   5.289   2.171   9.529 -0.2879 -0.3229  0.3573
  173SAPI  H10R19606   5.246   2.207   9.433  1.4637  1.1047  0.0552
  173SAPI  H10S19607   5.201   2.152   9.595 -1.4192  0.7457 -0.7830
  173SAPI  C21119608   5.362   2.043   9.496 -0.1631 -0.2115 -0.5550
  173SAPI  H11R19609   5.435   2.002   9.567 -1.5741 -1.1822  0.3828
  173SAPI  C21219610   5.322   1.961   9.392 -0.5682 -0.0063 -0.3249
  173SAPI  H12R19611   5.377   1.873   9.357  0.1272  0.2855  0.0201
  173SAPI  C21319612   5.206   1.994   9.289  0.0900  0.0574  0.4081
  173SAPI  H13R19613   5.121   2.055   9.327 -1.0336 -1.1056 -0.1607
  173SAPI  H13S19614   5.165   1.895   9.260  1.5791 -0.6077  0.4393
  173SAPI  C21419615   5.273   2.044   9.165  0.1780 -0.4168  0.0282
  173SAPI  H14R19616   5.378   2.073   9.182 -0.1642 -0.1728  1.8844
  173SAPI  C21519617   5.220   2.035   9.039 -0.1633 -0.2890 -0.9700
  173SAPI  H15R19618   5.275   2.080   8.955  0.1146 -0.1828 -0.7329
  173SAPI  C21619619   5.076   1.990   9.015 -0.0266 -0.1932 -0.3083
  173SAPI  H16R19620   4.996   2.054   9.057  0.2717  0.5952 -0.9202
  173SAPI  H16S19621   5.064   1.889   9.060  1.2187 -1.3253 -2.3289
  173SAPI  C21719622   5.054   1.978   8.861 -0.0140  0.4333 -0.9588
  173SAPI  H17R19623   4.967   1.913   8.838  0.4912 -0.3790 -0.5954
  173SAPI  H17S19624   5.141   1.931   8.812 -1.4917 -2.9468 -0.5991
  173SAPI  C21819625   5.035   2.118   8.803 -0.3841  0.4162  0.1967
  173SAPI  H18R19626   5.129   2.172   8.826  1.4407 -1.8563 -1.4050
  173SAPI  H18S19627   4.950   2.163   8.858 -0.7849  0.0122 -0.0821
  173SAPI  C21919628   5.007   2.129   8.651 -0.1204  0.3106  0.3620
  173SAPI  H19R19629   4.963   2.230   8.639  0.4364  0.6456  1.0254
  173SAPI  H19S19630   4.931   2.052   8.626  0.0126  1.1675 -3.2155
  173SAPI  C22019631   5.133   2.113   8.569 -0.4477 -0.2499  1.1028
  173SAPI  H20R19632   5.173   2.010   8.565  0.4079  0.0875  0.6862
  173SAPI  H20S19633   5.212   2.177   8.615 -0.8414 -0.6184  2.3183
  173SAPI  H20T19634   5.127   2.139   8.461 -1.2303 -0.6804  1.0384
  173SAPI   C3319635   4.999   2.131  10.125 -0.3948 -0.3584 -0.0157
  173SAPI   H3X19636   5.107   2.154  10.129 -0.4823 -0.0494  0.8124
  173SAPI   H3Y19637   4.949   2.220  10.082 -0.0956 -0.6664 -1.0317
  173SAPI   C3419638   4.973   2.027  10.020 -0.5420 -0.0671  0.1076
  173SAPI   H4X19639   4.868   1.991  10.025 -0.8504  0.9499  1.4429
  173SAPI   H4Y19640   5.054   1.951  10.035 -0.7472 -0.3568 -0.2376
  173SAPI   C3519641   4.992   2.082   9.878 -0.2669 -0.0781 -0.3033
  173SAPI   H5X19642   5.089   2.133   9.865 -1.0738  0.7935 -4.0621
  173SAPI   H5Y19643   4.918   2.162   9.857 -2.0224 -1.5389 -0.0413
  173SAPI   C3619644   4.984   1.979   9.765 -0.4829  0.0618 -0.1699
  173SAPI   H6X19645   5.047   1.898   9.807  1.0668  0.9671 -0.6691
  173SAPI   H6Y19646   5.036   2.019   9.675  0.8893 -1.5951 -0.1648
  173SAPI   C3719647   4.843   1.931   9.731  0.4049 -0.0168  0.1331
  173SAPI   H7X19648   4.783   2.020   9.700  1.4245  0.2415 -1.2276
  173SAPI   H7Y19649   4.789   1.887   9.817 -0.4029  0.1327 -0.2949
  173SAPI   C3819650   4.826   1.831   9.614  0.3486  0.5156 -0.2912
  173SAPI   H8X19651   4.888   1.742   9.636 -0.4637  0.2338  0.9644
  173SAPI   H8Y19652   4.868   1.888   9.529 -1.1321  0.4866 -1.0719
  173SAPI   C3919653   4.679   1.791   9.600  0.5085  0.0613 -0.2478
  173SAPI   H9X19654   4.621   1.885   9.594 -0.5431 -0.5035  0.7405
  173SAPI   H9Y19655   4.637   1.726   9.679  0.4274 -0.6343 -0.8437
  173SAPI  C31019656   4.644   1.714   9.468  0.0117  0.2168  0.5800
  173SAPI  H10X19657   4.535   1.695   9.468  0.1564 -0.6462  0.7184
  173SAPI  H10Y19658   4.682   1.610   9.467  1.8226  0.8435  0.2359
  173SAPI  C31119659   4.675   1.789   9.334 -0.4672  0.5409  0.1894
  173SAPI  H11X19660   4.785   1.790   9.319 -0.7304 -0.6946 -2.2619
  173SAPI  H11Y19661   4.633   1.891   9.343 -3.4998 -0.7086  1.7034
  173SAPI  C31219662   4.620   1.716   9.209 -0.5792  0.1865 -0.1719
  173SAPI  H12X19663   4.513   1.694   9.228 -0.8173  0.9571 -0.5854
  173SAPI  H12Y19664   4.675   1.619   9.212 -1.0325 -0.0726  2.3702
  173SAPI  C31319665   4.640   1.800   9.084 -0.1941  0.2453 -0.1227
  173SAPI  H13X19666   4.749   1.794   9.059 -0.6075 -2.8401 -1.8356
  173SAPI  H13Y19667   4.613   1.904   9.111 -3.3224 -0.9856  2.0037
  173SAPI  C31419668   4.565   1.761   8.959 -1.1596 -0.8295 -0.5372
  173SAPI  H14X19669   4.458   1.788   8.970 -1.1728 -1.1133  0.0944
  173SAPI  H14Y19670   4.573   1.652   8.935 -0.3640 -0.7284 -0.7699
  173SAPI  C31519671   4.634   1.825   8.832  0.2707 -0.4294 -0.7816
  173SAPI  H15X19672   4.740   1.791   8.833 -0.0769 -1.7727 -2.7647
  173SAPI  H15Y19673   4.635   1.935   8.844 -0.7404 -0.1834 -2.6011
  173SAPI  C31619674   4.563   1.771   8.702  0.0909 -0.5180 -0.4718
  173SAPI  H16X19675   4.555   1.662   8.718  0.4779 -0.1778  2.5887
  173SAPI  H16Y19676   4.625   1.797   8.613 -0.5560  0.2481 -0.7186
  173SAPI  C31719677   4.423   1.826   8.675  0.1635 -0.8302 -0.3672
  173SAPI  H17X19678   4.436   1.934   8.653 -0.6508 -0.5275  0.5671
  173SAPI  H17Y19679   4.352   1.805   8.758 -0.9040  0.7002 -0.8401
  173SAPI  C31819680   4.367   1.756   8.551  0.2114  0.6309  0.1206
  173SAPI  H18X19681   4.313   1.665   8.583  1.0834  0.7381  2.0537
  173SAPI  H18Y19682   4.451   1.719   8.488  1.4321  2.8971  0.3279
  173SAPI  H18Z19683   4.309   1.827   8.488 -0.7834  1.9719  2.4375
  174SAPI   C1219684   0.008   3.872  10.878 -0.3214  0.4627 -0.4946
  174SAPI    H219685   0.002   3.981  10.898  0.7555  0.8595 -2.1469
  174SAPI    O219686   0.035   3.853  10.739  0.0851 -0.0369  0.7329
  174SAPI   HO219687  -0.044   3.887  10.698  0.3145  0.6696  0.8614
  174SAPI   C1319688   0.122   3.812  10.956 -0.1044  0.1578 -0.4413
  174SAPI    H319689   0.104   3.826  11.064 -4.7587 -0.2481 -0.9440
  174SAPI    O319690   0.246   3.884  10.935  0.0314  0.4682  0.0129
  174SAPI   HO319691   0.249   3.946  11.008  1.8133 -0.7833  1.0947
  174SAPI   C1419692   0.130   3.659  10.936 -0.1154  0.0188  0.1120
  174SAPI    H419693   0.156   3.632  10.831  2.2564  0.7176  0.4531
  174SAPI    O419694   0.236   3.598  11.022 -0.2977  0.0893  0.9097
  174SAPI   HO419695   0.308   3.572  10.964 -1.4274  2.5846 -1.8390
  174SAPI   C1519696  -0.003   3.597  10.971  0.1525 -0.4267 -0.2454
  174SAPI    H519697  -0.017   3.631  11.076  0.3663  4.4414 -1.5319
  174SAPI    O519698   0.012   3.459  10.962 -0.1870 -0.3572  0.2862
  174SAPI   HO519699   0.085   3.438  11.021  1.1437 -1.1301 -1.5470
  174SAPI   C1619700  -0.115   3.656  10.880 -0.0617  0.3825  0.1487
  174SAPI    H619701  -0.084   3.639  10.775 -0.6912  0.1182  0.0033
  174SAPI    O619702  -0.240   3.596  10.902  0.5729  0.8083  0.1206
  174SAPI   HO619703  -0.300   3.669  10.886  2.1481  2.2343  0.4310
  174SAPI   C1119704  -0.122   3.804  10.909  0.7038  0.4094 -0.1213
  174SAPI    H119705  -0.166   3.812  11.011 -0.4817 -0.6479 -0.5316
  174SAPI     P19706  -0.290   4.002  10.810  0.0574 -0.2487  0.2532
  174SAPI   O1319707  -0.268   4.082  10.925 -0.2230  0.6521  0.4066
  174SAPI   O1419708  -0.430   3.987  10.764  0.1283  0.1598  0.4590
  174SAPI   O1219709  -0.222   3.856  10.817 -0.2224 -0.5608  0.2675
  174SAPI   O1119710  -0.197   4.063  10.694  0.1334  0.3814 -0.1918
  174SAPI    C119711  -0.188   4.007  10.561  0.1168  0.0864 -0.5483
  174SAPI    HA19712  -0.089   4.030  10.517 -0.0945  1.4078 -0.3661
  174SAPI    HB19713  -0.195   3.896  10.558  1.2243  0.0183 -2.5007
  174SAPI    C219714  -0.303   4.047  10.473  0.1685  0.4013 -0.2556
  174SAPI    HS19715  -0.397   4.026  10.528  0.9839 -0.9580  0.6797
  174SAPI   O2119716  -0.283   3.965  10.349  0.3671 -0.1935  0.6072
  174SAPI   C2119717  -0.388   3.966  10.263 -0.3082  0.1555 -0.5018
  174SAPI   O2219718  -0.496   4.014  10.290 -0.1029  0.7448 -0.4808
  174SAPI   C2219719  -0.356   3.895  10.128 -0.2870 -0.4333  0.2744
  174SAPI   H2R19720  -0.256   3.913  10.083  0.5990 -0.5690  2.1098
  174SAPI   H2S19721  -0.347   3.787  10.152 -1.2999 -0.9667 -1.5100
  174SAPI    C319722  -0.313   4.207  10.454 -0.3982  0.8050 -0.7673
  174SAPI    HX19723  -0.331   4.248  10.556 -1.0503 -1.3148  0.0231
  174SAPI    HY19724  -0.412   4.226  10.407 -1.3705  0.6900  1.1210
  174SAPI   O3119725  -0.194   4.258  10.391  0.6678  0.1623 -0.3275
  174SAPI   C3119726  -0.208   4.271  10.260  0.4213 -0.9377 -0.1413
  174SAPI   O3219727  -0.310   4.252  10.197  0.0548 -0.4160 -0.3983
  174SAPI   C3219728  -0.082   4.333  10.197 -0.5518 -0.0093 -0.4807
  174SAPI   H2X19729   0.003   4.284  10.247 -1.8743 -0.3922  1.5129
  174SAPI   H2Y19730  -0.082   4.444  10.206 -0.4873  0.3441 -3.5489
  174SAPI   C2319731  -0.471   3.923  10.025  0.2955  0.2000 -0.8676
  174SAPI   H3R19732  -0.560   3.971  10.071  1.4693  1.4910  0.1468
  174SAPI   H3S19733  -0.509   3.825   9.990 -1.0160  0.7673 -1.0707
  174SAPI   C2419734  -0.440   4.003   9.899 -0.0513  0.6081 -0.1988
  174SAPI   H4R19735  -0.330   3.993   9.886  0.3145 -0.1887  2.9135
  174SAPI   H4S19736  -0.451   4.110   9.925  2.5762  0.3762  2.3588
  174SAPI   C2519737  -0.518   3.981   9.770 -0.0847 -0.5256 -0.1672
  174SAPI   H5R19738  -0.625   3.971   9.790  0.3262 -0.1849  2.6161
  174SAPI   C2619739  -0.468   3.952   9.652 -0.8008 -0.1518  0.3533
  174SAPI   H6R19740  -0.532   3.937   9.563 -0.3111  0.7487 -0.1713
  174SAPI   C2719741  -0.323   3.942   9.622 -0.4954 -0.2525  0.8201
  174SAPI   H7R19742  -0.312   3.865   9.543 -1.9065 -0.5312  0.8624
  174SAPI   H7S19743  -0.262   3.920   9.712  2.1184 -0.2995 -0.8474
  174SAPI   C2819744  -0.284   4.071   9.556  0.3332  0.1477 -0.5426
  174SAPI   H8R19745  -0.342   4.154   9.598  1.6826  0.2796  1.1857
  174SAPI   C2919746  -0.185   4.088   9.464  0.3800  0.9673  0.4963
  174SAPI   H9R19747  -0.157   4.188   9.427  0.7799  1.7451  2.7318
  174SAPI  C21019748  -0.097   3.975   9.418  0.5205 -0.2951  0.0557
  174SAPI  H10R19749  -0.152   3.899   9.358  0.1436  0.4891 -0.6014
  174SAPI  H10S19750  -0.067   3.913   9.505 -1.0507 -0.5339  0.4658
  174SAPI  C21119751   0.016   4.026   9.330  0.0194  0.2754  0.0406
  174SAPI  H11R19752   0.080   4.101   9.379  0.7408 -1.6436  2.1979
  174SAPI  C21219753   0.044   3.996   9.203 -0.1067  0.3266 -0.4526
  174SAPI  H12R19754   0.144   4.026   9.170  1.3504 -2.6132  0.9551
  174SAPI  C21319755  -0.027   3.894   9.113 -0.3616 -0.1525 -0.0059
  174SAPI  H13R19756  -0.008   3.911   9.005  0.5109 -2.7972 -0.3386
  174SAPI  H13S19757  -0.133   3.923   9.132 -0.6636 -0.9165 -0.4724
  174SAPI  C21419758  -0.001   3.752   9.152  0.2688 -0.2263  0.0609
  174SAPI  H14R19759  -0.075   3.709   9.221  0.3575 -1.3760 -0.5331
  174SAPI  C21519760   0.092   3.667   9.107 -0.7993 -0.1393 -0.2972
  174SAPI  H15R19761   0.094   3.574   9.165 -1.8141 -0.6851 -1.1096
  174SAPI  C21619762   0.202   3.693   9.003 -0.4008  0.2677 -0.5321
  174SAPI  H16R19763   0.299   3.656   9.041 -0.0304  2.1464  0.4336
  174SAPI  H16S19764   0.208   3.802   8.985 -1.2232  0.6114  1.0603
  174SAPI  C21719765   0.167   3.630   8.868  0.4516 -0.4620  0.0162
  174SAPI  H17R19766   0.076   3.684   8.836  0.4495  0.4212  1.4453
  174SAPI  H17S19767   0.141   3.525   8.892 -1.2696 -0.6114 -2.2070
  174SAPI  C21819768   0.266   3.632   8.754  0.1353  0.1555  0.0544
  174SAPI  H18R19769   0.290   3.736   8.722  3.8833 -0.1725  1.3164
  174SAPI  H18S19770   0.222   3.578   8.667  0.2339 -1.0315  0.7245
  174SAPI  C21919771   0.396   3.565   8.775 -0.4038 -0.6298  0.1479
  174SAPI  H19R19772   0.373   3.457   8.794 -1.8214 -0.3514  0.1443
  174SAPI  H19S19773   0.446   3.601   8.867  3.3976  0.5987 -2.1695
  174SAPI  C22019774   0.499   3.586   8.664 -0.8666  0.2258  0.5156
  174SAPI  H20R19775   0.448   3.527   8.585 -1.4442  2.9140 -1.2384
  174SAPI  H20S19776   0.597   3.548   8.700 -0.2879  1.4569  0.2710
  174SAPI  H20T19777   0.517   3.693   8.640  1.2209  0.5992  3.2511
  174SAPI   C3319778  -0.064   4.302  10.046  0.0141  0.1887 -0.1183
  174SAPI   H3X19779  -0.133   4.359   9.980 -0.3348  0.9843  0.8957
  174SAPI   H3Y19780  -0.091   4.194  10.041 -0.1247  0.1864  0.5964
  174SAPI   C3419781   0.083   4.329  10.029  0.6075 -0.5815  0.2965
  174SAPI   H4X19782   0.139   4.279  10.110 -0.6887 -1.0127  0.9472
  174SAPI   H4Y19783   0.090   4.440  10.038  0.5907 -0.3761 -1.7110
  174SAPI   C3519784   0.132   4.280   9.887  0.2667 -0.1482 -0.6584
  174SAPI   H5X19785   0.120   4.170   9.879  2.3574 -0.4378 -0.2069
  174SAPI   H5Y19786   0.239   4.303   9.870 -0.4697  1.3082 -4.4979
  174SAPI   C3619787   0.060   4.344   9.766  0.2666  1.1554 -0.2573
  174SAPI   H6X19788  -0.049   4.329   9.780  0.8055 -0.4116  3.6862
  174SAPI   H6Y19789   0.087   4.290   9.673 -3.5410  0.8343 -1.3599
  174SAPI   C3719790   0.087   4.497   9.748  0.2686 -0.0067  0.0398
  174SAPI   H7X19791   0.197   4.510   9.738  0.4765 -0.0401  1.9686
  174SAPI   H7Y19792   0.045   4.550   9.836  0.9061 -1.0958  1.0487
  174SAPI   C3819793   0.026   4.549   9.615  0.0792 -0.5532 -0.8539
  174SAPI   H8X19794   0.021   4.660   9.616  0.3149 -0.3935 -4.4591
  174SAPI   H8Y19795  -0.082   4.523   9.604 -0.1817  0.3047 -0.4164
  174SAPI   C3919796   0.096   4.507   9.481  0.2859  0.0387 -0.4965
  174SAPI   H9X19797   0.095   4.398   9.459  0.2746 -0.2991  1.0339
  174SAPI   H9Y19798   0.205   4.531   9.486  0.6756 -1.7206  0.1667
  174SAPI  C31019799   0.040   4.596   9.367  0.5384 -0.1291 -0.1541
  174SAPI  H10X19800   0.054   4.702   9.400 -0.3190 -0.1736  0.3760
  174SAPI  H10Y19801  -0.070   4.580   9.364  0.7045 -1.5546  0.6657
  174SAPI  C31119802   0.114   4.574   9.230  0.0991  0.4023 -0.4304
  174SAPI  H11X19803   0.087   4.475   9.186 -0.6076  0.7838 -0.8707
  174SAPI  H11Y19804   0.223   4.578   9.251  0.2295  2.0460 -1.2346
  174SAPI  C31219805   0.088   4.689   9.134  0.3192 -0.2535  0.6271
  174SAPI  H12X19806   0.124   4.784   9.178  1.3597 -1.1413  1.7537
  174SAPI  H12Y19807  -0.020   4.697   9.108  0.3549 -2.4496 -0.4163
  174SAPI  C31319808   0.175   4.665   9.011  0.0077 -0.6111  0.8254
  174SAPI  H13X19809   0.120   4.604   8.936 -2.4970  1.7663  0.5600
  174SAPI  H13Y19810   0.268   4.611   9.036  0.8540 -0.8667 -2.3858
  174SAPI  C31419811   0.215   4.797   8.938  0.1777  0.7634  0.0815
  174SAPI  H14X19812   0.286   4.850   9.004  0.4596 -0.3510  0.7050
  174SAPI  H14Y19813   0.126   4.862   8.925 -0.4818  0.0753  0.9845
  174SAPI  C31519814   0.281   4.763   8.802 -0.8972 -0.1674  0.1342
  174SAPI  H15X19815   0.208   4.700   8.747  1.5223 -2.6916 -0.4630
  174SAPI  H15Y19816   0.373   4.703   8.819  1.1471  2.8216  0.3178
  174SAPI  C31619817   0.327   4.895   8.724  0.1949  0.0420 -0.0994
  174SAPI  H16X19818   0.389   4.957   8.793 -1.0032 -0.3526  1.3973
  174SAPI  H16Y19819   0.236   4.956   8.707 -0.9052 -1.7771 -1.1004
  174SAPI  C31719820   0.401   4.864   8.588  0.0408  0.0580 -0.3111
  174SAPI  H17X19821   0.454   4.958   8.560  2.2309 -0.9109  0.3654
  174SAPI  H17Y19822   0.325   4.849   8.509 -0.9992  2.9259  0.0300
  174SAPI  C31819823   0.508   4.756   8.596  0.2441 -0.2935 -0.1893
  174SAPI  H18X19824   0.462   4.662   8.634 -0.3105 -0.4572 -1.2414
  174SAPI  H18Y19825   0.586   4.779   8.672  0.3344 -0.3341 -0.2685
  174SAPI  H18Z19826   0.549   4.731   8.496 -0.2868  1.9280 -1.0215
  175SAPI   C1219827   3.137   3.315   6.243  0.0474 -0.2721  0.0444
  175SAPI    H219828   3.205   3.320   6.330  0.2783 -0.3853 -0.1302
  175SAPI    O219829   3.078   3.445   6.232  0.0517  0.3620  0.2418
  175SAPI   HO219830   3.146   3.506   6.259 -0.5207  2.5891 -2.7593
  175SAPI   C1319831   3.220   3.283   6.120  0.3994 -0.0522 -0.3431
  175SAPI    H319832   3.256   3.178   6.125 -0.1494 -0.2069  0.6545
  175SAPI    O319833   3.337   3.360   6.110 -0.5647  0.0686 -0.6642
  175SAPI   HO319834   3.312   3.444   6.071 -2.5484 -0.5897 -0.9299
  175SAPI   C1419835   3.133   3.287   5.993  0.2096  0.1507  0.2011
  175SAPI    H419836   3.062   3.372   5.997 -1.6204 -1.3318  0.0051
  175SAPI    O419837   3.214   3.288   5.874  0.0734 -0.3127  0.4803
  175SAPI   HO419838   3.252   3.202   5.859  2.6663  1.0616 -1.6723
  175SAPI   C1519839   3.033   3.167   5.997 -1.0130 -0.0983 -0.4629
  175SAPI    H519840   3.088   3.071   6.010 -0.4061  0.0446 -1.7357
  175SAPI    O519841   2.952   3.162   5.878 -0.8053 -0.5246  0.3407
  175SAPI   HO519842   2.907   3.078   5.864 -0.2926 -0.7145 -0.1968
  175SAPI   C1619843   2.945   3.191   6.129 -0.3755  0.4241  1.2322
  175SAPI    H619844   2.898   3.288   6.102  1.3056  1.5863  2.3479
  175SAPI    O619845   2.842   3.093   6.151 -0.1690  0.0578 -0.4130
  175SAPI   HO619846   2.785   3.128   6.219  1.1636  1.6539 -0.0576
  175SAPI   C1119847   3.030   3.206   6.258  0.4230  0.0573  0.2605
  175SAPI    H119848   3.088   3.111   6.264  2.3200  1.2231  1.9706
  175SAPI     P19849   3.009   3.160   6.521  0.2218  0.0875  0.0461
  175SAPI   O1319850   3.129   3.074   6.495 -0.1435 -0.2365 -0.2383
  175SAPI   O1419851   2.902   3.103   6.604  0.0756  0.1147  0.2825
  175SAPI   O1219852   2.950   3.222   6.378 -0.2422  0.0297 -0.3064
  175SAPI   O1119853   3.072   3.278   6.600  0.5715 -0.8564 -0.3204
  175SAPI    C119854   2.989   3.394   6.644  0.1820 -0.1635 -0.5593
  175SAPI    HA19855   3.030   3.490   6.607  0.6190 -0.0885  0.1170
  175SAPI    HB19856   2.890   3.384   6.594 -0.3790 -0.0453  0.5132
  175SAPI    C219857   2.979   3.405   6.804 -0.0053  0.3240  0.4434
  175SAPI    HS19858   2.954   3.511   6.828  0.7646  0.5646  0.2245
  175SAPI   O2119859   3.099   3.371   6.869  0.4498 -0.2009  0.2226
  175SAPI   C2119860   3.205   3.443   6.830  0.0783 -0.4154  0.4126
  175SAPI   O2219861   3.205   3.540   6.760  0.7291 -0.3182  0.5785
  175SAPI   C2219862   3.325   3.404   6.916 -0.3950  0.0994 -0.1607
  175SAPI   H2R19863   3.382   3.316   6.877  1.7597  0.4439  1.9542
  175SAPI   H2S19864   3.398   3.487   6.912 -1.8939  1.4164 -2.1274
  175SAPI    C319865   2.865   3.320   6.854  0.2707  0.0444 -0.5665
  175SAPI    HX19866   2.870   3.213   6.822 -1.8319 -0.2572 -0.0098
  175SAPI    HY19867   2.780   3.361   6.796 -3.6673 -1.6414  3.4041
  175SAPI   O3119868   2.840   3.336   6.999 -0.2249 -0.0594 -0.0079
  175SAPI   C3119869   2.892   3.237   7.072 -0.2779 -0.5432 -0.4515
  175SAPI   O3219870   2.938   3.136   7.039  0.3263  0.0752 -0.2173
  175SAPI   C3219871   2.886   3.296   7.216 -0.2114 -0.2737  0.0119
  175SAPI   H2X19872   2.793   3.355   7.225 -1.1255 -1.9220  2.0592
  175SAPI   H2Y19873   2.977   3.358   7.232  0.1506 -0.7784 -0.0571
  175SAPI   C2319874   3.299   3.368   7.064 -0.0200  0.6685  0.0650
  175SAPI   H3R19875   3.395   3.337   7.111  1.2715  3.8327 -0.2226
  175SAPI   H3S19876   3.232   3.280   7.061 -0.0017  0.6400  0.4839
  175SAPI   C2419877   3.241   3.490   7.146 -0.2886  0.1866 -0.0833
  175SAPI   H4R19878   3.131   3.501   7.150 -0.2771  0.1280  0.7522
  175SAPI   H4S19879   3.272   3.586   7.100 -1.4947 -0.2402 -1.8384
  175SAPI   C2519880   3.287   3.476   7.291 -0.2791 -0.2288 -0.6163
  175SAPI   H5R19881   3.217   3.444   7.369 -1.5657 -0.1715 -1.7023
  175SAPI   C2619882   3.409   3.517   7.334 -0.1661  0.0008  0.0831
  175SAPI   H6R19883   3.440   3.485   7.434 -0.3954 -2.6015 -0.6245
  175SAPI   C2719884   3.525   3.550   7.241 -0.2543  0.1676 -0.0809
  175SAPI   H7R19885   3.492   3.572   7.137 -0.8597  1.8175  0.4325
  175SAPI   H7S19886   3.586   3.457   7.229  1.1404  1.3597 -3.4568
  175SAPI   C2819887   3.593   3.662   7.312  0.3823 -0.2769  0.1762
  175SAPI   H8R19888   3.547   3.759   7.290 -0.1630  0.1838  2.8920
  175SAPI   C2919889   3.698   3.649   7.396  0.0806 -0.0530 -0.5453
  175SAPI   H9R19890   3.721   3.733   7.462 -1.9528  0.5288 -0.5273
  175SAPI  C21019891   3.760   3.517   7.436  0.8425 -0.3994  0.0713
  175SAPI  H10R19892   3.787   3.465   7.341  0.9226  2.7240 -1.7585
  175SAPI  H10S19893   3.673   3.462   7.477 -0.5282  1.6473  0.0316
  175SAPI  C21119894   3.875   3.523   7.540 -0.1063  0.3721  0.2681
  175SAPI  H11R19895   3.979   3.523   7.504  0.2233  0.3566  1.1702
  175SAPI  C21219896   3.865   3.538   7.677  0.0792 -0.2538  0.9354
  175SAPI  H12R19897   3.960   3.546   7.732  1.1793 -0.8206 -0.8142
  175SAPI  C21319898   3.733   3.563   7.740  0.1969 -0.1039 -0.1670
  175SAPI  H13R19899   3.720   3.474   7.806  1.5684 -0.7377 -0.7203
  175SAPI  H13S19900   3.644   3.557   7.673 -0.0857 -0.7047  0.2539
  175SAPI  C21419901   3.744   3.698   7.817 -0.3716  0.1672  0.6213
  175SAPI  H14R19902   3.728   3.790   7.759 -1.3141  0.5695  1.4922
  175SAPI  C21519903   3.768   3.707   7.949  0.5176 -0.1404  0.0244
  175SAPI  H15R19904   3.776   3.807   7.994  1.7110 -0.2604  0.1160
  175SAPI  C21619905   3.798   3.600   8.046 -1.1206  0.1020  0.7608
  175SAPI  H16R19906   3.786   3.502   7.996 -1.5606  0.4159  0.2361
  175SAPI  H16S19907   3.721   3.599   8.126 -1.9442  0.8612  0.0082
  175SAPI  C21719908   3.949   3.626   8.100  0.2567  0.5117 -0.0914
  175SAPI  H17R19909   3.967   3.730   8.136  0.5757  0.1685  0.7702
  175SAPI  H17S19910   4.007   3.607   8.007 -0.9883 -0.5327 -0.6765
  175SAPI  C21819911   3.993   3.521   8.201 -0.0484 -0.4356 -0.3349
  175SAPI  H18R19912   3.962   3.417   8.175 -1.4129 -0.5754  1.6742
  175SAPI  H18S19913   3.946   3.539   8.300  1.5795 -3.8259  1.2340
  175SAPI  C21919914   4.145   3.520   8.218  0.5011 -0.1237 -0.6528
  175SAPI  H19R19915   4.182   3.624   8.232  0.2237 -0.0898 -0.1415
  175SAPI  H19S19916   4.198   3.491   8.125  2.5173  1.5763 -0.1258
  175SAPI  C22019917   4.194   3.433   8.337 -0.1088  0.4786  0.2586
  175SAPI  H20R19918   4.173   3.459   8.443  0.3170 -1.5603  0.8872
  175SAPI  H20S19919   4.302   3.410   8.335 -0.2879 -0.3842  0.2933
  175SAPI  H20T19920   4.152   3.331   8.328 -1.0239  1.0316 -2.7946
  175SAPI   C3319921   2.876   3.194   7.335 -0.2605 -0.0590  0.0708
  175SAPI   H3X19922   2.974   3.145   7.315  0.7213  2.6564 -2.5496
  175SAPI   H3Y19923   2.798   3.117   7.316  1.3981 -1.2083 -2.6804
  175SAPI   C3419924   2.876   3.243   7.473  0.3779  0.0403  0.2472
  175SAPI   H4X19925   2.773   3.270   7.506 -0.0618  1.7472 -2.2688
  175SAPI   H4Y19926   2.930   3.340   7.476  1.4477 -0.4621 -1.4742
  175SAPI   C3519927   2.950   3.162   7.584  0.0959  0.4882  0.6387
  175SAPI   H5X19928   3.058   3.179   7.568  0.0050  0.6442  0.1792
  175SAPI   H5Y19929   2.920   3.056   7.571 -0.3559  0.7583 -0.7053
  175SAPI   C3619930   2.909   3.211   7.724  0.1733  0.0745  0.8187
  175SAPI   H6X19931   2.800   3.190   7.732  0.0578 -0.6839 -1.7399
  175SAPI   H6Y19932   2.930   3.320   7.728  0.7569 -0.0531  1.3503
  175SAPI   C3719933   2.983   3.137   7.840  0.0126 -0.7543 -0.2646
  175SAPI   H7X19934   3.090   3.163   7.838  0.2787 -1.7829 -2.2188
  175SAPI   H7Y19935   2.980   3.026   7.836 -0.9228 -0.7183 -1.5514
  175SAPI   C3819936   2.912   3.165   7.971  0.4927 -0.5528 -0.0568
  175SAPI   H8X19937   2.968   3.097   8.039 -0.9330 -0.8399  0.8665
  175SAPI   H8Y19938   2.806   3.132   7.970  0.8344 -1.7218  0.4452
  175SAPI   C3919939   2.930   3.307   8.023  0.2174  0.7166 -0.3889
  175SAPI   H9X19940   2.873   3.380   7.963 -1.9856  0.8944  1.7640
  175SAPI   H9Y19941   3.038   3.334   8.027  0.8151 -1.4141 -0.7727
  175SAPI  C31019942   2.878   3.308   8.176  0.1575  0.0657  0.4211
  175SAPI  H10X19943   2.925   3.218   8.222 -2.9303 -0.6937  2.3733
  175SAPI  H10Y19944   2.768   3.297   8.177  0.2665 -1.2567  0.8899
  175SAPI  C31119945   2.918   3.439   8.255  0.3933  0.6022  0.0826
  175SAPI  H11X19946   2.886   3.527   8.195 -0.8705 -1.4199 -2.3881
  175SAPI  H11Y19947   3.028   3.450   8.245  0.2725  1.4483 -0.4046
  175SAPI  C31219948   2.873   3.430   8.402 -0.1174  0.0397  0.3771
  175SAPI  H12X19949   2.922   3.340   8.444  2.5164  1.3545  0.3261
  175SAPI  H12Y19950   2.762   3.429   8.409 -0.1820  2.4306  0.7186
  175SAPI  C31319951   2.923   3.552   8.479 -0.4786  0.7725 -0.1070
  175SAPI  H13X19952   2.889   3.554   8.585  2.5123  2.5624  0.9372
  175SAPI  H13Y19953   2.883   3.644   8.431  0.6420  0.7063 -1.2288
  175SAPI  C31419954   3.076   3.560   8.499  0.6022 -0.9878 -0.6580
  175SAPI  H14X19955   3.122   3.533   8.402  3.8979 -3.2095  1.3284
  175SAPI  H14Y19956   3.107   3.486   8.576 -1.4675 -1.1532  0.0875
  175SAPI  C31519957   3.120   3.698   8.548 -0.2628 -0.1081  0.0311
  175SAPI  H15X19958   3.078   3.774   8.479 -1.1021 -0.2415  0.3851
  175SAPI  H15Y19959   3.230   3.701   8.533 -0.2286 -0.9453  0.0826
  175SAPI  C31619960   3.092   3.731   8.697  0.0834 -0.2466 -0.8710
  175SAPI  H16X19961   3.118   3.644   8.760  5.0271  2.4342  1.3834
  175SAPI  H16Y19962   2.984   3.751   8.715 -0.0686 -0.8331 -1.0966
  175SAPI  C31719963   3.181   3.845   8.760  0.1963 -0.5892 -0.4935
  175SAPI  H17X19964   3.288   3.825   8.735  0.8391  0.8674  0.9418
  175SAPI  H17Y19965   3.176   3.853   8.871 -1.2696 -1.6673 -0.4465
  175SAPI  C31819966   3.139   3.982   8.708 -0.3470 -0.0123 -0.2506
  175SAPI  H18X19967   3.044   4.015   8.756  0.8808 -0.1048  2.4295
  175SAPI  H18Y19968   3.132   3.981   8.597  1.2767 -1.9496 -0.4042
  175SAPI  H18Z19969   3.209   4.061   8.742 -2.4935  1.9391 -0.1516
  176SAPI   C1219970   1.295   6.105   6.284  0.0122  0.8233 -0.5327
  176SAPI    H219971   1.221   6.140   6.359  1.4367 -3.0743  3.1304
  176SAPI    O219972   1.363   6.003   6.359  0.4959  0.1474 -0.2517
  176SAPI   HO219973   1.308   5.984   6.436 -0.3180  1.7995 -0.3838
  176SAPI   C1319974   1.223   6.033   6.170 -0.1320 -0.6951  0.1363
  176SAPI    H319975   1.166   6.110   6.112  0.7361  0.4551  0.7670
  176SAPI    O319976   1.118   5.943   6.212  0.8140  0.2608  0.4564
  176SAPI   HO319977   1.163   5.901   6.286 -0.2591  0.4135  1.2323
  176SAPI   C1419978   1.324   5.971   6.073  0.6106  0.8056 -0.0908
  176SAPI    H419979   1.383   5.896   6.130 -1.6415  0.4012  1.8724
  176SAPI    O419980   1.250   5.912   5.962  0.2922  0.8773 -0.3528
  176SAPI   HO419981   1.226   5.826   5.997 -0.2561  0.9951 -0.4277
  176SAPI   C1519982   1.430   6.077   6.025 -0.4155 -0.0675 -0.6666
  176SAPI    H519983   1.371   6.147   5.962  0.5879  1.5272  0.1063
  176SAPI    O519984   1.529   6.015   5.945  0.0453  0.5691 -0.0268
  176SAPI   HO519985   1.514   6.035   5.852  1.4499 -0.5023 -0.5349
  176SAPI   C1619986   1.494   6.149   6.141 -0.6717  0.3351 -0.2795
  176SAPI    H619987   1.564   6.080   6.195 -1.0757  0.0517 -0.1154
  176SAPI    O619988   1.581   6.258   6.093  0.0510 -0.3960 -0.1023
  176SAPI   HO619989   1.646   6.264   6.164 -0.5817 -0.1264  0.4763
  176SAPI   C1119990   1.388   6.209   6.232 -0.3487 -0.1229 -0.0872
  176SAPI    H119991   1.337   6.295   6.184 -1.3841  1.8931  4.2160
  176SAPI     P19992   1.494   6.412   6.379 -0.1887 -0.1571 -0.2228
  176SAPI   O1319993   1.404   6.509   6.308  0.5322  0.9774  0.3494
  176SAPI   O1419994   1.642   6.433   6.347  0.1738 -0.0981  0.3334
  176SAPI   O1219995   1.444   6.261   6.349 -0.5748 -0.1146 -0.0305
  176SAPI   O1119996   1.463   6.413   6.539  0.1932 -0.3764  0.5709
  176SAPI    C119997   1.323   6.404   6.581 -0.0184  0.7796  0.3988
  176SAPI    HA19998   1.280   6.506   6.585  1.0713  1.3416 -1.2365
  176SAPI    HB19999   1.262   6.335   6.518 -0.1194 -0.8582  2.1860
  176SAPI    C220000   1.311   6.346   6.726 -0.3393  0.4984 -0.1312
  176SAPI    HS20001   1.201   6.331   6.735 -0.2292 -1.1063 -1.0282
  176SAPI   O2120002   1.383   6.431   6.821  0.0572 -0.4325  0.4436
  176SAPI   C2120003   1.319   6.544   6.842  0.3063 -0.2189 -0.6967
  176SAPI   O2220004   1.208   6.578   6.792  0.3409  0.4557 -0.0650
  176SAPI   C2220005   1.393   6.630   6.936 -0.1747  0.0951  0.5109
  176SAPI   H2R20006   1.494   6.652   6.898  0.8969 -1.2380  2.3836
  176SAPI   H2S20007   1.341   6.722   6.968 -1.5800 -0.8291  1.0192
  176SAPI    C320008   1.387   6.199   6.740 -0.1475 -0.2090  0.5759
  176SAPI    HX20009   1.464   6.219   6.663  0.2082  0.3211  1.0583
  176SAPI    HY20010   1.319   6.121   6.699  0.5408 -0.5939  0.1543
  176SAPI   O3120011   1.443   6.171   6.871 -0.6360  0.2888 -0.6315
  176SAPI   C3120012   1.383   6.078   6.937  1.0278 -0.5738  0.7908
  176SAPI   O3220013   1.272   6.030   6.912 -0.4693 -0.0353 -0.4075
  176SAPI   C3220014   1.462   6.047   7.066 -0.8317 -0.1825 -0.1177
  176SAPI   H2X20015   1.473   6.143   7.119 -1.1136 -0.6247  0.7577
  176SAPI   H2Y20016   1.562   6.004   7.041 -1.2746 -1.0950 -0.3560
  176SAPI   C2320017   1.426   6.560   7.066 -0.7737  0.3123  0.4938
  176SAPI   H3R20018   1.508   6.623   7.107 -1.6955  2.8937 -1.3339
  176SAPI   H3S20019   1.463   6.457   7.047 -0.6276  0.6620 -1.3791
  176SAPI   C2420020   1.308   6.561   7.166  0.2869  0.1804  0.0390
  176SAPI   H4R20021   1.341   6.475   7.229  0.4972  0.6646  0.5935
  176SAPI   H4S20022   1.210   6.523   7.130  1.2975 -1.9467 -0.6667
  176SAPI   C2520023   1.292   6.684   7.241 -1.0870  0.3655 -0.8047
  176SAPI   H5R20024   1.304   6.776   7.182 -1.4083  0.3232 -0.9399
  176SAPI   C2620025   1.254   6.698   7.372  0.0231 -0.2574  0.3453
  176SAPI   H6R20026   1.277   6.797   7.414  1.0220 -0.5204  0.4576
  176SAPI   C2720027   1.225   6.598   7.476 -0.0532 -0.4354 -0.1335
  176SAPI   H7R20028   1.188   6.508   7.421 -1.2584 -0.6972  1.0449
  176SAPI   H7S20029   1.138   6.632   7.536  0.3771  0.7141 -0.1400
  176SAPI   C2820030   1.342   6.559   7.564  0.2916 -0.1680 -0.1894
  176SAPI   H8R20031   1.443   6.594   7.539 -0.0032  1.0205  0.1973
  176SAPI   C2920032   1.327   6.506   7.688  0.0006 -0.1430 -0.3554
  176SAPI   H9R20033   1.407   6.486   7.760 -1.9695  0.6271  2.2255
  176SAPI  C21020034   1.198   6.481   7.760 -0.1545  0.4690 -0.3025
  176SAPI  H10R20035   1.212   6.404   7.839 -1.4151 -1.2224 -1.6379
  176SAPI  H10S20036   1.135   6.426   7.687 -3.3275  0.9490  1.8469
  176SAPI  C21120037   1.134   6.608   7.813  0.2082  0.0181 -0.0236
  176SAPI  H11R20038   1.150   6.699   7.752  1.2214  0.3940  0.7691
  176SAPI  C21220039   1.074   6.611   7.932 -0.4949 -0.2283  0.0782
  176SAPI  H12R20040   1.040   6.706   7.976 -1.0159 -0.7554  0.8445
  176SAPI  C21320041   1.040   6.487   8.020  0.4068 -0.8347  0.5480
  176SAPI  H13R20042   1.108   6.485   8.109 -0.5571  0.2382  1.3396
  176SAPI  H13S20043   1.055   6.394   7.961  0.0509 -1.3454  1.2475
  176SAPI  C21420044   0.895   6.502   8.065 -0.1633 -0.9840 -0.0410
  176SAPI  H14R20045   0.819   6.476   7.991  1.4776 -2.1853 -1.3832
  176SAPI  C21520046   0.856   6.536   8.192 -0.3006  0.7268 -0.9593
  176SAPI  H15R20047   0.751   6.558   8.217  0.1775  0.8916  1.0275
  176SAPI  C21620048   0.942   6.575   8.315  0.0729 -0.3475  0.5380
  176SAPI  H16R20049   0.894   6.646   8.386  0.3693 -0.5632  0.9539
  176SAPI  H16S20050   1.033   6.629   8.278 -1.7091  1.9429 -0.7745
  176SAPI  C21720051   0.981   6.451   8.403  0.0018  0.0546  0.0363
  176SAPI  H17R20052   1.055   6.480   8.481 -1.7133 -1.0022  2.1576
  176SAPI  H17S20053   1.034   6.376   8.340 -0.0426  0.8005 -0.8926
  176SAPI  C21820054   0.866   6.383   8.480 -1.0263 -0.3361 -0.0228
  176SAPI  H18R20055   0.919   6.297   8.527 -2.0187  0.5173  2.8694
  176SAPI  H18S20056   0.781   6.355   8.414 -1.3592 -0.6024  0.5113
  176SAPI  C21920057   0.817   6.460   8.602  0.2654 -0.5755 -0.5002
  176SAPI  H19R20058   0.776   6.556   8.565  3.2859  1.0404  0.0475
  176SAPI  H19S20059   0.905   6.484   8.665 -0.1629 -1.3125  0.4096
  176SAPI  C22020060   0.714   6.381   8.670  0.5783  0.6733  0.5899
  176SAPI  H20R20061   0.627   6.358   8.605  1.8287 -0.9625 -0.6079
  176SAPI  H20S20062   0.679   6.429   8.764  1.3249  2.9402 -0.2078
  176SAPI  H20T20063   0.763   6.287   8.702  0.1635 -0.0099 -0.7233
  176SAPI   C3320064   1.411   5.931   7.164 -0.4138 -0.1373  0.2907
  176SAPI   H3X20065   1.401   5.835   7.108  1.3730 -1.0514  1.4700
  176SAPI   H3Y20066   1.312   5.962   7.204 -0.9159 -0.5144 -0.6133
  176SAPI   C3420067   1.498   5.915   7.294  0.2216  1.1135 -0.3406
  176SAPI   H4X20068   1.498   6.017   7.338 -0.2244  1.7261 -1.6993
  176SAPI   H4Y20069   1.602   5.880   7.281 -0.0121  0.7687 -1.3645
  176SAPI   C3520070   1.425   5.819   7.394  0.5283 -0.1799 -0.0842
  176SAPI   H5X20071   1.423   5.712   7.363  0.5880 -0.8085  1.9634
  176SAPI   H5Y20072   1.317   5.840   7.411  0.7417  0.9580 -0.0390
  176SAPI   C3620073   1.499   5.813   7.529 -0.0200 -0.2539  0.2459
  176SAPI   H6X20074   1.538   5.915   7.549  1.1245 -0.8336  1.0872
  176SAPI   H6Y20075   1.583   5.743   7.510 -0.9861 -1.4500  0.2871
  176SAPI   C3720076   1.406   5.754   7.631 -0.0343 -0.0809 -0.5430
  176SAPI   H7X20077   1.362   5.656   7.601 -1.3582 -0.5107  2.4432
  176SAPI   H7Y20078   1.319   5.821   7.647 -0.6444 -1.0537  0.3459
  176SAPI   C3820079   1.468   5.731   7.770  0.3885 -0.1779  0.2384
  176SAPI   H8X20080   1.498   5.831   7.809 -0.5915  0.9429 -1.6978
  176SAPI   H8Y20081   1.562   5.673   7.759  0.5248  0.1568 -0.4145
  176SAPI   C3920082   1.362   5.666   7.863 -0.2032  0.2343  0.6159
  176SAPI   H9X20083   1.335   5.567   7.820  1.9807 -0.8999  1.6934
  176SAPI   H9Y20084   1.268   5.724   7.856 -0.7370 -0.3323  2.4008
  176SAPI  C31020085   1.422   5.633   8.001  0.0585  0.2386  0.3013
  176SAPI  H10X20086   1.519   5.578   7.991  0.6786  1.5623 -1.4522
  176SAPI  H10Y20087   1.352   5.563   8.052  1.2187 -0.9268  0.3588
  176SAPI  C31120088   1.440   5.756   8.093  0.2406  0.1739 -0.0030
  176SAPI  H11X20089   1.386   5.846   8.055  0.1460  1.2419  2.4518
  176SAPI  H11Y20090   1.548   5.780   8.090  0.6134 -1.4583 -1.7992
  176SAPI  C31220091   1.391   5.739   8.235  0.1391  0.9029  0.2811
  176SAPI  H12X20092   1.443   5.651   8.277  1.2036  0.7040 -1.4070
  176SAPI  H12Y20093   1.283   5.720   8.218  0.3306 -1.1660  1.1304
  176SAPI  C31320094   1.414   5.870   8.321 -0.4295  0.6850  0.8944
  176SAPI  H13X20095   1.379   5.953   8.256 -0.6360  0.0027  0.1189
  176SAPI  H13Y20096   1.525   5.874   8.328 -0.5262  1.6412  2.1408
  176SAPI  C31420097   1.357   5.868   8.468  0.2285 -0.4025  1.0077
  176SAPI  H14X20098   1.256   5.821   8.458 -0.1732  0.9286 -2.5579
  176SAPI  H14Y20099   1.350   5.968   8.516 -0.5411 -0.6621  1.4624
  176SAPI  C31520100   1.439   5.784   8.560 -0.3460  0.2458  0.4317
  176SAPI  H15X20101   1.545   5.815   8.557 -0.4856  0.7029  0.0232
  176SAPI  H15Y20102   1.431   5.676   8.534 -0.0478  0.4284 -0.4527
  176SAPI  C31620103   1.377   5.788   8.697 -0.0174 -0.6157  0.5139
  176SAPI  H16X20104   1.273   5.749   8.702 -1.3835  2.6968  0.5770
  176SAPI  H16Y20105   1.377   5.892   8.736  1.0109 -0.5761  0.4548
  176SAPI  C31720106   1.464   5.712   8.801  0.1302 -0.3577 -0.4107
  176SAPI  H17X20107   1.566   5.753   8.814  0.4241 -1.6070  1.7490
  176SAPI  H17Y20108   1.479   5.606   8.771 -0.6009 -0.7726  0.6261
  176SAPI  C31820109   1.404   5.710   8.937 -0.1316  0.2450  0.7686
  176SAPI  H18X20110   1.469   5.658   9.011 -0.1493 -0.1390  0.5143
  176SAPI  H18Y20111   1.304   5.663   8.944 -0.4501  0.5638 -1.0768
  176SAPI  H18Z20112   1.394   5.809   8.986  0.0648  0.4943  0.3211
  177SLPC     N20113   0.118   4.271  10.740  0.2650 -0.0661 -0.3322
  177SLPC   C1320114   0.026   4.317  10.621 -0.6615 -0.6434  0.4213
  177SLPC  H13A20115  -0.031   4.406  10.640 -0.1610 -0.3244  0.4334
  177SLPC  H13B20116   0.089   4.325  10.534 -0.0121 -1.0331  0.8424
  177SLPC  H13C20117  -0.042   4.239  10.590 -0.2968 -1.4536  1.5626
  177SLPC   C1420118   0.177   4.140  10.718 -0.0996  0.0087  0.3521
  177SLPC  H14A20119   0.232   4.105  10.803 -0.4585 -0.2852  0.4669
  177SLPC  H14B20120   0.096   4.071  10.699  1.2178 -2.0049  1.7988
  177SLPC  H14C20121   0.238   4.127  10.629 -0.1817 -0.2430  0.3316
  177SLPC   C1520122   0.028   4.257  10.853 -0.7005 -0.1987 -0.2139
  177SLPC  H15A20123  -0.008   4.353  10.886  0.5720  0.2514 -0.1060
  177SLPC  H15B20124  -0.041   4.174  10.842  1.7862 -2.3006 -1.0039
  177SLPC  H15C20125   0.082   4.231  10.943  0.2709  2.8863  0.2005
  177SLPC   C1220126   0.234   4.366  10.767  0.3029  0.2579  0.0146
  177SLPC  H12A20127   0.201   4.469  10.765 -1.3827 -0.2642 -0.4048
  177SLPC  H12B20128   0.292   4.355  10.677  0.3833 -0.9979  0.1981
  177SLPC   C1120129   0.312   4.355  10.900 -0.9840  0.5511 -0.4618
  177SLPC  H11A20130   0.238   4.372  10.981  0.5913  0.2969  1.1030
  177SLPC  H11B20131   0.393   4.431  10.900  0.9678 -1.3859  1.7691
  177SLPC     P20132   0.519   4.192  10.842  0.0092  0.4405  0.1382
  177SLPC   O1320133   0.606   4.245  10.950 -1.0553  0.5997 -0.3876
  177SLPC   O1420134   0.509   4.050  10.795  0.1770 -0.0278 -0.1307
  177SLPC   O1220135   0.378   4.233  10.901  0.6068  0.3513 -0.2511
  177SLPC   O1120136   0.521   4.293  10.716  0.1056  0.4876  0.1929
  177SLPC    C120137   0.499   4.238  10.588  0.2709 -0.0683 -0.2902
  177SLPC    HA20138   0.419   4.161  10.592  0.6305 -0.6830 -2.9142
  177SLPC    HB20139   0.467   4.317  10.516  0.3544 -0.0649 -0.3250
  177SLPC    C220140   0.634   4.195  10.522 -0.1726  0.0263  0.0579
  177SLPC    HS20141   0.659   4.092  10.554 -1.1357 -0.7932 -1.6491
  177SLPC   O2120142   0.735   4.289  10.545  0.9114  0.1038 -0.2458
  177SLPC   C2120143   0.859   4.247  10.558 -0.8471 -0.1416  0.0865
  177SLPC   O2220144   0.905   4.133  10.552  0.3553 -0.2946  0.2852
  177SLPC   C2220145   0.946   4.374  10.559 -0.8248 -0.3568 -0.3038
  177SLPC   H2R20146   0.887   4.464  10.530  4.0288  2.7654 -1.7623
  177SLPC   H2S20147   0.998   4.401  10.653 -0.1163 -0.5533 -0.6288
  177SLPC    C320148   0.632   4.171  10.369 -0.0057 -1.1195 -0.2265
  177SLPC    HX20149   0.543   4.107  10.352 -1.1020  0.1041  0.6905
  177SLPC    HY20150   0.727   4.123  10.339  1.4972  1.6690 -0.2797
  177SLPC   O3120151   0.624   4.302  10.300  0.3973  0.2164  0.3114
  177SLPC   C3120152   0.511   4.317  10.220 -0.2336 -0.8964 -0.2338
  177SLPC   O3220153   0.425   4.236  10.200 -0.2490  0.2851 -0.0525
  177SLPC   C3220154   0.510   4.463  10.177 -0.1314 -0.1293  0.0269
  177SLPC   H2X20155   0.561   4.521  10.257 -1.4841  0.7427  0.2985
  177SLPC   H2Y20156   0.406   4.499  10.166 -0.4100 -1.1254 -0.7687
  177SLPC   C2320157   1.046   4.370  10.432  0.6181 -0.3504  0.1304
  177SLPC   H3R20158   1.093   4.270  10.421  1.6676  0.2833 -1.4717
  177SLPC   H3S20159   1.128   4.440  10.459  0.3769 -0.1557  0.3638
  177SLPC   C2420160   0.979   4.428  10.299 -0.3871  0.1834 -0.3459
  177SLPC   H4R20161   0.929   4.523  10.327  1.5423  1.4085 -0.8568
  177SLPC   H4S20162   0.904   4.353  10.263  1.2216 -0.9613 -1.4927
  177SLPC   C2520163   1.084   4.446  10.187 -0.0949 -0.3201 -0.9709
  177SLPC   H5R20164   1.110   4.341  10.163 -0.6463 -0.1325 -2.5119
  177SLPC   H5S20165   1.175   4.495  10.226  0.4906 -2.3437  0.3844
  177SLPC   C2620166   1.039   4.509  10.053  0.3427  0.5710  0.8526
  177SLPC   H6R20167   1.060   4.617  10.073 -0.3268  0.3902  2.8011
  177SLPC   H6S20168   0.929   4.500  10.036  0.1369  2.3661  0.9834
  177SLPC   C2720169   1.124   4.457   9.940  0.3525 -0.0556  0.6611
  177SLPC   H7R20170   1.118   4.346   9.936  2.5431 -0.1964  0.4481
  177SLPC   H7S20171   1.229   4.487   9.957  1.5308 -2.0518 -2.3282
  177SLPC   C2820172   1.081   4.501   9.794  0.1681 -0.2482 -0.2486
  177SLPC   H8R20173   0.981   4.548   9.807  0.6668  0.9296 -0.5703
  177SLPC   H8S20174   1.065   4.418   9.722 -1.7789 -1.3183  1.2910
  177SLPC   C2920175   1.169   4.602   9.725 -0.9624 -0.3420 -0.1290
  177SLPC   H9R20176   1.157   4.708   9.753  1.2964 -0.0285 -0.2210
  177SLPC  C21020177   1.264   4.559   9.632  0.2645 -0.8380  0.2302
  177SLPC  H10R20178   1.337   4.633   9.595 -1.5947  1.8412  1.5998
  177SLPC  C21120179   1.283   4.415   9.588 -0.0640  0.2932 -0.6587
  177SLPC  H11R20180   1.300   4.354   9.678  0.1501  1.1140 -0.1268
  177SLPC  H11S20181   1.184   4.396   9.542 -0.5417  1.2362 -0.0343
  177SLPC  C21220182   1.385   4.387   9.483  0.6939  0.3559 -0.3672
  177SLPC  H12R20183   1.410   4.472   9.417  3.3261 -0.2367 -0.2138
  177SLPC  C21320184   1.442   4.266   9.459  0.5989  0.1878  0.6362
  177SLPC  H13R20185   1.512   4.253   9.375 -1.7827 -1.5931 -1.2354
  177SLPC  C21420186   1.415   4.143   9.541  0.1179  0.0339 -0.0437
  177SLPC  H14R20187   1.341   4.157   9.622 -1.8583 -0.8509 -1.5792
  177SLPC  H14S20188   1.509   4.116   9.594  3.1210 -2.7317 -5.8253
  177SLPC  C21520189   1.383   4.025   9.443  0.8703  0.3275  0.7623
  177SLPC  H15R20190   1.300   4.048   9.373  0.8827  0.7135  0.8740
  177SLPC  H15S20191   1.338   3.944   9.504 -0.2494 -1.0001 -1.6630
  177SLPC  C21620192   1.496   3.957   9.365 -0.1129 -0.0477 -0.3215
  177SLPC  H16R20193   1.594   3.945   9.418  0.8748  0.6660 -1.9044
  177SLPC  H16S20194   1.516   4.021   9.277  0.0605  0.4156  0.0518
  177SLPC  C21720195   1.463   3.816   9.318  0.3304  0.0155  0.2446
  177SLPC  H17R20196   1.410   3.758   9.397 -0.1248  1.0183  0.6869
  177SLPC  H17S20197   1.562   3.766   9.314 -0.6511 -1.9717 -1.3445
  177SLPC  C21820198   1.386   3.811   9.183 -0.8932  0.3325  0.3376
  177SLPC  H18R20199   1.462   3.842   9.107  0.8090 -0.5814  1.5846
  177SLPC  H18S20200   1.304   3.884   9.165  0.0292  1.3760  0.2594
  177SLPC  H18T20201   1.355   3.707   9.160 -0.2434 -0.0483  1.1187
  177SLPC   C3320202   0.603   4.494  10.051  0.0222  0.5836 -0.1041
  177SLPC   H3X20203   0.710   4.467  10.066 -0.2085 -0.8956 -0.9215
  177SLPC   H3Y20204   0.601   4.604  10.040 -0.3849  0.4596 -1.6079
  177SLPC   C3420205   0.561   4.425   9.919 -0.4144  0.8843  0.1971
  177SLPC   H4X20206   0.450   4.431   9.913 -0.6080  0.0883  2.0463
  177SLPC   H4Y20207   0.596   4.320   9.914  0.6153  1.0847  2.2007
  177SLPC   C3520208   0.633   4.509   9.807  0.0039  0.0823 -0.3263
  177SLPC   H5X20209   0.737   4.473   9.822  0.4474 -0.0970 -3.2072
  177SLPC   H5Y20210   0.630   4.620   9.819  1.0485  0.2331 -1.2461
  177SLPC   C3620211   0.593   4.491   9.666  0.1435 -0.3305  0.4768
  177SLPC   H6X20212   0.490   4.530   9.651  0.5023  0.5228  0.2134
  177SLPC   H6Y20213   0.588   4.381   9.651 -1.7964 -0.4697  1.7842
  177SLPC   C3720214   0.692   4.551   9.568 -0.0100 -0.2131  0.0111
  177SLPC   H7X20215   0.795   4.515   9.588  0.5780  1.8474  0.9616
  177SLPC   H7Y20216   0.702   4.661   9.572  2.8070 -0.3782 -0.4822
  177SLPC   C3820217   0.666   4.502   9.424  0.4515  0.1572  1.1257
  177SLPC   H8X20218   0.562   4.517   9.388  1.0537 -0.3381 -0.9208
  177SLPC   H8Y20219   0.668   4.392   9.436  2.2974  0.0266 -0.0088
  177SLPC   C3920220   0.776   4.548   9.329 -0.1813 -0.3494  0.4528
  177SLPC   H9X20221   0.862   4.479   9.345 -0.8574 -1.5596 -0.9175
  177SLPC   H9Y20222   0.826   4.641   9.365  0.9750 -0.1473 -1.4986
  177SLPC  C31020223   0.731   4.549   9.178  0.6555  0.1351 -0.0302
  177SLPC  H10X20224   0.640   4.606   9.152 -1.1880 -1.6133  2.2260
  177SLPC  H10Y20225   0.705   4.443   9.158  0.7062  0.1007  0.0903
  177SLPC  C31120226   0.848   4.589   9.072  0.5982  0.1313 -0.3755
  177SLPC  H11X20227   0.936   4.522   9.084  1.5718  1.5139  0.5777
  177SLPC  H11Y20228   0.883   4.686   9.114  0.5092 -0.7531  1.8889
  177SLPC  C31220229   0.815   4.610   8.922  0.0766  1.1718  0.1957
  177SLPC  H12X20230   0.758   4.705   8.920  1.3215  1.9463  0.1447
  177SLPC  H12Y20231   0.750   4.524   8.896  3.0722 -0.9595 -0.7700
  177SLPC  C31320232   0.939   4.623   8.833  0.0050 -0.5090  0.2909
  177SLPC  H13X20233   1.011   4.538   8.839  1.3852  0.3658 -2.3273
  177SLPC  H13Y20234   1.000   4.704   8.878 -0.0355 -0.3929  0.1360
  177SLPC  C31420235   0.910   4.657   8.688  0.4716  0.1458  0.1566
  177SLPC  H14X20236   1.008   4.701   8.659 -0.8470  2.6824 -0.7246
  177SLPC  H14Y20237   0.837   4.741   8.685  0.8842  0.5690  1.3281
  177SLPC  C31520238   0.858   4.523   8.621  0.4527 -0.0979 -0.1000
  177SLPC  H15X20239   0.772   4.485   8.680  0.9634 -0.4110  0.4591
  177SLPC  H15Y20240   0.934   4.445   8.641 -1.4032 -1.6156  1.4374
  177SLPC  C31620241   0.840   4.542   8.471 -0.1116  0.8853 -0.5196
  177SLPC  H16X20242   0.923   4.610   8.442 -0.2917  1.3167 -0.0427
  177SLPC  H16Y20243   0.746   4.597   8.447 -0.9403 -0.0321  0.4702
  177SLPC  C31720244   0.859   4.407   8.398 -0.0561 -0.1794  0.3217
  177SLPC  H17X20245   0.783   4.341   8.445  1.6903 -1.0149  2.1233
  177SLPC  H17Y20246   0.957   4.357   8.414  1.1564  2.1186  0.4489
  177SLPC  C31820247   0.832   4.420   8.255  0.2998 -0.5366 -0.0250
  177SLPC  H18X20248   0.914   4.469   8.198  0.6826 -2.3412 -1.1193
  177SLPC  H18Y20249   0.743   4.484   8.239  0.4091 -0.1697  0.7990
  177SLPC  H18Z20250   0.809   4.327   8.199 -0.6387 -0.2171 -0.1826
  178SLPC     N20251   2.887   6.312  11.416  0.2289  0.6564  0.6721
  178SLPC   C1320252   2.916   6.195  11.323 -0.3388  0.2240  0.1921
  178SLPC  H13A20253   2.953   6.223  11.226 -0.4061 -1.0500 -0.2311
  178SLPC  H13B20254   2.981   6.127  11.377  0.0834 -0.8333 -1.5752
  178SLPC  H13C20255   2.825   6.137  11.310  0.2979 -1.1073  1.3403
  178SLPC   C1420256   3.011   6.376  11.468  1.0149 -1.0319  0.3570
  178SLPC  H14A20257   3.079   6.410  11.391  0.3881  0.1592  0.2914
  178SLPC  H14B20258   2.982   6.466  11.520  0.9104 -0.4806 -0.6202
  178SLPC  H14C20259   3.069   6.321  11.539  0.1220  0.5794  2.4448
  178SLPC   C1520260   2.807   6.281  11.530  0.2974  0.0774  0.0356
  178SLPC  H15A20261   2.796   6.363  11.600  2.6928  0.7297 -0.2430
  178SLPC  H15B20262   2.706   6.261  11.499 -0.0654  0.8908  0.6352
  178SLPC  H15C20263   2.849   6.203  11.592 -1.9778  0.0283  1.6547
  178SLPC   C1220264   2.807   6.417  11.330  0.3251 -0.1899 -0.1322
  178SLPC  H12A20265   2.758   6.485  11.398  2.1382 -0.5137  1.6063
  178SLPC  H12B20266   2.738   6.352  11.278 -0.1428  0.4456 -0.3144
  178SLPC   C1120267   2.885   6.509  11.227 -0.0127  0.0280 -0.1032
  178SLPC  H11A20268   2.949   6.570  11.295 -1.5909  2.3391 -0.5444
  178SLPC  H11B20269   2.819   6.587  11.183  0.0786  0.8260  1.1105
  178SLPC     P20270   2.950   6.409  10.998 -0.1875 -0.3854 -0.1295
  178SLPC   O1320271   3.085   6.394  10.934 -0.7760  0.5066  0.2641
  178SLPC   O1420272   2.850   6.300  10.992 -0.3232  0.0945 -0.1096
  178SLPC   O1220273   2.977   6.449  11.141 -0.4442  0.2524  0.3600
  178SLPC   O1120274   2.900   6.540  10.932 -0.1464 -0.7421  0.2914
  178SLPC    C120275   2.758   6.566  10.926  0.0865 -0.5219  0.9417
  178SLPC    HA20276   2.708   6.518  11.012 -1.9791 -0.7274 -0.2885
  178SLPC    HB20277   2.749   6.675  10.948  0.8770 -0.1770 -0.3415
  178SLPC    C220278   2.700   6.527  10.784 -0.8345  0.8861  0.5434
  178SLPC    HS20279   2.688   6.417  10.798  0.4030  0.6643 -0.0483
  178SLPC   O2120280   2.797   6.558  10.689  0.2218 -0.2083  0.0829
  178SLPC   C2120281   2.829   6.458  10.603 -0.0001 -0.0953  0.0716
  178SLPC   O2220282   2.784   6.345  10.608  0.5157 -0.3741 -0.6127
  178SLPC   C2220283   2.945   6.504  10.525 -0.6340  0.0031  0.5006
  178SLPC   H2R20284   3.029   6.535  10.591 -1.1602  2.3867  0.1545
  178SLPC   H2S20285   2.984   6.419  10.464  0.4578  1.5564 -1.0730
  178SLPC    C320286   2.572   6.603  10.752 -0.5242 -0.6481 -0.3700
  178SLPC    HX20287   2.597   6.708  10.727  4.7780 -1.0461  1.9408
  178SLPC    HY20288   2.500   6.610  10.837  0.5482  1.2197  0.4324
  178SLPC   O3120289   2.516   6.544  10.640 -0.6652 -0.4888  0.0387
  178SLPC   C3120290   2.442   6.436  10.654 -1.0314 -1.0762  0.8786
  178SLPC   O3220291   2.419   6.382  10.757 -0.0422 -0.0484  0.3979
  178SLPC   C3220292   2.399   6.380  10.510 -0.5064 -0.4119  0.1024
  178SLPC   H2X20293   2.492   6.344  10.460 -0.2505 -0.9571  0.9560
  178SLPC   H2Y20294   2.359   6.468  10.455  2.6067  0.1774 -1.4869
  178SLPC   C2320295   2.907   6.619  10.426  0.0587  0.4831  0.2029
  178SLPC   H3R20296   2.992   6.682  10.392  1.2476 -2.5059 -3.0519
  178SLPC   H3S20297   2.821   6.678  10.464  1.0389  1.6072  0.7283
  178SLPC   C2420298   2.855   6.558  10.286  0.0661  0.2336  0.5665
  178SLPC   H4R20299   2.818   6.639  10.221  1.1900 -0.6565 -1.2712
  178SLPC   H4S20300   2.763   6.509  10.322 -1.3662  2.5685  0.2762
  178SLPC   C2520301   2.973   6.483  10.221 -0.4805  0.0559 -0.0061
  178SLPC   H5R20302   2.982   6.384  10.272 -0.7603 -0.2050 -0.4556
  178SLPC   H5S20303   3.065   6.545  10.220 -0.9889  0.8374 -1.7120
  178SLPC   C2620304   2.959   6.438  10.074  0.9548 -0.7116  0.9223
  178SLPC   H6R20305   2.989   6.526  10.012 -3.2398 -0.6316 -1.3985
  178SLPC   H6S20306   2.858   6.403  10.043  0.2671  1.6440  0.2530
  178SLPC   C2720307   3.056   6.327  10.034  0.3214 -0.2823 -0.2966
  178SLPC   H7R20308   3.031   6.233  10.086 -2.7281  0.3044 -0.4810
  178SLPC   H7S20309   3.161   6.347  10.064  1.3327 -1.6617 -2.6156
  178SLPC   C2820310   3.057   6.306   9.884 -0.5386  1.4197 -0.5501
  178SLPC   H8R20311   3.128   6.224   9.862 -0.9719 -0.0401  2.8735
  178SLPC   H8S20312   3.114   6.386   9.833  2.1057  0.0156  0.0455
  178SLPC   C2920313   2.926   6.274   9.816  0.5981  0.2558 -0.4649
  178SLPC   H9R20314   2.871   6.181   9.837  0.3066  0.1775 -1.5268
  178SLPC  C21020315   2.863   6.357   9.738  0.3024  0.2620 -0.7058
  178SLPC  H10R20316   2.768   6.322   9.696  0.2535 -1.0590  0.4461
  178SLPC  C21120317   2.904   6.495   9.691  0.2731  0.2225  0.2445
  178SLPC  H11R20318   2.995   6.502   9.627 -0.2957  2.7408 -0.4154
  178SLPC  H11S20319   2.915   6.556   9.783  0.1916  1.8744 -0.7956
  178SLPC  C21220320   2.798   6.573   9.611 -0.2696  0.4838  0.2138
  178SLPC  H12R20321   2.752   6.663   9.655 -2.8140 -0.4631 -0.3623
  178SLPC  C21320322   2.774   6.546   9.479  0.1523 -1.1164  0.2404
  178SLPC  H13R20323   2.696   6.591   9.417 -0.2906 -1.4176  0.5702
  178SLPC  C21420324   2.838   6.439   9.394 -0.3185 -0.0276 -0.4622
  178SLPC  H14R20325   2.762   6.376   9.344  0.7634 -1.8317  0.0727
  178SLPC  H14S20326   2.895   6.366   9.455 -1.2373  1.2789  2.1063
  178SLPC  C21520327   2.940   6.492   9.285  0.0840 -0.2368  0.2462
  178SLPC  H15R20328   3.012   6.409   9.267 -0.9182 -0.7298 -1.7179
  178SLPC  H15S20329   2.999   6.578   9.323  1.5895 -0.5046 -1.3314
  178SLPC  C21620330   2.883   6.529   9.147 -0.4527  0.4112  0.1099
  178SLPC  H16R20331   2.799   6.596   9.175 -0.1633  0.2560  1.4399
  178SLPC  H16S20332   2.840   6.444   9.091 -1.6973 -0.6485  2.5177
  178SLPC  C21720333   2.992   6.590   9.057 -0.2000  0.0592 -0.6367
  178SLPC  H17R20334   3.066   6.511   9.031  0.0940  0.2778 -0.4663
  178SLPC  H17S20335   3.037   6.674   9.113 -1.8733  1.1056 -0.8104
  178SLPC  C21820336   2.935   6.646   8.926 -0.2369 -0.3554  0.3884
  178SLPC  H18R20337   2.872   6.568   8.879  2.0882 -1.5544 -0.9367
  178SLPC  H18S20338   3.016   6.670   8.854 -0.3768  0.9110  0.6377
  178SLPC  H18T20339   2.886   6.741   8.954 -0.1258 -0.7190  1.9151
  178SLPC   C3320340   2.300   6.266  10.516 -0.1559 -0.4137  0.5009
  178SLPC   H3X20341   2.328   6.182  10.584 -0.8857 -3.2777 -2.4662
  178SLPC   H3Y20342   2.290   6.225  10.413  1.1553 -0.4817  0.3844
  178SLPC   C3420343   2.163   6.304  10.563  0.0319  0.1719 -0.0615
  178SLPC   H4X20344   2.117   6.403  10.541 -0.6793  0.0460  0.8230
  178SLPC   H4Y20345   2.168   6.302  10.674  0.4978 -1.2566 -0.0961
  178SLPC   C3520346   2.056   6.197  10.536 -0.2265  0.0415 -0.1383
  178SLPC   H5X20347   1.967   6.214  10.600 -0.3570  0.1814 -0.3575
  178SLPC   H5Y20348   2.098   6.096  10.560 -0.6281 -0.1656 -0.3087
  178SLPC   C3620349   2.004   6.201  10.394  0.6764  0.4475 -1.0852
  178SLPC   H6X20350   2.087   6.201  10.321  1.4606 -0.9433 -0.2274
  178SLPC   H6Y20351   1.941   6.293  10.386  0.1507 -0.0180 -2.9101
  178SLPC   C3720352   1.916   6.086  10.363 -0.3469  0.3931 -0.2705
  178SLPC   H7X20353   1.818   6.097  10.413 -0.6406  2.7268 -1.2298
  178SLPC   H7Y20354   1.969   5.989  10.371 -0.2020  0.6204  2.3003
  178SLPC   C3820355   1.868   6.100  10.213 -0.0835 -0.1576  0.3349
  178SLPC   H8X20356   1.813   6.196  10.223 -2.8004 -1.7205  1.4587
  178SLPC   H8Y20357   1.796   6.017  10.196 -0.7020  0.5161 -0.4297
  178SLPC   C3920358   1.973   6.099  10.102 -0.4944 -0.0434 -0.1301
  178SLPC   H9X20359   2.042   6.013  10.121 -1.5492 -1.2784 -1.5852
  178SLPC   H9Y20360   2.031   6.194  10.098  0.2292 -0.4478  0.4592
  178SLPC  C31020361   1.917   6.061   9.963  0.2263 -0.1224  0.8715
  178SLPC  H10X20362   1.863   6.147   9.918  0.7724 -0.6559 -0.8757
  178SLPC  H10Y20363   1.843   5.978   9.971 -0.9477  0.4728 -2.3948
  178SLPC  C31120364   2.026   6.010   9.865 -0.3868  0.1937 -0.1021
  178SLPC  H11X20365   2.112   5.958   9.913  1.6875  0.9725 -2.7518
  178SLPC  H11Y20366   2.082   6.099   9.829  1.9632 -1.2938 -0.3469
  178SLPC  C31220367   1.984   5.918   9.749  0.0708  0.0988 -0.0567
  178SLPC  H12X20368   1.912   5.964   9.679 -1.5631 -0.6639  1.0588
  178SLPC  H12Y20369   1.935   5.830   9.797  2.3232 -0.1588  2.0058
  178SLPC  C31320370   2.109   5.865   9.664 -0.0288  0.0446  0.2119
  178SLPC  H13X20371   2.184   5.823   9.734  0.3542 -1.2384 -0.9355
  178SLPC  H13Y20372   2.155   5.953   9.615 -0.5322 -0.8357 -1.9548
  178SLPC  C31420373   2.070   5.764   9.555 -0.0950 -0.5802  0.0576
  178SLPC  H14X20374   1.963   5.735   9.570 -0.7568  2.0211  0.8039
  178SLPC  H14Y20375   2.136   5.675   9.561  1.0653  0.3612  2.7871
  178SLPC  C31520376   2.076   5.819   9.411  0.1225 -0.2606 -0.2263
  178SLPC  H15X20377   2.016   5.912   9.416 -0.2667 -0.1587 -4.0542
  178SLPC  H15Y20378   2.181   5.851   9.394  0.4059  0.0659  1.8542
  178SLPC  C31620379   2.017   5.715   9.308 -0.3662  0.3936  0.4181
  178SLPC  H16X20380   1.931   5.674   9.365 -0.1187  0.5416  0.9069
  178SLPC  H16Y20381   2.096   5.640   9.286 -1.2988 -0.1841 -1.0538
  178SLPC  C31720382   1.963   5.786   9.185  0.2417 -0.3129  0.3774
  178SLPC  H17X20383   2.046   5.829   9.125  0.0025  0.2228  0.4252
  178SLPC  H17Y20384   1.896   5.864   9.226 -0.6336 -1.1713  0.6138
  178SLPC  C31820385   1.878   5.698   9.095 -0.0200  0.6882 -0.6461
  178SLPC  H18X20386   1.946   5.611   9.083  0.4103  0.9897 -0.4378
  178SLPC  H18Y20387   1.861   5.747   8.997 -2.3612  3.1688  0.8572
  178SLPC  H18Z20388   1.785   5.662   9.143  1.6712 -0.9641  1.5999
  179SLPC     N20389   5.613   3.414  10.367 -0.1279 -1.1121 -0.0267
  179SLPC   C1320390   5.532   3.531  10.314 -0.3114 -0.1292 -0.1790
  179SLPC  H13A20391   5.575   3.575  10.225 -1.0810  1.8619  0.3701
  179SLPC  H13B20392   5.434   3.496  10.285 -1.2061  0.8666  1.4949
  179SLPC  H13C20393   5.511   3.619  10.373 -2.1612 -2.7201  3.3833
  179SLPC   C1420394   5.629   3.304  10.256  0.1060 -0.0145 -0.0669
  179SLPC  H14A20395   5.533   3.260  10.237 -0.2474  0.1856  1.1305
  179SLPC  H14B20396   5.668   3.355  10.169 -1.1194 -0.5018 -0.9126
  179SLPC  H14C20397   5.699   3.227  10.286  1.2430  0.1183 -2.1654
  179SLPC   C1520398   5.547   3.364  10.489  0.5767 -0.5442 -0.8251
  179SLPC  H15A20399   5.451   3.318  10.471  0.5550 -0.3706 -1.1591
  179SLPC  H15B20400   5.612   3.293  10.538 -1.2964 -1.8177 -0.0711
  179SLPC  H15C20401   5.531   3.447  10.556 -0.5672 -1.9682  0.7490
  179SLPC   C1220402   5.750   3.457  10.408 -0.1531  0.5014  0.2896
  179SLPC  H12A20403   5.801   3.370  10.449 -4.7423 -2.4247  0.5294
  179SLPC  H12B20404   5.751   3.530  10.487  2.6313  0.8364  0.0488
  179SLPC   C1120405   5.848   3.515  10.298  0.5402  0.4538 -0.5312
  179SLPC  H11A20406   5.937   3.551  10.353  1.4704  0.7487 -2.1594
  179SLPC  H11B20407   5.806   3.606  10.251 -2.6824 -1.0447 -0.8608
  179SLPC     P20408   5.993   3.309  10.240  0.2350 -0.3280  0.3261
  179SLPC   O1320409   6.132   3.367  10.252 -0.2663 -0.0850  0.4354
  179SLPC   O1420410   5.948   3.252  10.369  0.6589 -0.4218 -0.0313
  179SLPC   O1220411   5.888   3.419  10.204 -0.2924  0.0951 -0.0279
  179SLPC   O1120412   5.982   3.196  10.133 -0.6719 -0.2419  0.0836
  179SLPC    C120413   5.887   3.196  10.029 -0.5019 -0.0875 -0.4363
  179SLPC    HA20414   5.894   3.100   9.973 -0.1817  0.4581 -1.3617
  179SLPC    HB20415   5.785   3.206  10.071  0.1858  1.0450  1.0588
  179SLPC    C220416   5.908   3.295   9.905  0.6509 -0.1479  0.4537
  179SLPC    HS20417   5.917   3.233   9.813 -2.7893 -1.3925  0.7837
  179SLPC   O2120418   6.018   3.383   9.926  0.3231 -0.5081 -0.0035
  179SLPC   C2120419   6.134   3.326   9.915  0.0376  0.7837 -0.3796
  179SLPC   O2220420   6.162   3.213   9.896 -0.5063 -0.2010  0.3418
  179SLPC   C2220421   6.241   3.438   9.923 -0.1392  0.0710 -0.4844
  179SLPC   H2R20422   6.207   3.521   9.989 -0.4951  0.7445 -1.4906
  179SLPC   H2S20423   6.337   3.396   9.960  0.0023  1.0286  0.2956
  179SLPC    C320424   5.788   3.391   9.879 -0.8380 -0.0385  0.3196
  179SLPC    HX20425   5.820   3.457   9.795  2.0176 -0.7819  0.7170
  179SLPC    HY20426   5.782   3.448   9.974 -3.1632 -0.6251  0.5992
  179SLPC   O3120427   5.667   3.321   9.856  0.0264  0.1428  0.1124
  179SLPC   C3120428   5.646   3.295   9.726 -0.0828 -0.6175 -0.3669
  179SLPC   O3220429   5.736   3.301   9.646  0.2891  0.1938 -0.2238
  179SLPC   C3220430   5.503   3.261   9.694 -0.4300  0.5396  0.1194
  179SLPC   H2X20431   5.448   3.255   9.790  2.1466 -3.6442  1.6116
  179SLPC   H2Y20432   5.502   3.159   9.652 -1.5808  0.3722  0.5117
  179SLPC   C2320433   6.274   3.506   9.785  0.1511 -0.2387  1.0590
  179SLPC   H3R20434   6.333   3.600   9.791 -0.2293 -0.0546  2.2996
  179SLPC   H3S20435   6.180   3.529   9.732  0.2367 -2.0257  0.0622
  179SLPC   C2420436   6.365   3.411   9.699  0.0726 -0.6160  0.3059
  179SLPC   H4R20437   6.326   3.307   9.709  2.4698 -1.4004  2.6999
  179SLPC   H4S20438   6.468   3.406   9.741  0.3160 -2.3914 -0.3825
  179SLPC   C2520439   6.375   3.432   9.548 -0.5064  0.8346  0.3667
  179SLPC   H5R20440   6.275   3.434   9.501  0.9938  1.7314 -3.1382
  179SLPC   H5S20441   6.426   3.340   9.511  0.3682  2.2852 -2.3786
  179SLPC   C2620442   6.438   3.561   9.502 -0.2985 -0.1460 -0.1350
  179SLPC   H6R20443   6.497   3.595   9.590 -0.0166  0.1092 -0.4241
  179SLPC   H6S20444   6.362   3.638   9.476 -0.6140  0.2287  1.6956
  179SLPC   C2720445   6.553   3.547   9.399  0.2873 -0.1995  0.3525
  179SLPC   H7R20446   6.625   3.477   9.446 -0.6057 -1.7353 -0.4946
  179SLPC   H7S20447   6.608   3.633   9.357 -0.3529 -0.2217 -0.5542
  179SLPC   C2820448   6.516   3.468   9.271  0.3910  0.5209  0.1552
  179SLPC   H8R20449   6.485   3.365   9.298 -0.7968  0.4564 -1.3256
  179SLPC   H8S20450   6.614   3.455   9.221  0.1905 -0.3075 -0.0313
  179SLPC   C2920451   6.421   3.540   9.179  0.5918  0.6109 -0.1160
  179SLPC   H9R20452   6.333   3.567   9.239  1.2068 -0.7561  1.4716
  179SLPC  C21020453   6.427   3.566   9.049 -0.1839  0.8096 -0.0507
  179SLPC  H10R20454   6.350   3.622   8.995 -0.3580  0.1620 -0.4942
  179SLPC  C21120455   6.549   3.538   8.960 -0.2371 -0.7694  0.5461
  179SLPC  H11R20456   6.537   3.443   8.903 -2.2120 -0.5251  0.5173
  179SLPC  H11S20457   6.640   3.522   9.022  0.9877 -2.9052 -1.6038
  179SLPC  C21220458   6.576   3.636   8.850 -0.4959  0.1956  1.1378
  179SLPC  H12R20459   6.633   3.715   8.902 -2.1908  0.6039  2.4695
  179SLPC  C21320460   6.547   3.646   8.712  0.4921  0.1739  0.1214
  179SLPC  H13R20461   6.566   3.739   8.658 -1.7483  1.0048  0.6681
  179SLPC  C21420462   6.465   3.543   8.633  0.2275 -0.4889  0.8752
  179SLPC  H14R20463   6.508   3.443   8.652 -0.3064 -0.9453 -0.1847
  179SLPC  H14S20464   6.469   3.565   8.524 -1.0900  0.6481  1.0168
  179SLPC  C21520465   6.316   3.531   8.668  0.2134  0.4627 -0.4243
  179SLPC  H15R20466   6.272   3.632   8.657  1.0069  0.7263 -1.3932
  179SLPC  H15S20467   6.306   3.486   8.769  1.8944 -1.9104 -1.2170
  179SLPC  C21620468   6.236   3.454   8.567 -0.3550  0.0321 -0.0790
  179SLPC  H16R20469   6.269   3.348   8.561  2.7491  0.8848  0.2576
  179SLPC  H16S20470   6.263   3.486   8.464  1.0078 -0.4818  0.0959
  179SLPC  C21720471   6.090   3.458   8.592  0.5281 -0.1426  0.3979
  179SLPC  H17R20472   6.045   3.559   8.599 -1.5446 -1.0155  0.4523
  179SLPC  H17S20473   6.073   3.414   8.693  1.8776  0.5997  0.9645
  179SLPC  C21820474   6.032   3.384   8.465  0.1128  0.3259 -0.5802
  179SLPC  H18R20475   6.082   3.422   8.374  0.4801  0.4827 -0.3165
  179SLPC  H18S20476   5.923   3.390   8.443  0.4078 -2.0635 -3.2747
  179SLPC  H18T20477   6.058   3.276   8.472 -2.8648 -0.4491  0.1105
  179SLPC   C3320478   5.445   3.358   9.596 -0.1058 -0.2983  0.1383
  179SLPC   H3X20479   5.479   3.461   9.623  1.9545 -0.6678 -0.8542
  179SLPC   H3Y20480   5.334   3.362   9.602 -0.1528 -1.6167  0.4497
  179SLPC   C3420481   5.479   3.332   9.444  0.2310 -0.5785 -0.5485
  179SLPC   H4X20482   5.414   3.248   9.412  0.6158 -0.4568 -1.7092
  179SLPC   H4Y20483   5.582   3.290   9.445  0.2149 -0.6194  0.4320
  179SLPC   C3520484   5.470   3.456   9.351 -0.0443 -0.3818 -0.4269
  179SLPC   H5X20485   5.546   3.529   9.384 -0.6941 -0.1622  0.6290
  179SLPC   H5Y20486   5.368   3.499   9.359  0.0067 -0.2131 -0.6747
  179SLPC   C3620487   5.486   3.429   9.202 -0.6201 -0.1450  0.3608
  179SLPC   H6X20488   5.417   3.348   9.169 -2.1775  0.9525  0.8252
  179SLPC   H6Y20489   5.586   3.381   9.202 -1.9973 -3.2560  0.3082
  179SLPC   C3720490   5.433   3.545   9.116  0.3276 -0.0940  0.6879
  179SLPC   H7X20491   5.442   3.639   9.174 -2.2751 -0.3469  1.6442
  179SLPC   H7Y20492   5.328   3.532   9.081  1.3187 -0.5812 -2.3642
  179SLPC   C3820493   5.515   3.561   8.986 -0.1438 -0.0357 -0.9357
  179SLPC   H8X20494   5.621   3.542   9.013 -0.9948 -3.5520  0.5615
  179SLPC   H8Y20495   5.496   3.662   8.944  1.7848  1.1558  0.8845
  179SLPC   C3920496   5.493   3.453   8.880  0.2647 -0.4245 -0.1162
  179SLPC   H9X20497   5.386   3.464   8.850  0.3714  0.2028 -0.2738
  179SLPC   H9Y20498   5.507   3.352   8.923 -0.9147 -1.3795 -1.8626
  179SLPC  C31020499   5.594   3.461   8.763 -0.4293 -0.4556 -0.0003
  179SLPC  H10X20500   5.693   3.449   8.811  0.6769  1.0368 -1.7887
  179SLPC  H10Y20501   5.594   3.568   8.731  0.3487 -0.2310  0.7092
  179SLPC  C31120502   5.568   3.356   8.648 -0.0515  0.6795  0.0256
  179SLPC  H11X20503   5.589   3.408   8.552  0.9724  0.4894  0.1334
  179SLPC  H11Y20504   5.464   3.317   8.656 -0.2445  0.6278 -2.1600
  179SLPC  C31220505   5.677   3.254   8.649 -0.4559  0.1334  0.4236
  179SLPC  H12X20506   5.662   3.192   8.739 -1.6535  0.9980  0.8478
  179SLPC  H12Y20507   5.776   3.304   8.652 -0.2060 -0.4000  1.7648
  179SLPC  C31320508   5.690   3.151   8.531  0.5192 -0.4281 -0.6502
  179SLPC  H13X20509   5.786   3.095   8.529  1.6287  1.3591 -0.2359
  179SLPC  H13Y20510   5.675   3.201   8.433 -1.5865  1.8392  0.7039
  179SLPC  C31420511   5.572   3.054   8.541  0.1142 -0.9724 -1.4627
  179SLPC  H14X20512   5.515   3.081   8.633  2.8917  0.1872  0.0202
  179SLPC  H14Y20513   5.617   2.956   8.566 -0.9288 -0.9113  0.9359
  179SLPC  C31520514   5.484   3.034   8.417  0.4516 -0.2942 -0.9234
  179SLPC  H15X20515   5.543   3.038   8.323 -0.8183  0.1992 -1.7090
  179SLPC  H15Y20516   5.405   3.112   8.418  1.0270  0.3109 -1.3908
  179SLPC  C31620517   5.412   2.893   8.419  0.5682 -0.0034  0.3236
  179SLPC  H16X20518   5.368   2.901   8.521  2.2038  2.9461  0.9212
  179SLPC  H16Y20519   5.487   2.812   8.409 -1.8136 -2.1150 -1.7518
  179SLPC  C31720520   5.301   2.875   8.313  0.4779  0.9959 -0.7797
  179SLPC  H17X20521   5.286   2.767   8.295  2.5538  0.3740  0.8734
  179SLPC  H17Y20522   5.321   2.919   8.213  0.4583 -0.0236 -1.2371
  179SLPC  C31820523   5.158   2.917   8.362 -0.3974 -0.3999 -0.1941
  179SLPC  H18X20524   5.097   2.868   8.283  2.5091 -1.0964 -2.1908
  179SLPC  H18Y20525   5.135   3.025   8.347 -3.8922 -1.2470 -2.1071
  179SLPC  H18Z20526   5.126   2.883   8.462 -0.3607 -0.9686 -0.3730
  180SLPC     N20527   5.147   1.107  10.664  0.2597  0.5614 -0.4739
  180SLPC   C1320528   5.226   1.190  10.574 -0.7419 -0.1312  0.2837
  180SLPC  H13A20529   5.281   1.271  10.619 -1.5289  1.0867 -0.8874
  180SLPC  H13B20530   5.296   1.133  10.515  1.4772  2.3262  0.3819
  180SLPC  H13C20531   5.159   1.235  10.502 -0.7927  0.3282  0.6134
  180SLPC   C1420532   5.085   1.201  10.760 -0.0072 -0.5544  0.1422
  180SLPC  H14A20533   5.020   1.261  10.699 -0.8135 -1.5606 -0.0039
  180SLPC  H14B20534   5.027   1.151  10.836 -2.9304  1.8183 -0.3505
  180SLPC  H14C20535   5.159   1.262  10.809  0.8157 -0.1398 -1.5286
  180SLPC   C1520536   5.235   1.015  10.739  0.0632 -0.3705 -0.1143
  180SLPC  H15A20537   5.307   0.969  10.673  0.5467  0.5355 -0.2361
  180SLPC  H15B20538   5.294   1.062  10.817  2.5651 -1.4001 -1.2635
  180SLPC  H15C20539   5.177   0.942  10.792  0.8907  0.4860  2.0835
  180SLPC   C1220540   5.039   1.029  10.591 -0.2455 -1.0950  0.6704
  180SLPC  H12A20541   4.974   1.095  10.536 -1.6295 -2.2551  0.8511
  180SLPC  H12B20542   4.967   0.995  10.664 -0.5625  1.1034  1.4423
  180SLPC   C1120543   5.075   0.915  10.491 -0.0499 -0.2412  0.1152
  180SLPC  H11A20544   5.153   0.939  10.416  2.9447 -4.5412  1.5038
  180SLPC  H11B20545   4.981   0.900  10.434 -0.6760  0.0845  1.0382
  180SLPC     P20546   5.009   0.704  10.642  0.2032 -0.0589  0.2525
  180SLPC   O1320547   5.075   0.663  10.767 -0.4731  0.1397 -0.2897
  180SLPC   O1420548   4.876   0.762  10.649 -0.5701 -0.4368  0.8253
  180SLPC   O1220549   5.109   0.795  10.563 -0.2720  0.1304  0.1772
  180SLPC   O1120550   5.006   0.578  10.553  0.7560 -0.6478 -0.3053
  180SLPC    C120551   5.123   0.537  10.470  0.4570  0.0560 -0.6605
  180SLPC    HA20552   5.211   0.595  10.506 -1.6206  1.9937  1.6944
  180SLPC    HB20553   5.142   0.430  10.492 -2.8044 -1.1923 -3.0132
  180SLPC    C220554   5.105   0.571  10.320  0.3497 -0.0485  0.4423
  180SLPC    HS20555   5.104   0.680  10.300  0.3100 -0.4594 -2.2305
  180SLPC   O2120556   4.986   0.507  10.268 -0.2389  0.1971  0.5952
  180SLPC   C2120557   4.875   0.577  10.268  0.9063 -0.9786  0.9440
  180SLPC   O2220558   4.871   0.694  10.305  0.0082  0.4440  0.4454
  180SLPC   C2220559   4.754   0.498  10.198 -0.2754 -0.3748  0.1241
  180SLPC   H2R20560   4.800   0.409  10.151 -0.2087 -0.9901  1.3222
  180SLPC   H2S20561   4.686   0.453  10.273 -1.4974  0.4051 -0.4896
  180SLPC    C320562   5.217   0.501  10.241  0.9854  0.8648 -0.2900
  180SLPC    HX20563   5.236   0.395  10.270  0.9821  0.9150 -0.1010
  180SLPC    HY20564   5.299   0.573  10.262  0.5244  1.4787 -0.5658
  180SLPC   O3120565   5.191   0.510  10.099 -0.0917 -0.3110  1.2982
  180SLPC   C3120566   5.286   0.545  10.018 -0.2191 -0.5860  0.4116
  180SLPC   O3220567   5.407   0.558  10.044 -0.9627 -0.3550  0.3612
  180SLPC   C3220568   5.226   0.558   9.879  0.8571  0.4890 -0.8330
  180SLPC   H2X20569   5.133   0.616   9.893  0.3793 -0.3142 -0.6313
  180SLPC   H2Y20570   5.196   0.458   9.840 -0.0916  1.3402 -2.3968
  180SLPC   C2320571   4.685   0.605  10.100 -0.2666  0.4343  0.3841
  180SLPC   H3R20572   4.655   0.697  10.154 -0.3433 -0.0394  1.1772
  180SLPC   H3S20573   4.593   0.551  10.071  0.7223  0.7832 -4.0799
  180SLPC   C2420574   4.778   0.626   9.978  0.1812  0.2133  0.3566
  180SLPC   H4R20575   4.802   0.524   9.942 -3.1392 -0.3045 -0.8002
  180SLPC   H4S20576   4.870   0.679  10.009 -0.3199  2.1937 -1.2830
  180SLPC   C2520577   4.712   0.715   9.865  0.3313  0.4016 -0.3416
  180SLPC   H5R20578   4.683   0.810   9.915  1.7269  0.4173  0.5174
  180SLPC   H5S20579   4.618   0.668   9.828  0.8148  0.2459 -1.4080
  180SLPC   C2620580   4.810   0.746   9.750  0.3655 -0.7596 -0.9557
  180SLPC   H6R20581   4.851   0.654   9.703  1.4456 -1.0852  0.5482
  180SLPC   H6S20582   4.899   0.795   9.796 -0.8225  1.5905 -1.0556
  180SLPC   C2720583   4.751   0.836   9.639 -0.3657  0.2383 -0.2398
  180SLPC   H7R20584   4.689   0.917   9.683 -0.2848 -0.7105  1.6998
  180SLPC   H7S20585   4.692   0.769   9.572  1.8593 -0.1943 -1.8982
  180SLPC   C2820586   4.860   0.914   9.561 -0.8924 -0.2891 -0.1590
  180SLPC   H8R20587   4.943   0.847   9.529  2.3628  3.8395 -1.3378
  180SLPC   H8S20588   4.900   0.994   9.628  1.1897  0.6409 -2.3664
  180SLPC   C2920589   4.796   0.993   9.456  0.1573 -0.6910 -0.2796
  180SLPC   H9R20590   4.714   1.049   9.503 -0.5444 -1.6822 -0.2854
  180SLPC  C21020591   4.831   1.008   9.327  0.0674  0.3944  0.3683
  180SLPC  H10R20592   4.773   1.082   9.269  2.0610  2.9268  1.4136
  180SLPC  C21120593   4.940   0.940   9.249 -0.4592  0.3375 -0.3266
  180SLPC  H11R20594   4.961   0.834   9.272  1.8751  0.1947 -2.6840
  180SLPC  H11S20595   5.031   1.001   9.269  0.1810 -1.1530  1.6393
  180SLPC  C21220596   4.900   0.953   9.104  0.8769  1.0465 -0.3513
  180SLPC  H12R20597   4.803   0.906   9.083  1.4791 -0.7523  0.7330
  180SLPC  C21320598   4.962   1.013   9.000 -0.3447 -0.3273 -1.1449
  180SLPC  H13R20599   4.934   0.997   8.895  1.6200  0.8383 -1.9097
  180SLPC  C21420600   5.094   1.079   9.012 -0.4176 -0.3471 -0.1906
  180SLPC  H14R20601   5.167   1.032   8.943 -1.7385 -0.5313 -1.5132
  180SLPC  H14S20602   5.129   1.089   9.117 -1.4426  2.4594 -0.0432
  180SLPC  C21520603   5.084   1.228   8.969  0.7557 -0.2091 -0.5533
  180SLPC  H15R20604   5.032   1.244   8.872 -1.1755  1.2675  0.6695
  180SLPC  H15S20605   5.187   1.268   8.954  1.0862 -0.2932  1.2719
  180SLPC  C21620606   5.026   1.321   9.070  0.9701 -0.0771 -0.4757
  180SLPC  H16R20607   5.094   1.323   9.159 -0.6515 -2.3454  0.9336
  180SLPC  H16S20608   4.930   1.285   9.112  0.9212 -0.4874 -0.9292
  180SLPC  C21720609   5.016   1.463   9.014 -0.0590  0.1323  0.2792
  180SLPC  H17R20610   4.932   1.468   8.942 -0.3541  2.5394  0.6979
  180SLPC  H17S20611   5.100   1.487   8.946 -0.5287  1.0612  0.0076
  180SLPC  C21820612   4.983   1.576   9.113 -0.0815  0.7497  0.5882
  180SLPC  H18R20613   4.962   1.666   9.052  2.3167 -1.0217 -3.2624
  180SLPC  H18S20614   5.069   1.588   9.182  1.2580 -1.7265 -0.5249
  180SLPC  H18T20615   4.898   1.542   9.177  1.3850  0.9913  2.7733
  180SLPC   C3320616   5.311   0.638   9.780  1.0823 -0.6352  0.7993
  180SLPC   H3X20617   5.419   0.615   9.787  1.4244  0.4896 -0.4012
  180SLPC   H3Y20618   5.288   0.745   9.796 -0.3902 -0.7800 -0.1712
  180SLPC   C3420619   5.274   0.606   9.632  0.3602  0.1394  1.0569
  180SLPC   H4X20620   5.292   0.499   9.608  1.3608  1.1243 -3.3670
  180SLPC   H4Y20621   5.328   0.677   9.565 -1.9963  1.2603  0.2257
  180SLPC   C3520622   5.129   0.643   9.603  0.7249 -0.2669 -0.3073
  180SLPC   H5X20623   5.100   0.737   9.654 -0.7306 -1.4232  1.1322
  180SLPC   H5Y20624   5.067   0.573   9.664 -1.0906  0.2495 -1.4623
  180SLPC   C3620625   5.079   0.637   9.454  0.2016 -0.0199  0.2002
  180SLPC   H6X20626   5.123   0.724   9.401  0.9381  0.7289  1.9616
  180SLPC   H6Y20627   4.969   0.651   9.452  0.2900  1.6761  2.9430
  180SLPC   C3720628   5.112   0.506   9.384 -0.6646 -0.2618  0.3171
  180SLPC   H7X20629   5.047   0.425   9.423 -0.3573 -1.3563 -1.3737
  180SLPC   H7Y20630   5.213   0.464   9.401 -0.9027 -1.2552 -0.5873
  180SLPC   C3820631   5.091   0.490   9.227  0.3643 -0.4371  0.0132
  180SLPC   H8X20632   4.983   0.511   9.208  1.0836  3.1851 -0.7340
  180SLPC   H8Y20633   5.122   0.389   9.194 -2.3965 -0.7757 -1.8650
  180SLPC   C3920634   5.180   0.599   9.155 -0.3067 -0.3997  0.5184
  180SLPC   H9X20635   5.286   0.583   9.183 -0.1570  0.9905  0.8143
  180SLPC   H9Y20636   5.153   0.697   9.199 -0.1095 -0.7541  1.4392
  180SLPC  C31020637   5.158   0.602   9.004 -0.6663  0.4277 -0.6740
  180SLPC  H10X20638   5.054   0.627   8.973 -0.4951  0.0302 -1.5747
  180SLPC  H10Y20639   5.165   0.496   8.974  1.9897  0.1540  0.6127
  180SLPC  C31120640   5.246   0.702   8.925 -0.1035 -0.2079 -0.2320
  180SLPC  H11X20641   5.354   0.675   8.936  0.0061 -0.8111 -2.4173
  180SLPC  H11Y20642   5.223   0.808   8.950 -2.4463 -0.8534  0.6416
  180SLPC  C31220643   5.218   0.703   8.771  0.5661 -0.0286 -0.0463
  180SLPC  H12X20644   5.289   0.779   8.732  1.9633 -0.4169  1.6006
  180SLPC  H12Y20645   5.112   0.735   8.768 -0.2678 -2.4900 -2.8768
  180SLPC  C31320646   5.238   0.562   8.702  0.1272  0.0196 -0.1339
  180SLPC  H13X20647   5.181   0.479   8.749 -0.3636 -0.8883 -2.2113
  180SLPC  H13Y20648   5.345   0.533   8.716 -0.5300 -1.8665  1.4871
  180SLPC  C31420649   5.183   0.544   8.563 -0.4509  0.5354  0.3274
  180SLPC  H14X20650   5.238   0.610   8.493  0.7052 -2.2940 -1.6704
  180SLPC  H14Y20651   5.074   0.567   8.571 -0.5943  0.1585 -0.3962
  180SLPC  C31520652   5.206   0.402   8.495 -0.0903 -0.0308 -0.6563
  180SLPC  H15X20653   5.149   0.397   8.400  0.4346  0.3998 -0.9973
  180SLPC  H15Y20654   5.170   0.324   8.566 -2.3023  1.4538 -0.0737
  180SLPC  C31620655   5.354   0.371   8.478 -0.1679  0.0488  0.0610
  180SLPC  H16X20656   5.416   0.375   8.571 -0.3022 -1.1678  0.2163
  180SLPC  H16Y20657   5.399   0.442   8.405 -0.2125  0.1303  0.1119
  180SLPC  C31720658   5.380   0.229   8.413 -0.0920 -0.5139 -0.2556
  180SLPC  H17X20659   5.486   0.200   8.427  0.1187  0.3597 -0.0001
  180SLPC  H17Y20660   5.358   0.248   8.306 -1.3269  3.1674  0.5069
  180SLPC  C31820661   5.290   0.115   8.465 -0.8426 -0.1500  0.2625
  180SLPC  H18X20662   5.187   0.120   8.424 -0.2957  2.2163 -1.0406
  180SLPC  H18Y20663   5.292   0.117   8.576  1.5600 -1.4633  0.3200
  180SLPC  H18Z20664   5.332   0.019   8.427 -2.7975  0.2048 -3.2249
  181SLPC     N20665   1.171   3.572  10.683  0.2385 -0.0935 -0.3132
  181SLPC   C1320666   1.089   3.474  10.766 -0.0570 -0.2706  0.4008
  181SLPC  H13A20667   1.147   3.438  10.849  1.3666 -1.1714 -0.9312
  181SLPC  H13B20668   1.002   3.529  10.801 -2.8607 -2.3883 -2.5888
  181SLPC  H13C20669   1.044   3.394  10.709 -0.9782  1.5865 -1.6743
  181SLPC   C1420670   1.107   3.590  10.557  0.5192 -0.6504  0.5238
  181SLPC  H14A20671   1.162   3.643  10.481 -0.8654  0.8274  0.4884
  181SLPC  H14B20672   1.075   3.495  10.518  1.4743  0.1648 -2.4988
  181SLPC  H14C20673   1.010   3.636  10.570  2.1822  3.1201  0.8197
  181SLPC   C1520674   1.302   3.513  10.664  0.1215  0.2820  0.2528
  181SLPC  H15A20675   1.363   3.525  10.752  1.0986  2.4669 -0.6377
  181SLPC  H15B20676   1.297   3.414  10.622  1.1131  0.3143  0.0106
  181SLPC  H15C20677   1.351   3.574  10.589 -2.1029  0.6756 -0.9827
  181SLPC   C1220678   1.185   3.706  10.748 -0.2199 -0.4383  0.0951
  181SLPC  H12A20679   1.089   3.756  10.748 -0.6360 -1.2244  0.1510
  181SLPC  H12B20680   1.263   3.760  10.696 -1.4674 -0.7314 -2.2182
  181SLPC   C1120681   1.228   3.706  10.901  0.1576 -0.4886  0.4192
  181SLPC  H11A20682   1.160   3.641  10.959  0.2457  0.8958  2.1550
  181SLPC  H11B20683   1.206   3.805  10.946 -2.8715 -0.9293  0.1376
  181SLPC     P20684   1.476   3.757  10.884 -0.3276 -0.0207 -0.4276
  181SLPC   O1320685   1.471   3.864  10.996 -0.5583  0.4347  0.6034
  181SLPC   O1420686   1.603   3.678  10.881  0.6597 -0.6618 -0.5131
  181SLPC   O1220687   1.361   3.659  10.921  0.4183 -0.0958  0.2074
  181SLPC   O1120688   1.431   3.823  10.747 -0.6592  0.0407  0.1196
  181SLPC    C120689   1.429   3.964  10.732 -0.1439  0.1313 -0.1363
  181SLPC    HA20690   1.341   4.007  10.785 -1.0508  0.4188 -1.8172
  181SLPC    HB20691   1.531   4.004  10.752 -0.5677  2.2169 -1.7554
  181SLPC    C220692   1.389   3.991  10.587  0.6254 -0.3952 -0.4595
  181SLPC    HS20693   1.288   3.948  10.567  0.3361 -0.9362  1.8546
  181SLPC   O2120694   1.495   3.953  10.501  0.5319 -0.2040  0.3158
  181SLPC   C2120695   1.470   3.832  10.445 -0.0790 -0.3352  0.8863
  181SLPC   O2220696   1.387   3.750  10.468  0.3819 -0.0636 -0.4424
  181SLPC   C2220697   1.565   3.816  10.323 -0.1865  0.0317 -0.3490
  181SLPC   H2R20698   1.631   3.906  10.314  1.3165 -0.8418  1.1633
  181SLPC   H2S20699   1.616   3.718  10.338 -0.7031 -0.5652 -2.2415
  181SLPC    C320700   1.362   4.146  10.572  0.0776  0.1258 -0.9871
  181SLPC    HX20701   1.447   4.197  10.623  2.1564 -2.0030 -2.1090
  181SLPC    HY20702   1.270   4.162  10.632  0.4201  0.4148 -0.5323
  181SLPC   O3120703   1.344   4.189  10.433  0.1051  0.2741 -0.4144
  181SLPC   C3120704   1.463   4.223  10.375 -0.1131  0.5649  0.4493
  181SLPC   O3220705   1.573   4.216  10.423  0.0486  0.6565 -0.6382
  181SLPC   C3220706   1.428   4.267  10.235 -0.5040 -0.4118 -0.5469
  181SLPC   H2X20707   1.416   4.377  10.243  0.4689 -0.4288  2.1057
  181SLPC   H2Y20708   1.331   4.224  10.201 -0.8193 -0.6589  0.6441
  181SLPC   C2320709   1.471   3.807  10.199 -0.8434  0.0174 -0.6679
  181SLPC   H3R20710   1.423   3.898  10.157  2.3498  1.7842 -0.7712
  181SLPC   H3S20711   1.408   3.716  10.210 -2.3830  1.0445 -0.7446
  181SLPC   C2420712   1.554   3.760  10.073 -0.2260  0.1457  0.8896
  181SLPC   H4R20713   1.628   3.682  10.099  1.5801  1.4489 -0.1356
  181SLPC   H4S20714   1.609   3.850  10.038 -1.3313  0.5836  0.2520
  181SLPC   C2520715   1.466   3.721   9.960  0.3964  0.4013  0.4181
  181SLPC   H5R20716   1.403   3.634   9.990  1.9318 -0.6540  0.6906
  181SLPC   H5S20717   1.538   3.687   9.882  1.0832 -2.0725  2.0182
  181SLPC   C2620718   1.378   3.834   9.910 -0.5817 -0.6487 -1.3452
  181SLPC   H6R20719   1.432   3.927   9.933 -0.3188 -0.7707 -1.4637
  181SLPC   H6S20720   1.282   3.844   9.966 -0.1363  1.1572 -0.8634
  181SLPC   C2720721   1.349   3.826   9.757  0.0287  0.3369  0.1096
  181SLPC   H7R20722   1.441   3.857   9.704  1.9309 -1.3485  2.2302
  181SLPC   H7S20723   1.267   3.899   9.741 -1.4252 -1.5597 -1.6085
  181SLPC   C2820724   1.279   3.692   9.714  0.5492  0.4961  0.1500
  181SLPC   H8R20725   1.349   3.607   9.722  1.2665  0.9749 -0.7806
  181SLPC   H8S20726   1.268   3.702   9.604 -1.5604 -0.9954  0.1615
  181SLPC   C2920727   1.150   3.657   9.788  1.4343  0.2752  0.1703
  181SLPC   H9R20728   1.163   3.640   9.895  1.6239  1.3965  0.3422
  181SLPC  C21020729   1.033   3.631   9.721 -0.0124 -0.0877  0.7855
  181SLPC  H10R20730   0.949   3.600   9.784  0.3866 -0.7083  1.0208
  181SLPC  C21120731   1.019   3.643   9.573 -0.0108 -0.6916  0.4974
  181SLPC  H11R20732   1.064   3.555   9.521 -0.8380 -0.8579  0.0474
  181SLPC  H11S20733   1.068   3.737   9.540 -1.3627 -0.5032 -1.1243
  181SLPC  C21220734   0.876   3.653   9.521  0.5241 -0.9664 -1.0879
  181SLPC  H12R20735   0.856   3.749   9.471 -1.0501  0.2816  1.6732
  181SLPC  C21320736   0.780   3.558   9.536 -0.5432 -0.1928  0.5746
  181SLPC  H13R20737   0.674   3.583   9.524 -0.6484 -1.6224 -2.4158
  181SLPC  C21420738   0.801   3.417   9.601  0.2875 -0.5444 -0.0207
  181SLPC  H14R20739   0.902   3.403   9.644 -0.7210 -1.6681  2.1025
  181SLPC  H14S20740   0.788   3.350   9.513 -1.5437  1.0053 -1.0199
  181SLPC  C21520741   0.691   3.376   9.704  0.2609 -0.1386  0.1235
  181SLPC  H15R20742   0.712   3.268   9.719 -1.2551 -0.6092 -0.9200
  181SLPC  H15S20743   0.593   3.381   9.653  1.8285 -1.1431 -3.2371
  181SLPC  C21620744   0.697   3.454   9.834 -0.4103  0.3536 -0.0739
  181SLPC  H16R20745   0.641   3.549   9.825 -0.6656  0.3706  1.4629
  181SLPC  H16S20746   0.804   3.477   9.850 -0.3428  0.4719 -0.6860
  181SLPC  C21720747   0.655   3.369   9.952  0.0109 -0.0597 -0.4191
  181SLPC  H17R20748   0.680   3.432  10.040  3.0931 -0.8415 -0.6280
  181SLPC  H17S20749   0.715   3.276   9.961  0.1612  0.1386  0.7445
  181SLPC  C21820750   0.503   3.332   9.948  0.8334 -0.3449  0.2436
  181SLPC  H18R20751   0.454   3.303   9.853 -1.9527 -0.2632  1.5695
  181SLPC  H18S20752   0.438   3.415   9.981  0.5734 -0.6075  0.3996
  181SLPC  H18T20753   0.501   3.255  10.029 -0.4832 -1.5272 -0.8680
  181SLPC   C3320754   1.541   4.243  10.134 -0.4862  0.5006  0.2853
  181SLPC   H3X20755   1.565   4.138  10.107 -0.2186  0.9963 -1.5214
  181SLPC   H3Y20756   1.639   4.274  10.175  0.4713 -1.3227 -0.5162
  181SLPC   C3420757   1.523   4.327  10.010 -0.5013 -0.2612  0.2463
  181SLPC   H4X20758   1.516   4.433  10.041 -0.7643 -0.4272  0.7561
  181SLPC   H4Y20759   1.429   4.302   9.956 -0.4667  0.6418 -0.2551
  181SLPC   C3520760   1.626   4.295   9.903 -1.0178 -1.0631  0.6953
  181SLPC   H5X20761   1.610   4.198   9.851  3.9291 -0.7410 -2.0521
  181SLPC   H5Y20762   1.725   4.284   9.953  0.1957  0.2995 -1.2963
  181SLPC   C3620763   1.645   4.401   9.791  0.4097 -0.1770 -0.8447
  181SLPC   H6X20764   1.676   4.495   9.841 -0.5058  1.3400 -2.9884
  181SLPC   H6Y20765   1.540   4.419   9.759 -0.5793  0.9840  2.6025
  181SLPC   C3720766   1.749   4.371   9.680 -0.0605  0.3396  0.0012
  181SLPC   H7X20767   1.721   4.268   9.650 -2.7439  1.1263 -0.4765
  181SLPC   H7Y20768   1.850   4.368   9.725 -0.9250 -0.9933  1.9792
  181SLPC   C3820769   1.749   4.470   9.570  0.9086 -0.2353 -0.9710
  181SLPC   H8X20770   1.810   4.556   9.606  0.6672 -1.1638  1.8854
  181SLPC   H8Y20771   1.645   4.508   9.559  1.2971  1.5837  0.9733
  181SLPC   C3920772   1.793   4.416   9.429  0.2339 -0.3291 -0.1123
  181SLPC   H9X20773   1.739   4.323   9.400 -0.9598  0.8941 -2.0517
  181SLPC   H9Y20774   1.900   4.389   9.434 -0.4498 -3.2182  0.8875
  181SLPC  C31020775   1.779   4.524   9.320  0.2396 -0.1952 -0.0975
  181SLPC  H10X20776   1.842   4.611   9.350 -1.5919  0.8279  0.9428
  181SLPC  H10Y20777   1.676   4.567   9.312  0.9306  1.4322 -0.8600
  181SLPC  C31120778   1.822   4.479   9.179 -0.1833  0.7573  0.0533
  181SLPC  H11X20779   1.758   4.393   9.147  2.3298 -1.7983  1.4094
  181SLPC  H11Y20780   1.925   4.439   9.190 -0.5866 -0.3166  0.0691
  181SLPC  C31220781   1.810   4.582   9.062  0.0574  0.4031  0.2317
  181SLPC  H12X20782   1.903   4.580   9.001 -0.1143  3.2803 -0.2377
  181SLPC  H12Y20783   1.803   4.687   9.098 -3.0622  0.2783  0.2511
  181SLPC  C31320784   1.682   4.556   8.971 -0.5721 -0.1326 -0.3698
  181SLPC  H13X20785   1.697   4.461   8.917  4.1274  0.9036 -1.3495
  181SLPC  H13Y20786   1.688   4.634   8.892  1.9768 -1.8207 -1.9766
  181SLPC  C31420787   1.547   4.549   9.047 -0.5259 -0.4149 -0.1905
  181SLPC  H14X20788   1.515   4.650   9.078 -1.3985 -0.0158 -2.2643
  181SLPC  H14Y20789   1.557   4.494   9.143 -0.7275 -1.3494 -0.6912
  181SLPC  C31520790   1.438   4.487   8.948  0.4007  0.4237 -0.3125
  181SLPC  H15X20791   1.479   4.384   8.936 -0.8435 -0.2011  0.6173
  181SLPC  H15Y20792   1.440   4.541   8.851 -2.0585  2.4695  0.6757
  181SLPC  C31620793   1.295   4.473   9.007  0.8186  0.5201 -0.4238
  181SLPC  H16X20794   1.228   4.428   8.931  1.3354 -1.8189  0.4337
  181SLPC  H16Y20795   1.253   4.571   9.040 -0.0955 -0.2494  0.8122
  181SLPC  C31720796   1.278   4.391   9.133 -0.2684  0.0059 -0.0103
  181SLPC  H17X20797   1.350   4.425   9.210 -0.1274 -1.5704  0.6032
  181SLPC  H17Y20798   1.308   4.287   9.105  4.7432  0.9296  1.0340
  181SLPC  C31820799   1.131   4.397   9.188 -0.3389  0.8224 -0.3548
  181SLPC  H18X20800   1.062   4.331   9.132  0.9859 -2.0623  1.1743
  181SLPC  H18Y20801   1.096   4.500   9.212 -2.4744  0.8105 -2.9253
  181SLPC  H18Z20802   1.132   4.346   9.287 -0.3755 -1.1520 -1.3237
  182SLPC     N20803   5.760   5.686  10.584  0.5042  0.0335  0.6133
  182SLPC   C1320804   5.613   5.673  10.600  0.2858 -0.2568 -0.2759
  182SLPC  H13A20805   5.575   5.603  10.527 -0.5098  0.7922 -0.9011
  182SLPC  H13B20806   5.583   5.628  10.693 -1.4926 -0.6956 -1.0072
  182SLPC  H13C20807   5.566   5.770  10.591 -1.0963 -0.9760 -1.1715
  182SLPC   C1420808   5.806   5.646  10.443  0.0416 -0.1604  0.9626
  182SLPC  H14A20809   5.773   5.700  10.355  0.4493 -2.0860 -0.4615
  182SLPC  H14B20810   5.913   5.628  10.447 -0.0032 -0.4035  1.0549
  182SLPC  H14C20811   5.756   5.553  10.418  0.7047  0.2214 -2.3002
  182SLPC   C1520812   5.806   5.582  10.676  0.5643 -0.3312 -0.4055
  182SLPC  H15A20813   5.784   5.611  10.777 -0.9213  2.1809 -1.3487
  182SLPC  H15B20814   5.762   5.487  10.649 -1.9935  0.6772 -0.0738
  182SLPC  H15C20815   5.913   5.577  10.662  0.7860  0.5415  0.8637
  182SLPC   C1220816   5.805   5.817  10.635  0.0109 -0.3258  0.3609
  182SLPC  H12A20817   5.913   5.813  10.641  0.0898  2.6388  2.4410
  182SLPC  H12B20818   5.775   5.829  10.738 -0.0222  0.2994  0.2814
  182SLPC   C1120819   5.769   5.932  10.550 -0.1516  0.5243 -0.3289
  182SLPC  H11A20820   5.799   5.904  10.446  2.2753  1.4673  0.0517
  182SLPC  H11B20821   5.836   6.017  10.574 -1.0074  0.0360  4.9050
  182SLPC     P20822   5.583   6.072  10.665 -0.1704  0.2352  0.0917
  182SLPC   O1320823   5.477   6.011  10.757  0.4852 -0.0303  0.2787
  182SLPC   O1420824   5.699   6.135  10.733 -0.0031 -1.1792  0.6851
  182SLPC   O1220825   5.631   5.955  10.572 -0.3246  0.2279 -0.3798
  182SLPC   O1120826   5.522   6.171  10.556  0.4639  0.3869  0.5069
  182SLPC    C120827   5.415   6.125  10.465 -0.4777  0.1598 -0.4949
  182SLPC    HA20828   5.396   6.017  10.483  0.3927  0.1871  0.7228
  182SLPC    HB20829   5.321   6.171  10.502 -0.2847  0.5846 -0.5301
  182SLPC    C220830   5.422   6.166  10.315  0.4481 -0.3131  0.2890
  182SLPC    HS20831   5.323   6.154  10.267 -0.4213  0.8805  1.6771
  182SLPC   O2120832   5.524   6.088  10.243  0.1873 -0.2067 -0.6488
  182SLPC   C2120833   5.479   5.967  10.220 -0.3030 -0.1790 -0.1594
  182SLPC   O2220834   5.367   5.924  10.237  0.0550 -0.3527 -0.1184
  182SLPC   C2220835   5.605   5.887  10.183  0.0764  0.4730  0.5322
  182SLPC   H2R20836   5.679   5.946  10.125 -0.3452 -0.7756 -1.3593
  182SLPC   H2S20837   5.648   5.848  10.278  0.3480 -1.3903 -0.3137
  182SLPC    C320838   5.450   6.324  10.305 -0.3192 -0.7060  0.0848
  182SLPC    HX20839   5.543   6.341  10.365 -0.6379  1.2217  0.1073
  182SLPC    HY20840   5.376   6.392  10.353  1.7481  0.2831  2.1240
  182SLPC   O3120841   5.465   6.360  10.165  0.1904  0.0052 -0.1940
  182SLPC   C3120842   5.522   6.481  10.127 -0.2250  0.1139 -0.3621
  182SLPC   O3220843   5.574   6.558  10.207 -0.2004 -0.4437  0.2656
  182SLPC   C3220844   5.540   6.473   9.973  0.1658  0.5995  0.6052
  182SLPC   H2X20845   5.451   6.427   9.925  0.4369 -1.9256  2.3358
  182SLPC   H2Y20846   5.624   6.402   9.964  0.2305  0.9188 -1.9415
  182SLPC   C2320847   5.582   5.774  10.085 -0.6688  0.0679  0.4566
  182SLPC   H3R20848   5.533   5.692  10.142  0.6049 -0.7180  0.4626
  182SLPC   H3S20849   5.681   5.726  10.071 -0.7966 -0.0126 -0.2165
  182SLPC   C2420850   5.522   5.814   9.950  0.4333 -0.3057 -0.8355
  182SLPC   H4R20851   5.566   5.909   9.913  0.8715 -0.3958 -0.5614
  182SLPC   H4S20852   5.415   5.843   9.952  0.4004 -0.3007 -2.2755
  182SLPC   C2520853   5.536   5.703   9.852 -0.1901 -0.0533  0.9163
  182SLPC   H5R20854   5.503   5.609   9.901 -2.3510 -0.0203 -0.3558
  182SLPC   H5S20855   5.644   5.698   9.825 -0.8274  0.0354 -2.0462
  182SLPC   C2620856   5.454   5.730   9.720 -0.7330 -0.0732  0.3510
  182SLPC   H6R20857   5.474   5.834   9.686 -0.6861  0.7511  2.6818
  182SLPC   H6S20858   5.351   5.723   9.761 -0.0565 -0.4234  2.0583
  182SLPC   C2720859   5.485   5.621   9.608  0.4447  0.4660  0.4525
  182SLPC   H7R20860   5.432   5.651   9.515  0.3058 -1.2443 -0.0552
  182SLPC   H7S20861   5.442   5.523   9.638  1.0248 -0.3735 -1.2952
  182SLPC   C2820862   5.632   5.622   9.565 -0.6269 -0.0199 -0.1024
  182SLPC   H8R20863   5.697   5.610   9.654 -2.0199  0.0998  0.9682
  182SLPC   H8S20864   5.662   5.717   9.517 -1.3115  0.1466 -0.2113
  182SLPC   C2920865   5.649   5.496   9.481  0.0439  0.1615  0.4872
  182SLPC   H9R20866   5.672   5.403   9.535  2.6813  0.4141 -0.0707
  182SLPC  C21020867   5.652   5.494   9.346  0.1822 -0.9848 -0.6168
  182SLPC  H10R20868   5.664   5.396   9.297 -0.6082 -0.2617 -2.3302
  182SLPC  C21120869   5.641   5.620   9.262 -0.1957  1.8001 -0.1944
  182SLPC  H11R20870   5.662   5.710   9.323  0.6401  1.3322  0.2201
  182SLPC  H11S20871   5.533   5.628   9.236 -0.9862  2.3979  2.9057
  182SLPC  C21220872   5.717   5.634   9.137 -0.3815 -0.0156  0.4194
  182SLPC  H12R20873   5.799   5.707   9.141 -2.0314  2.0951 -1.5662
  182SLPC  C21320874   5.693   5.571   9.013 -0.0613 -0.4057 -0.0379
  182SLPC  H13R20875   5.754   5.594   8.924  1.3359 -0.8304  0.7885
  182SLPC  C21420876   5.585   5.475   8.978 -0.0314  0.2008  0.3650
  182SLPC  H14R20877   5.489   5.488   9.033 -0.5693  1.1072 -0.7433
  182SLPC  H14S20878   5.629   5.377   9.003 -1.4573 -0.5457  0.0754
  182SLPC  C21520879   5.539   5.486   8.832 -0.2252  0.5962  0.4805
  182SLPC  H15R20880   5.448   5.424   8.820  0.5180 -0.3970 -0.2862
  182SLPC  H15S20881   5.615   5.446   8.761  1.0024  1.7980  1.0702
  182SLPC  C21620882   5.475   5.621   8.797 -0.1130  0.1335 -0.5331
  182SLPC  H16R20883   5.554   5.698   8.784 -0.0469 -0.1539 -1.9637
  182SLPC  H16S20884   5.397   5.655   8.868 -0.4397  0.1568 -0.8980
  182SLPC  C21720885   5.402   5.625   8.662  0.5015 -0.4975 -0.0500
  182SLPC  H17R20886   5.324   5.547   8.652 -1.2277  1.0622  0.7302
  182SLPC  H17S20887   5.482   5.615   8.585  0.5975  1.4131 -0.2679
  182SLPC  C21820888   5.322   5.752   8.635 -0.0412  0.2843 -0.0885
  182SLPC  H18R20889   5.268   5.750   8.538 -0.4721  0.3722  0.1454
  182SLPC  H18S20890   5.394   5.835   8.622  0.6843 -0.2816  0.2838
  182SLPC  H18T20891   5.251   5.771   8.719  1.1003  1.6735  0.6033
  182SLPC   C3320892   5.564   6.608   9.899  0.2198  0.1540  0.1329
  182SLPC   H3X20893   5.670   6.640   9.912  0.5261 -0.4234 -0.8356
  182SLPC   H3Y20894   5.504   6.690   9.943  1.9308  1.4296  0.1835
  182SLPC   C3420895   5.541   6.599   9.745  0.9952  0.4180  0.0850
  182SLPC   H4X20896   5.543   6.703   9.704 -0.3809  0.1263 -0.7855
  182SLPC   H4Y20897   5.442   6.551   9.728  2.4098 -1.6238 -3.2560
  182SLPC   C3520898   5.659   6.525   9.685  0.5702  0.3147  0.0552
  182SLPC   H5X20899   5.647   6.427   9.736 -1.9906  0.7972  0.5244
  182SLPC   H5Y20900   5.754   6.557   9.733 -1.0739  2.2534  2.3136
  182SLPC   C3620901   5.652   6.498   9.536 -0.3707 -0.4473 -0.5054
  182SLPC   H6X20902   5.702   6.587   9.493  0.5384 -0.2882  0.8373
  182SLPC   H6Y20903   5.546   6.498   9.503 -0.5433  0.3218  0.0459
  182SLPC   C3720904   5.729   6.366   9.505  0.3951 -0.9052 -0.3434
  182SLPC   H7X20905   5.642   6.297   9.511 -0.7416  0.3746 -1.4388
  182SLPC   H7Y20906   5.811   6.357   9.580  0.5021  0.4218 -0.2821
  182SLPC   C3820907   5.777   6.346   9.360 -0.0609  0.4838 -0.4061
  182SLPC   H8X20908   5.824   6.246   9.366  1.1983  1.0459 -0.6699
  182SLPC   H8Y20909   5.861   6.417   9.343 -0.2342  0.2103 -2.6916
  182SLPC   C3920910   5.674   6.371   9.251  0.3485  0.3927  0.6223
  182SLPC   H9X20911   5.644   6.477   9.248  0.9716  0.5656 -1.7156
  182SLPC   H9Y20912   5.580   6.322   9.283  0.4622  0.5302  1.1747
  182SLPC  C31020913   5.702   6.331   9.101  0.2467  0.1197  0.1655
  182SLPC  H10X20914   5.627   6.374   9.031  0.5944 -0.2541 -0.4476
  182SLPC  H10Y20915   5.686   6.221   9.107  0.4285  0.0993  0.2622
  182SLPC  C31120916   5.848   6.350   9.047 -0.2647  0.0627 -0.5416
  182SLPC  H11X20917   5.919   6.288   9.105 -0.9758  0.7114  1.0843
  182SLPC  H11Y20918   5.881   6.456   9.056 -0.4137  0.0690 -0.0458
  182SLPC  C31220919   5.861   6.317   8.897  0.1132  0.5417  1.0177
  182SLPC  H12X20920   5.784   6.244   8.864  2.3053 -1.8353  0.8241
  182SLPC  H12Y20921   5.954   6.258   8.881 -0.4794 -0.5828  1.6517
  182SLPC  C31320922   5.850   6.443   8.799 -0.0236  0.0655 -0.5458
  182SLPC  H13X20923   5.895   6.525   8.859 -1.2941  1.5879 -1.6021
  182SLPC  H13Y20924   5.741   6.465   8.806 -0.3396 -1.7654  1.3205
  182SLPC  C31420925   5.907   6.429   8.662 -0.3853 -0.5122 -0.2582
  182SLPC  H14X20926   5.868   6.331   8.627  0.0131 -0.6454 -0.3350
  182SLPC  H14Y20927   6.017   6.426   8.676 -0.3817  0.5573 -0.0403
  182SLPC  C31520928   5.860   6.535   8.554 -0.7591  0.2904 -0.0582
  182SLPC  H15X20929   5.754   6.565   8.563 -0.0275  3.0215  0.3146
  182SLPC  H15Y20930   5.882   6.489   8.455  5.7955  1.1941  0.5500
  182SLPC  C31620931   5.940   6.672   8.556  1.2971  0.2915  0.3196
  182SLPC  H16X20932   6.041   6.637   8.524 -0.0183 -3.0276 -0.5449
  182SLPC  H16Y20933   5.929   6.710   8.660 -0.2579 -0.4738  0.4519
  182SLPC  C31720934   5.883   6.779   8.457  0.0861  0.4063 -0.4199
  182SLPC  H17X20935   5.801   6.841   8.499  0.3986 -0.1184  1.0577
  182SLPC  H17Y20936   5.831   6.736   8.369 -0.9915  0.7673  0.0164
  182SLPC  C31820937   5.991   6.884   8.427  0.3867 -0.1762 -0.4675
  182SLPC  H18X20938   6.025   6.941   8.515  1.9393  1.3556 -1.9699
  182SLPC  H18Y20939   5.964   6.962   8.353  0.4935 -0.0635 -0.3874
  182SLPC  H18Z20940   6.093   6.846   8.402  0.9474 -0.1730  1.6835
  183SLPC     N20941   1.238   5.339  11.216  0.2399 -0.4212 -0.4944
  183SLPC   C1320942   1.278   5.460  11.301 -0.3029 -0.2184  0.0426
  183SLPC  H13A20943   1.293   5.543  11.234  0.0528  0.2837  0.7303
  183SLPC  H13B20944   1.201   5.505  11.363  0.3906 -0.0444  0.8004
  183SLPC  H13C20945   1.370   5.453  11.358 -0.0726 -0.5177 -0.3622
  183SLPC   C1420946   1.167   5.237  11.305 -0.5200 -0.4089 -0.4005
  183SLPC  H14A20947   1.089   5.290  11.358  0.8017 -0.1708  1.4070
  183SLPC  H14B20948   1.125   5.149  11.260 -1.7315  0.4080 -0.9239
  183SLPC  H14C20949   1.238   5.203  11.379 -2.3048  1.0251  2.1341
  183SLPC   C1520950   1.354   5.282  11.150 -0.5363 -0.1181  0.5596
  183SLPC  H15A20951   1.323   5.215  11.071 -0.0973 -3.1025  2.7722
  183SLPC  H15B20952   1.406   5.365  11.103 -0.2386 -0.3982  0.3905
  183SLPC  H15C20953   1.419   5.231  11.219 -0.2693 -1.5287 -0.6885
  183SLPC   C1220954   1.128   5.381  11.117  0.4198  0.5352 -0.2884
  183SLPC  H12A20955   1.076   5.467  11.155 -2.2828 -1.5633  1.1097
  183SLPC  H12B20956   1.046   5.312  11.102  0.1008  0.2911  2.1003
  183SLPC   C1120957   1.167   5.430  10.975  0.2335  0.4676 -0.2657
  183SLPC  H11A20958   1.254   5.499  10.975  0.7505 -0.0596 -2.8726
  183SLPC  H11B20959   1.082   5.483  10.926 -0.8333  0.8686  1.9021
  183SLPC     P20960   1.113   5.202  10.856 -0.0842 -0.0268  0.6900
  183SLPC   O1320961   1.189   5.073  10.865 -0.2503  0.7386  0.2065
  183SLPC   O1420962   0.986   5.208  10.927  0.3338  0.1805 -0.3714
  183SLPC   O1220963   1.211   5.319  10.890 -0.2659 -0.3884 -0.4410
  183SLPC   O1120964   1.087   5.229  10.704  0.7953  0.1325  0.2072
  183SLPC    C120965   1.028   5.352  10.648 -0.1733  0.8733  0.0608
  183SLPC    HA20966   0.930   5.366  10.698  0.4816  0.7737  1.4272
  183SLPC    HB20967   1.088   5.442  10.674  1.6987 -0.3584  0.2425
  183SLPC    C220968   1.001   5.326  10.497  0.4933  1.1685 -0.4674
  183SLPC    HS20969   1.095   5.285  10.454  0.6033  0.8712  0.0637
  183SLPC   O2120970   0.971   5.451  10.427 -0.1730 -0.1049  0.2608
  183SLPC   C2120971   1.070   5.540  10.411  0.0947  0.5860 -0.6822
  183SLPC   O2220972   1.180   5.532  10.468  1.1389  0.6874  0.2311
  183SLPC   C2220973   1.020   5.648  10.319  0.1693  0.6743 -0.6157
  183SLPC   H2R20974   0.934   5.698  10.369  0.4704  0.8837 -0.3089
  183SLPC   H2S20975   1.107   5.715  10.307  0.7003 -0.0541 -0.9452
  183SLPC    C320976   0.883   5.223  10.475 -0.0185  0.1961 -0.0992
  183SLPC    HX20977   0.784   5.257  10.510 -1.3146 -2.3761 -0.9509
  183SLPC    HY20978   0.899   5.134  10.541  3.4736  0.4307 -0.4371
  183SLPC   O3120979   0.872   5.170  10.335  0.4273  0.0014 -0.2168
  183SLPC   C3120980   0.770   5.224  10.270  0.1260 -0.8941  0.2890
  183SLPC   O3220981   0.694   5.308  10.314  0.1719 -0.5058  0.1571
  183SLPC   C3220982   0.781   5.183  10.118  0.1252  0.2520  0.0335
  183SLPC   H2X20983   0.760   5.074  10.113  3.4909 -0.4660 -2.8661
  183SLPC   H2Y20984   0.887   5.194  10.087  0.4812 -1.6493  0.4536
  183SLPC   C2320985   0.964   5.602  10.182 -0.1166 -0.8201  0.6667
  183SLPC   H3R20986   0.885   5.525  10.194  1.0410 -2.6289 -2.3313
  183SLPC   H3S20987   1.033   5.560  10.106  0.4905  0.6110  0.4036
  183SLPC   C2420988   0.898   5.713  10.098 -0.0659  0.3615  0.0214
  183SLPC   H4R20989   0.966   5.798  10.075 -0.7779  0.7625 -0.6063
  183SLPC   H4S20990   0.818   5.750  10.165 -1.0678  0.9580 -1.4748
  183SLPC   C2520991   0.838   5.669   9.960 -0.3830 -0.4871 -0.2191
  183SLPC   H5R20992   0.774   5.579   9.970  1.7549 -2.0912 -0.3608
  183SLPC   H5S20993   0.909   5.641   9.879 -0.2853 -1.4179  0.1757
  183SLPC   C2620994   0.764   5.792   9.903  0.2270  0.5692 -0.0256
  183SLPC   H6R20995   0.849   5.858   9.879  0.8473 -0.3450 -0.4075
  183SLPC   H6S20996   0.703   5.833   9.987  0.3868  1.2951 -0.2620
  183SLPC   C2720997   0.696   5.763   9.771 -0.0207  0.2889  0.6542
  183SLPC   H7R20998   0.615   5.687   9.770 -1.6169  1.8332 -2.3344
  183SLPC   H7S20999   0.771   5.742   9.692 -0.5686  2.7663 -0.6185
  183SLPC   C2821000   0.619   5.893   9.721 -0.3630 -0.2083  0.9113
  183SLPC   H8R21001   0.694   5.969   9.691  1.5126 -1.6089  1.8749
  183SLPC   H8S21002   0.562   5.936   9.806 -1.8979 -1.9507  0.8230
  183SLPC   C2921003   0.521   5.864   9.605  0.0098 -1.0645 -0.5904
  183SLPC   H9R21004   0.419   5.838   9.638 -0.8910 -1.4140 -3.4238
  183SLPC  C21021005   0.542   5.864   9.474  0.1301  0.0073  0.4657
  183SLPC  H10R21006   0.458   5.838   9.408  0.2941  0.3399  0.1219
  183SLPC  C21121007   0.667   5.892   9.394 -0.3762 -0.4058 -0.2707
  183SLPC  H11R21008   0.706   5.798   9.349 -1.6396 -0.8015 -0.5654
  183SLPC  H11S21009   0.743   5.924   9.468 -1.6179  0.3546  0.7129
  183SLPC  C21221010   0.645   5.999   9.288 -0.2117  0.6908 -0.4573
  183SLPC  H12R21011   0.626   6.103   9.320 -2.4888  0.9079 -2.2595
  183SLPC  C21321012   0.628   5.985   9.151 -0.3666  0.6483 -0.4299
  183SLPC  H13R21013   0.617   6.073   9.085  0.7138  2.1511  1.2984
  183SLPC  C21421014   0.630   5.863   9.071 -0.8943  0.2908  0.3688
  183SLPC  H14R21015   0.539   5.843   9.010  1.2554 -0.4600 -2.7765
  183SLPC  H14S21016   0.641   5.776   9.139 -1.8781  0.8297  1.2669
  183SLPC  C21521017   0.760   5.847   8.979  0.3858 -0.0775  0.1942
  183SLPC  H15R21018   0.758   5.748   8.928  1.5138 -0.8299  1.5393
  183SLPC  H15S21019   0.852   5.861   9.039  1.7787  3.0049 -2.3373
  183SLPC  C21621020   0.772   5.950   8.863 -0.4831  1.1883 -0.3657
  183SLPC  H16R21021   0.871   5.936   8.816  0.3355  2.6523  0.8378
  183SLPC  H16S21022   0.782   6.051   8.909 -0.0011  0.0494  2.1590
  183SLPC  C21721023   0.667   5.931   8.751 -0.4735 -0.3985  0.1988
  183SLPC  H17R21024   0.570   5.916   8.804 -0.8427 -1.0446 -0.6431
  183SLPC  H17S21025   0.703   5.840   8.699  2.3037 -0.0104  1.2510
  183SLPC  C21821026   0.666   6.041   8.645  0.3595  0.0998  0.9789
  183SLPC  H18R21027   0.612   6.132   8.680 -1.6290  0.2536 -2.1248
  183SLPC  H18S21028   0.612   6.023   8.549  2.6259  1.5561 -0.6750
  183SLPC  H18T21029   0.772   6.067   8.623  0.8364 -0.7209  2.1777
  183SLPC   C3321030   0.697   5.260  10.018  0.1094 -0.2568 -0.1699
  183SLPC   H3X21031   0.729   5.366  10.019 -1.6669  0.2995  0.6143
  183SLPC   H3Y21032   0.588   5.257  10.039 -0.2241 -0.8487 -1.8372
  183SLPC   C3421033   0.725   5.207   9.876  0.5128 -0.1791 -1.0972
  183SLPC   H4X21034   0.637   5.240   9.818 -0.8702  1.8721  1.9068
  183SLPC   H4Y21035   0.727   5.097   9.885 -0.4748 -0.0886  0.6090
  183SLPC   C3521036   0.854   5.270   9.819  0.4000 -0.1806  0.2618
  183SLPC   H5X21037   0.935   5.207   9.860 -0.7097 -0.7223  1.7277
  183SLPC   H5Y21038   0.865   5.376   9.851  3.1106 -0.3219  0.0498
  183SLPC   C3621039   0.850   5.261   9.660 -0.2907  0.4242 -0.2295
  183SLPC   H6X21040   0.769   5.330   9.629 -0.4970  1.2192  1.8797
  183SLPC   H6Y21041   0.819   5.159   9.629  0.3188 -0.1635  1.0150
  183SLPC   C3721042   0.975   5.302   9.575  0.1734 -0.0681 -0.0443
  183SLPC   H7X21043   0.940   5.312   9.470 -1.6692  0.8284  0.6035
  183SLPC   H7Y21044   1.047   5.218   9.586 -1.2332 -1.1965  1.0245
  183SLPC   C3821045   1.036   5.433   9.601 -0.1675 -0.0072 -0.2972
  183SLPC   H8X21046   1.124   5.446   9.535 -1.7161  1.0862 -2.2808
  183SLPC   H8Y21047   1.072   5.446   9.706  1.2834  1.1356 -0.9005
  183SLPC   C3921048   0.941   5.553   9.555 -0.4086 -0.3236  0.5642
  183SLPC   H9X21049   0.853   5.548   9.623 -1.2375  2.8074 -0.0911
  183SLPC   H9Y21050   0.924   5.517   9.452  0.5471 -0.1445  0.3357
  183SLPC  C31021051   0.997   5.699   9.565  0.1585 -0.1580  0.9970
  183SLPC  H10X21052   0.978   5.732   9.669  1.2408 -1.8808  1.7969
  183SLPC  H10Y21053   0.940   5.770   9.501 -0.2872  0.0366  1.6066
  183SLPC  C31121054   1.148   5.719   9.548  0.3488  0.0070  0.7307
  183SLPC  H11X21055   1.205   5.635   9.592  0.7570 -0.1930 -0.1567
  183SLPC  H11Y21056   1.191   5.809   9.597  1.2260  1.8199 -3.0466
  183SLPC  C31221057   1.193   5.734   9.403 -0.2166  0.1622  0.0847
  183SLPC  H12X21058   1.144   5.823   9.356 -3.3231 -2.2568 -1.6815
  183SLPC  H12Y21059   1.159   5.645   9.346  2.6279 -0.5357 -0.6796
  183SLPC  C31321060   1.348   5.744   9.384 -0.5470 -1.2835 -0.8993
  183SLPC  H13X21061   1.386   5.812   9.463  0.2426 -1.0623 -1.4610
  183SLPC  H13Y21062   1.354   5.787   9.282 -0.0874 -0.7018 -0.6302
  183SLPC  C31421063   1.428   5.620   9.404 -0.4874  0.5501 -0.0629
  183SLPC  H14X21064   1.387   5.536   9.342  0.8071  0.6988 -1.1668
  183SLPC  H14Y21065   1.428   5.592   9.511 -0.2076 -2.5038 -0.7534
  183SLPC  C31521066   1.576   5.640   9.356  0.3135  0.2097 -1.1225
  183SLPC  H15X21067   1.627   5.732   9.392 -0.0813  0.0201 -0.0693
  183SLPC  H15Y21068   1.578   5.649   9.245 -0.3735 -1.6663 -1.3254
  183SLPC  C31621069   1.661   5.525   9.398 -0.1946  0.1067  0.1829
  183SLPC  H16X21070   1.684   5.538   9.506  0.0294  1.2350  0.0115
  183SLPC  H16Y21071   1.758   5.535   9.345 -0.4858  3.0423  0.0752
  183SLPC  C31721072   1.599   5.386   9.385  0.1918 -0.1567 -0.0177
  183SLPC  H17X21073   1.563   5.376   9.281 -0.5208 -2.5966  0.4017
  183SLPC  H17Y21074   1.509   5.368   9.449 -0.4436  1.6692 -0.3346
  183SLPC  C31821075   1.704   5.273   9.413  1.1158  0.1787  0.1542
  183SLPC  H18X21076   1.653   5.178   9.385 -0.9120  0.9729  0.9116
  183SLPC  H18Y21077   1.738   5.255   9.517  0.0095 -1.4487  0.2835
  183SLPC  H18Z21078   1.784   5.291   9.338  1.1770  3.4033  0.8693
  184SLPC     N21079   4.172   4.188  11.088  0.0464 -0.4915  0.9154
  184SLPC   C1321080   4.110   4.073  11.165  0.0574  0.6369 -0.5181
  184SLPC  H13A21081   4.173   3.986  11.159  0.5524  1.0228 -0.9637
  184SLPC  H13B21082   4.110   4.104  11.268  1.7369  1.7498 -0.8157
  184SLPC  H13C21083   4.008   4.059  11.133  0.3065  2.2309 -2.1400
  184SLPC   C1421084   4.323   4.183  11.104  0.1074 -0.0319 -0.4008
  184SLPC  H14A21085   4.378   4.129  11.029  0.1519  0.5171 -0.7718
  184SLPC  H14B21086   4.364   4.284  11.106  1.9021 -0.7082  1.6578
  184SLPC  H14C21087   4.356   4.138  11.197  1.7655 -1.9255 -1.8259
  184SLPC   C1521088   4.103   4.312  11.137  0.1940 -0.5074 -0.0216
  184SLPC  H15A21089   4.133   4.328  11.240  0.2342  1.1316 -0.2576
  184SLPC  H15B21090   4.138   4.396  11.080 -0.4595  0.6041  1.1578
  184SLPC  H15C21091   3.996   4.307  11.134  0.0669  1.8466 -2.8394
  184SLPC   C1221092   4.131   4.182  10.938  1.0085 -0.3166  0.1182
  184SLPC  H12A21093   4.150   4.280  10.896  2.6195 -0.9137 -0.6616
  184SLPC  H12B21094   4.023   4.178  10.942  1.0352 -0.0063  3.7365
  184SLPC   C1121095   4.183   4.070  10.846 -0.8779  0.5943  0.7525
  184SLPC  H11A21096   4.125   4.063  10.751  0.9382 -0.7850 -0.3139
  184SLPC  H11B21097   4.174   3.976  10.904 -2.3748  0.7371  0.7946
  184SLPC     P21098   4.371   4.100  10.661 -0.2830 -0.4436  0.0447
  184SLPC   O1321099   4.483   4.196  10.645  0.5706 -0.2631  0.3499
  184SLPC   O1421100   4.395   3.958  10.622  0.2632  0.1328 -0.0095
  184SLPC   O1221101   4.323   4.099  10.810  0.4179  0.4923 -0.5469
  184SLPC   O1121102   4.249   4.158  10.571 -0.2221  0.1134  0.2338
  184SLPC    C121103   4.180   4.078  10.470  0.0577 -0.3198  0.1315
  184SLPC    HA21104   4.185   3.971  10.500  1.7199 -1.0014 -2.2314
  184SLPC    HB21105   4.072   4.102  10.459  0.0753  0.4762  1.5211
  184SLPC    C221106   4.245   4.086  10.331  0.5541 -0.2248  0.3949
  184SLPC    HS21107   4.353   4.105  10.347  0.5798  0.3295 -0.3957
  184SLPC   O2121108   4.185   4.199  10.267  0.0385  0.6040  0.4521
  184SLPC   C2121109   4.264   4.248  10.168 -0.6840  0.0701  0.3080
  184SLPC   O2221110   4.379   4.216  10.146  0.0992 -0.4219 -0.0398
  184SLPC   C2221111   4.184   4.345  10.090 -0.0011 -0.1902  0.8939
  184SLPC   H2R21112   4.074   4.326  10.087 -0.3439  1.7054  0.2892
  184SLPC   H2S21113   4.183   4.444  10.140 -2.6482 -0.1853  1.0066
  184SLPC    C321114   4.235   3.948  10.251  0.0242  0.1714 -0.3550
  184SLPC    HX21115   4.131   3.911  10.249  0.4636 -1.1199 -3.4419
  184SLPC    HY21116   4.305   3.886  10.311 -0.1662 -0.2584 -0.5729
  184SLPC   O3121117   4.268   3.965  10.108  0.0686  0.1028 -0.1192
  184SLPC   C3121118   4.335   3.858  10.053  0.6812  0.1388 -0.2048
  184SLPC   O3221119   4.353   3.748  10.108 -0.0430 -0.3789 -0.2823
  184SLPC   C3221120   4.352   3.883   9.899  0.3993  0.1941  0.3360
  184SLPC   H2X21121   4.424   3.968   9.894 -0.1474  0.6578  0.1227
  184SLPC   H2Y21122   4.256   3.919   9.855 -0.8998 -2.3432  0.9295
  184SLPC   C2321123   4.228   4.365   9.940  0.1892 -0.4790 -1.2169
  184SLPC   H3R21124   4.323   4.422   9.936 -0.5736  1.0819  1.0607
  184SLPC   H3S21125   4.151   4.438   9.907 -1.3780 -0.5041  2.0281
  184SLPC   C2421126   4.228   4.231   9.866 -0.5092  0.4371  0.4300
  184SLPC   H4R21127   4.168   4.152   9.914  0.8934 -0.9601 -0.0460
  184SLPC   H4S21128   4.326   4.183   9.849 -1.7783 -1.7855 -1.0836
  184SLPC   C2521129   4.155   4.249   9.728 -0.1430 -0.0120  0.6566
  184SLPC   H5R21130   4.195   4.333   9.667 -0.2298 -0.8096 -0.5290
  184SLPC   H5S21131   4.048   4.275   9.740  0.0101  1.8266 -1.2793
  184SLPC   C2621132   4.177   4.124   9.639 -0.2548  0.4387 -0.3405
  184SLPC   H6R21133   4.136   4.032   9.684  0.0165 -1.3589 -3.4707
  184SLPC   H6S21134   4.288   4.118   9.634 -0.1150  0.5694  1.6328
  184SLPC   C2721135   4.116   4.135   9.508 -0.0151 -0.5048 -0.4450
  184SLPC   H7R21136   4.168   4.216   9.453 -0.0078  0.8067  1.3947
  184SLPC   H7S21137   4.012   4.167   9.529 -0.3080 -1.3900 -0.5160
  184SLPC   C2821138   4.119   4.009   9.422  0.1337  0.3368 -0.7795
  184SLPC   H8R21139   4.050   3.928   9.453 -0.7782  0.5188 -2.2793
  184SLPC   H8S21140   4.223   3.971   9.418  1.2042  2.5634  2.0413
  184SLPC   C2921141   4.084   4.056   9.285  0.5418  0.1021  0.2313
  184SLPC   H9R21142   4.170   4.084   9.222  1.6175 -0.1861  1.5197
  184SLPC  C21021143   3.957   4.067   9.234  0.2336 -0.3824  0.5276
  184SLPC  H10R21144   3.936   4.115   9.137 -2.4372 -0.6816  0.8864
  184SLPC  C21121145   3.826   4.031   9.310 -0.2623  1.0200  0.0681
  184SLPC  H11R21146   3.740   4.082   9.262 -0.8580  1.2490  1.3253
  184SLPC  H11S21147   3.820   4.072   9.413  1.1753 -0.0659  0.6241
  184SLPC  C21221148   3.810   3.878   9.292 -0.2261 -0.2939  0.3856
  184SLPC  H12R21149   3.843   3.838   9.195 -2.8459 -0.3117 -0.5781
  184SLPC  C21321150   3.789   3.782   9.380  0.0129  0.3576 -0.8735
  184SLPC  H13R21151   3.794   3.677   9.347 -0.5905 -0.1864  0.6793
  184SLPC  C21421152   3.771   3.790   9.531  0.0786  0.7800  0.4730
  184SLPC  H14R21153   3.673   3.743   9.552  1.4303 -1.6392  1.8184
  184SLPC  H14S21154   3.762   3.891   9.576 -0.3541  0.2185  1.7027
  184SLPC  C21521155   3.869   3.699   9.606  0.2783 -0.7970 -0.3954
  184SLPC  H15R21156   3.971   3.744   9.604 -0.0193 -0.1177 -0.2277
  184SLPC  H15S21157   3.866   3.603   9.550 -1.2083 -0.9271 -0.1113
  184SLPC  C21621158   3.829   3.670   9.750 -0.4493  0.4939  0.0916
  184SLPC  H16R21159   3.877   3.574   9.778  1.1482  0.4234 -2.5916
  184SLPC  H16S21160   3.721   3.651   9.766  0.1913 -0.2489  5.8903
  184SLPC  C21721161   3.865   3.780   9.849 -0.3860  0.7217  0.0252
  184SLPC  H17R21162   3.819   3.749   9.946  0.6548  0.0116  0.3064
  184SLPC  H17S21163   3.824   3.881   9.828  0.4606  1.1402  0.3749
  184SLPC  C21821164   4.010   3.796   9.878 -0.2452 -0.3061  0.1561
  184SLPC  H18R21165   4.020   3.847   9.976 -0.3908 -1.1451  0.6149
  184SLPC  H18S21166   4.059   3.854   9.797 -1.3061  1.0957  0.4888
  184SLPC  H18T21167   4.065   3.699   9.871 -1.1650 -1.2782  4.1948
  184SLPC   C3321168   4.403   3.759   9.828 -0.3236 -0.2872  0.1503
  184SLPC   H3X21169   4.321   3.690   9.801 -0.9748  0.3637  0.4394
  184SLPC   H3Y21170   4.475   3.691   9.878 -1.3173 -1.0628  0.5585
  184SLPC   C3421171   4.473   3.816   9.703  0.4605  0.4482 -0.0402
  184SLPC   H4X21172   4.565   3.870   9.733 -0.0880  1.3978 -0.0522
  184SLPC   H4Y21173   4.411   3.889   9.647 -1.7370 -0.8006  0.6409
  184SLPC   C3521174   4.518   3.703   9.605 -0.2701  0.3016 -0.2331
  184SLPC   H5X21175   4.542   3.611   9.663  1.8105  1.1965  0.4035
  184SLPC   H5Y21176   4.606   3.741   9.549 -0.0080 -1.4395 -1.0995
  184SLPC   C3621177   4.417   3.691   9.490  0.0762  0.1111  0.9056
  184SLPC   H6X21178   4.443   3.615   9.414  0.0337  2.2799 -1.4028
  184SLPC   H6Y21179   4.411   3.792   9.445  2.1004  0.3397  1.0892
  184SLPC   C3721180   4.270   3.671   9.527  0.9414  0.1153 -0.0617
  184SLPC   H7X21181   4.222   3.748   9.591  0.6357  0.6622 -0.9265
  184SLPC   H7Y21182   4.254   3.575   9.581  1.9199  1.3962  2.6583
  184SLPC   C3821183   4.187   3.663   9.395  0.4220  0.0452 -0.4361
  184SLPC   H8X21184   4.242   3.725   9.321  3.7080 -1.0470  0.9126
  184SLPC   H8Y21185   4.079   3.687   9.400 -0.1213 -2.0635 -0.9634
  184SLPC   C3921186   4.188   3.517   9.343 -0.0391  0.6901 -0.1711
  184SLPC   H9X21187   4.137   3.456   9.420  0.2324  0.0857 -0.4615
  184SLPC   H9Y21188   4.294   3.484   9.337 -0.2759  0.1106 -1.4416
  184SLPC  C31021189   4.124   3.493   9.201  0.1516  0.3529  0.7794
  184SLPC  H10X21190   4.147   3.387   9.176  2.0293  1.2395 -1.6357
  184SLPC  H10Y21191   4.177   3.552   9.122  0.7190 -1.1674 -0.0119
  184SLPC  C31121192   3.970   3.517   9.194 -0.7804 -0.2179 -0.2790
  184SLPC  H11X21193   3.952   3.625   9.212  0.7020  0.0765 -0.4538
  184SLPC  H11Y21194   3.914   3.461   9.272 -1.0479  1.2169  0.5970
  184SLPC  C31221195   3.900   3.476   9.061  0.0209 -0.1111  0.7273
  184SLPC  H12X21196   3.801   3.524   9.052 -0.1158 -0.4178  0.5634
  184SLPC  H12Y21197   3.895   3.366   9.047 -0.6221  0.0999 -0.9568
  184SLPC  C31321198   3.986   3.520   8.937 -0.2966  0.0455 -0.3825
  184SLPC  H13X21199   3.940   3.492   8.839  1.2696  0.7323 -1.3471
  184SLPC  H13Y21200   4.079   3.459   8.934 -0.4589 -0.2300  0.1344
  184SLPC  C31421201   4.007   3.675   8.932 -0.3889  0.4307  0.3988
  184SLPC  H14X21202   4.075   3.700   9.015  2.3982 -0.6542 -1.4156
  184SLPC  H14Y21203   3.911   3.731   8.936 -0.7443  0.0480 -1.6888
  184SLPC  C31521204   4.069   3.708   8.791 -0.9587  0.7525 -0.2550
  184SLPC  H15X21205   4.002   3.651   8.723  0.5269 -0.3518 -0.8579
  184SLPC  H15Y21206   4.175   3.677   8.783 -1.3405 -0.4807 -0.8114
  184SLPC  C31621207   4.062   3.854   8.748  0.0209 -0.0076 -0.1093
  184SLPC  H16X21208   4.118   3.919   8.819 -0.1287  1.5398 -1.3340
  184SLPC  H16Y21209   3.959   3.891   8.731 -0.9516 -2.8334 -0.9678
  184SLPC  C31721210   4.122   3.876   8.611 -0.1323  0.2904 -1.0482
  184SLPC  H17X21211   4.212   3.811   8.603 -0.3346 -0.1746  0.3459
  184SLPC  H17Y21212   4.149   3.984   8.603 -0.4626  0.6526  1.7967
  184SLPC  C31821213   4.031   3.863   8.488  0.7760 -0.6877  0.3526
  184SLPC  H18X21214   3.979   3.765   8.486  0.7169 -0.6566 -1.4376
  184SLPC  H18Y21215   4.090   3.872   8.394  0.0097  0.1314 -0.0554
  184SLPC  H18Z21216   3.952   3.940   8.488  0.4020 -1.0656  0.7047
  185SLPC     N21217   2.161   6.086   5.871 -0.5238  0.7598  0.1381
  185SLPC   C1321218   2.131   6.198   5.783 -0.0862  0.0534  0.0712
  185SLPC  H13A21219   2.151   6.299   5.817  1.2064 -0.0016 -0.4658
  185SLPC  H13B21220   2.184   6.181   5.690 -0.0741 -1.3628  0.3204
  185SLPC  H13C21221   2.029   6.195   5.746 -0.3878 -1.6719  0.9611
  185SLPC   C1421222   2.314   6.069   5.888  0.1063 -0.2451 -0.3105
  185SLPC  H14A21223   2.366   6.081   5.794  0.8925 -1.9247 -0.1264
  185SLPC  H14B21224   2.351   6.149   5.950  1.8095  2.3668 -4.2937
  185SLPC  H14C21225   2.347   5.973   5.925  2.6628  0.5439 -0.3594
  185SLPC   C1521226   2.121   5.960   5.808  0.6740  0.1252  0.1243
  185SLPC  H15A21227   2.014   5.947   5.795  0.8998 -2.2525  0.1394
  185SLPC  H15B21228   2.160   5.958   5.707 -0.9967  2.6632 -0.6787
  185SLPC  H15C21229   2.165   5.878   5.862  2.4611  1.6631  1.1013
  185SLPC   C1221230   2.095   6.098   6.013  0.5864  0.5085  0.0579
  185SLPC  H12A21231   2.109   6.000   6.055  0.0849 -1.2308 -3.5227
  185SLPC  H12B21232   1.988   6.107   6.008  0.5184 -0.1795  0.1653
  185SLPC   C1121233   2.156   6.208   6.101  0.4293 -0.4774  0.4782
  185SLPC  H11A21234   2.086   6.251   6.176  2.0805  2.1890  0.6172
  185SLPC  H11B21235   2.178   6.302   6.046 -3.3726  1.9657  2.6745
  185SLPC     P21236   2.262   6.064   6.282 -0.4095 -0.1577 -0.5573
  185SLPC   O1321237   2.162   5.966   6.242  0.1514 -0.4761 -0.1314
  185SLPC   O1421238   2.400   6.023   6.309  0.0395 -0.4063  0.1473
  185SLPC   O1221239   2.278   6.168   6.164  0.1814  0.1826 -0.3843
  185SLPC   O1121240   2.218   6.151   6.408  0.5480 -0.0573  0.4855
  185SLPC    C121241   2.262   6.290   6.415 -0.4860  0.4401 -0.7648
  185SLPC    HA21242   2.372   6.290   6.427 -0.5177 -0.9138 -0.2871
  185SLPC    HB21243   2.232   6.355   6.331 -1.7395  1.0794  0.1343
  185SLPC    C221244   2.189   6.358   6.534 -0.2157 -0.0768 -0.2134
  185SLPC    HS21245   2.216   6.466   6.539 -0.1210 -0.1483  1.7491
  185SLPC   O2121246   2.207   6.294   6.664  0.2173 -0.3455 -0.5008
  185SLPC   C2121247   2.326   6.308   6.718  0.4991 -0.3374 -0.0343
  185SLPC   O2221248   2.425   6.354   6.669  0.0906  0.0917  0.6503
  185SLPC   C2221249   2.319   6.255   6.861  0.2860  0.3720 -0.2147
  185SLPC   H2R21250   2.237   6.180   6.869  0.2786  0.5441  1.6699
  185SLPC   H2S21251   2.413   6.198   6.878  0.5656  0.4708 -1.3279
  185SLPC    C321252   2.040   6.346   6.507  0.0937  0.3831  0.0042
  185SLPC    HX21253   2.014   6.238   6.506 -2.9925  1.0172 -1.7453
  185SLPC    HY21254   2.014   6.385   6.406  1.5984 -0.0153 -0.5703
  185SLPC   O3121255   1.963   6.414   6.611  0.1589  0.0523 -0.0411
  185SLPC   C3121256   1.836   6.373   6.622 -0.1593  0.2096 -0.1962
  185SLPC   O3221257   1.783   6.304   6.538 -0.5540  0.0786  0.0028
  185SLPC   C3221258   1.761   6.440   6.744 -0.1388 -0.0470  0.2558
  185SLPC   H2X21259   1.670   6.483   6.697  0.4234  0.1897 -0.6485
  185SLPC   H2Y21260   1.827   6.520   6.783 -0.0995  0.7374 -1.3449
  185SLPC   C2321261   2.305   6.369   6.967 -0.0708 -0.3057  0.5774
  185SLPC   H3R21262   2.212   6.422   6.937  0.2906  0.0534  0.0812
  185SLPC   H3S21263   2.389   6.441   6.958  1.1769 -1.5443  1.7926
  185SLPC   C2421264   2.307   6.311   7.111 -0.3850 -0.0721  0.9735
  185SLPC   H4R21265   2.399   6.251   7.127  0.8388  1.6728  0.8707
  185SLPC   H4S21266   2.229   6.234   7.125  1.2679 -2.0836 -0.3564
  185SLPC   C2521267   2.282   6.415   7.224  0.1981 -1.0777  0.8463
  185SLPC   H5R21268   2.191   6.474   7.203  0.3886 -0.7294  0.9827
  185SLPC   H5S21269   2.370   6.483   7.224 -0.4125 -0.2609 -0.0331
  185SLPC   C2621270   2.274   6.338   7.359 -0.0428 -0.3069 -0.1238
  185SLPC   H6R21271   2.370   6.284   7.374 -0.7779 -1.7857 -0.6540
  185SLPC   H6S21272   2.185   6.273   7.359  0.4344 -0.9666  0.0290
  185SLPC   C2721273   2.251   6.432   7.476 -0.2452 -0.2446  0.4459
  185SLPC   H7R21274   2.174   6.506   7.447  0.7750  0.7354  0.1260
  185SLPC   H7S21275   2.350   6.481   7.491 -1.3960  2.7409 -0.8482
  185SLPC   C2821276   2.220   6.356   7.603  0.0575  0.3060 -0.3830
  185SLPC   H8R21277   2.303   6.290   7.634  1.2849  0.9237 -2.2033
  185SLPC   H8S21278   2.133   6.294   7.573 -2.8773  3.3477  1.1915
  185SLPC   C2921279   2.165   6.448   7.705 -0.0598  0.0175 -0.0964
  185SLPC   H9R21280   2.125   6.539   7.659 -0.8642 -0.9922 -1.4892
  185SLPC  C21021281   2.161   6.437   7.837  0.0520  0.5977  0.5910
  185SLPC  H10R21282   2.111   6.522   7.888  0.4223  1.5110 -0.5348
  185SLPC  C21121283   2.210   6.317   7.914  0.0476 -0.2790 -0.3986
  185SLPC  H11R21284   2.281   6.257   7.853 -0.1982 -0.5086 -0.4596
  185SLPC  H11S21285   2.131   6.244   7.942  0.5196 -0.8470 -0.5298
  185SLPC  C21221286   2.277   6.359   8.042 -0.7848  0.8977 -0.5783
  185SLPC  H12R21287   2.387   6.359   8.032 -0.8654 -0.2699 -1.7780
  185SLPC  C21321288   2.238   6.390   8.166 -0.9067 -0.3602  0.5674
  185SLPC  H13R21289   2.322   6.393   8.236  0.8626 -0.2246 -1.4717
  185SLPC  C21421290   2.100   6.409   8.215 -0.1255 -0.1520  0.4579
  185SLPC  H14R21291   2.024   6.436   8.138 -0.9114 -1.1657  0.8621
  185SLPC  H14S21292   2.092   6.498   8.282 -2.8991 -0.0555  0.1000
  185SLPC  C21521293   2.049   6.297   8.299  0.5567 -0.0659 -0.0033
  185SLPC  H15R21294   2.111   6.282   8.390  1.1821 -1.8065 -0.6693
  185SLPC  H15S21295   2.047   6.212   8.228 -1.0384  0.0113 -0.0912
  185SLPC  C21621296   1.906   6.315   8.356  1.0093 -0.8393  0.3014
  185SLPC  H16R21297   1.868   6.211   8.351 -1.0809 -0.1248  0.5098
  185SLPC  H16S21298   1.858   6.390   8.290  0.5681 -0.2964  1.2104
  185SLPC  C21721299   1.891   6.360   8.504 -0.3426 -0.4582  0.1675
  185SLPC  H17R21300   1.949   6.453   8.517 -0.6934  0.1715 -2.2244
  185SLPC  H17S21301   1.924   6.279   8.572  2.0293  1.4746  1.4464
  185SLPC  C21821302   1.747   6.396   8.531 -0.0558  0.7681 -0.3414
  185SLPC  H18R21303   1.743   6.429   8.637  1.3024 -2.4997  0.8453
  185SLPC  H18S21304   1.676   6.310   8.530  2.0271 -1.0226 -0.4672
  185SLPC  H18T21305   1.714   6.478   8.463 -1.8695 -0.3142 -0.8443
  185SLPC   C3321306   1.718   6.342   6.858 -0.3450  0.3355  0.1187
  185SLPC   H3X21307   1.685   6.241   6.827  1.3745 -0.9099  2.1001
  185SLPC   H3Y21308   1.633   6.398   6.904  0.1961 -0.9271  2.8679
  185SLPC   C3421309   1.829   6.321   6.962 -0.1121 -0.0731  0.1804
  185SLPC   H4X21310   1.894   6.242   6.919  0.5215 -0.4657  1.7861
  185SLPC   H4Y21311   1.774   6.270   7.044 -1.3819  1.0546  0.0622
  185SLPC   C3521312   1.903   6.439   7.031  0.3321  0.5639  0.6568
  185SLPC   H5X21313   1.966   6.487   6.953  3.0438  0.1889  2.4304
  185SLPC   H5Y21314   1.978   6.407   7.107  0.6725  1.0681  0.5422
  185SLPC   C3621315   1.803   6.537   7.094  0.1653 -0.6801 -0.4853
  185SLPC   H6X21316   1.718   6.565   7.028 -1.0196  1.2133  1.7169
  185SLPC   H6Y21317   1.859   6.629   7.120 -1.3777  0.1083  0.1600
  185SLPC   C3721318   1.741   6.488   7.226  0.2185  0.5662 -0.3301
  185SLPC   H7X21319   1.681   6.396   7.206  1.5784 -0.2815 -0.6188
  185SLPC   H7Y21320   1.665   6.559   7.266 -4.5946 -2.2142 -3.4869
  185SLPC   C3821321   1.845   6.449   7.331 -0.5598  0.2509  0.5398
  185SLPC   H8X21322   1.915   6.534   7.331 -1.0659  0.7221 -1.4753
  185SLPC   H8Y21323   1.907   6.361   7.305 -0.4125  0.3815  0.4497
  185SLPC   C3921324   1.783   6.440   7.468 -0.0160 -0.1370 -0.1539
  185SLPC   H9X21325   1.744   6.540   7.495 -1.3769 -0.9271  0.9477
  185SLPC   H9Y21326   1.856   6.402   7.543  0.5107  1.5753  0.2393
  185SLPC  C31021327   1.662   6.337   7.482  0.6059  0.3874 -0.8787
  185SLPC  H10X21328   1.689   6.240   7.435 -0.8808 -1.1402  1.2292
  185SLPC  H10Y21329   1.584   6.385   7.419 -0.9383  2.0929  2.1033
  185SLPC  C31121330   1.612   6.320   7.628  0.0280  0.3195  0.0341
  185SLPC  H11X21331   1.513   6.271   7.620  0.1440 -0.0650  0.8910
  185SLPC  H11Y21332   1.588   6.423   7.663  0.1227  0.3634 -0.0277
  185SLPC  C31221333   1.706   6.249   7.728 -0.5357 -0.0342  0.1225
  185SLPC  H12X21334   1.811   6.286   7.727 -1.1030  1.6686 -0.0423
  185SLPC  H12Y21335   1.711   6.141   7.702  0.4749 -0.1212  0.5992
  185SLPC  C31321336   1.654   6.278   7.868 -0.4370  0.4921  0.5228
  185SLPC  H13X21337   1.625   6.385   7.872  0.1790  0.8000 -1.8730
  185SLPC  H13Y21338   1.733   6.251   7.941 -0.4196 -1.8664 -0.2732
  185SLPC  C31421339   1.534   6.198   7.914 -0.6951  0.2517  0.5096
  185SLPC  H14X21340   1.556   6.093   7.883 -1.0060  0.3246  0.0215
  185SLPC  H14Y21341   1.447   6.240   7.858 -0.6128  2.0342  1.6509
  185SLPC  C31521342   1.510   6.204   8.063 -0.2741  0.7147 -0.3590
  185SLPC  H15X21343   1.607   6.174   8.109 -1.1055 -2.8077 -0.6578
  185SLPC  H15Y21344   1.436   6.128   8.096  1.2511 -0.5317  0.3764
  185SLPC  C31621345   1.438   6.335   8.112 -0.2398  0.0013 -0.6981
  185SLPC  H16X21346   1.332   6.349   8.080  0.5530  1.0671 -3.0899
  185SLPC  H16Y21347   1.485   6.426   8.068  0.7235 -0.5002 -0.7252
  185SLPC  C31721348   1.435   6.329   8.267 -0.2043  0.3762  0.5187
  185SLPC  H17X21349   1.537   6.308   8.305 -0.9761 -3.3463  0.8864
  185SLPC  H17Y21350   1.381   6.238   8.300  1.0289 -1.2260 -1.5495
  185SLPC  C31821351   1.369   6.448   8.337 -0.2126 -0.2671  0.4319
  185SLPC  H18X21352   1.448   6.521   8.363  1.8932 -1.5141 -1.9459
  185SLPC  H18Y21353   1.316   6.414   8.428  2.0923 -1.2553  1.4733
  185SLPC  H18Z21354   1.298   6.486   8.261  0.9928 -2.4638 -1.9642
  186SLPC     N21355   2.347   3.514   6.087 -0.2323  1.8530  0.6144
  186SLPC   C1321356   2.299   3.391   6.009  0.0583  0.7389  0.4170
  186SLPC  H13A21357   2.232   3.416   5.928  1.5570 -0.6660 -1.3471
  186SLPC  H13B21358   2.383   3.327   5.984  0.1299 -0.0307  2.4619
  186SLPC  H13C21359   2.237   3.330   6.073  0.9897  0.3924  1.0143
  186SLPC   C1421360   2.222   3.589   6.124  0.5261  0.1032 -0.0346
  186SLPC  H14A21361   2.162   3.532   6.193 -0.0282  0.3784 -0.2828
  186SLPC  H14B21362   2.256   3.679   6.172 -2.9774  1.5432  0.0521
  186SLPC  H14C21363   2.157   3.630   6.048 -0.9178  0.7660  1.5032
  186SLPC   C1521364   2.434   3.602   5.995  0.2838  0.6181 -0.8975
  186SLPC  H15A21365   2.523   3.546   5.970  0.1055 -0.7011  1.1759
  186SLPC  H15B21366   2.389   3.629   5.900  3.1671  0.9539 -2.2787
  186SLPC  H15C21367   2.456   3.694   6.048 -1.4328 -1.2109  3.4032
  186SLPC   C1221368   2.425   3.480   6.208  0.1611  0.1913 -0.6530
  186SLPC  H12A21369   2.441   3.576   6.255 -0.5027 -0.3584  0.7652
  186SLPC  H12B21370   2.523   3.444   6.182  0.5336  1.5918 -1.2322
  186SLPC   C1121371   2.361   3.380   6.306 -0.1707  0.3170 -0.7534
  186SLPC  H11A21372   2.251   3.386   6.309 -0.3198 -1.9141 -0.2465
  186SLPC  H11B21373   2.381   3.410   6.411  2.1259 -2.6938 -0.1718
  186SLPC     P21374   2.558   3.203   6.348 -0.2791 -0.0885 -0.5412
  186SLPC   O1321375   2.583   3.061   6.296 -0.2188 -0.7601 -0.1615
  186SLPC   O1421376   2.666   3.303   6.332  0.4684  0.6042  0.0294
  186SLPC   O1221377   2.420   3.249   6.285  0.1864  0.3548 -0.1138
  186SLPC   O1121378   2.526   3.198   6.504  0.1162 -1.1670 -0.2321
  186SLPC    C121379   2.430   3.108   6.548 -0.5217 -0.2461  0.3184
  186SLPC    HA21380   2.328   3.134   6.513 -0.4462 -0.6795 -0.2247
  186SLPC    HB21381   2.451   3.008   6.506  0.2896 -0.5520  1.4229
  186SLPC    C221382   2.441   3.100   6.702 -0.1047  1.2589  0.1832
  186SLPC    HS21383   2.382   3.009   6.729  2.0938 -0.2365  0.2063
  186SLPC   O2121384   2.388   3.219   6.762  0.4970 -0.2976 -0.3264
  186SLPC   C2121385   2.324   3.200   6.873 -0.2565 -0.0620 -0.2984
  186SLPC   O2221386   2.300   3.090   6.923  0.0169 -0.3404  0.3943
  186SLPC   C2221387   2.272   3.335   6.935 -0.2950  0.1031 -0.6409
  186SLPC   H2R21388   2.360   3.403   6.942 -0.3836  0.0917  1.3220
  186SLPC   H2S21389   2.204   3.373   6.856 -2.6301  1.0689  1.6401
  186SLPC    C321390   2.591   3.075   6.751  0.2926  1.0294 -0.0008
  186SLPC    HX21391   2.651   3.159   6.710  1.7546 -0.5077 -1.1230
  186SLPC    HY21392   2.620   2.989   6.688 -2.5729  0.3579 -0.5411
  186SLPC   O3121393   2.603   3.063   6.890  0.4238 -0.3115 -0.6293
  186SLPC   C3121394   2.590   2.938   6.935 -0.1652  0.0763  0.0658
  186SLPC   O3221395   2.574   2.839   6.864 -0.4273  0.2727 -0.4793
  186SLPC   C3221396   2.592   2.931   7.086 -0.5072 -0.6630 -0.8586
  186SLPC   H2X21397   2.523   3.009   7.123  1.0675  1.3911 -2.0299
  186SLPC   H2Y21398   2.697   2.946   7.121 -0.3599  0.9193 -1.8634
  186SLPC   C2321399   2.197   3.335   7.074  0.3697  0.0823  0.4525
  186SLPC   H3R21400   2.105   3.274   7.085 -0.0045  0.1978 -1.6776
  186SLPC   H3S21401   2.146   3.433   7.085 -1.0510 -0.5289 -0.3066
  186SLPC   C2421402   2.289   3.306   7.184  0.0470  0.2197 -0.4422
  186SLPC   H4R21403   2.360   3.390   7.199  1.8527 -1.6151  2.5513
  186SLPC   H4S21404   2.350   3.217   7.156  1.7482  1.1599  0.1858
  186SLPC   C2521405   2.215   3.282   7.318  0.1864 -0.0284 -0.0307
  186SLPC   H5R21406   2.148   3.195   7.306  0.6691 -0.6476  1.4539
  186SLPC   H5S21407   2.157   3.372   7.348 -2.1463 -1.6987  0.7311
  186SLPC   C2621408   2.305   3.242   7.430 -0.1796 -0.0912  0.4786
  186SLPC   H6R21409   2.361   3.150   7.405  1.6403  0.1656  3.1631
  186SLPC   H6S21410   2.245   3.217   7.520  0.2595 -1.0367  0.5239
  186SLPC   C2721411   2.421   3.341   7.458  0.0749 -0.0748 -0.3753
  186SLPC   H7R21412   2.373   3.438   7.432  2.8991  1.2881 -0.8586
  186SLPC   H7S21413   2.494   3.327   7.375  1.5014 -2.2264  1.1434
  186SLPC   C2821414   2.474   3.336   7.600 -0.1724  0.1153 -0.2651
  186SLPC   H8R21415   2.392   3.364   7.669 -0.3671 -0.8201 -0.1060
  186SLPC   H8S21416   2.558   3.406   7.619 -0.6498  0.6297 -0.0161
  186SLPC   C2921417   2.536   3.204   7.628 -1.1100  0.0285  0.6327
  186SLPC   H9R21418   2.611   3.178   7.552 -1.0683  0.2556  0.5961
  186SLPC  C21021419   2.503   3.119   7.726  0.0766  0.1740  0.4052
  186SLPC  H10R21420   2.557   3.024   7.741 -0.4425 -0.3237 -0.7249
  186SLPC  C21121421   2.408   3.143   7.836  0.8283  0.5152 -0.0007
  186SLPC  H11R21422   2.377   3.046   7.880  1.2525  0.3686 -0.0233
  186SLPC  H11S21423   2.315   3.174   7.783  0.4411 -0.3421  0.1687
  186SLPC  C21221424   2.458   3.241   7.943 -0.0153  0.1737  0.1988
  186SLPC  H12R21425   2.526   3.320   7.905  1.1084 -0.0413  1.6592
  186SLPC  C21321426   2.439   3.223   8.074 -1.0114  0.0857  0.2442
  186SLPC  H13R21427   2.478   3.290   8.153 -1.2913 -1.4140  1.7290
  186SLPC  C21421428   2.365   3.110   8.142 -0.3416 -0.3222 -0.6948
  186SLPC  H14R21429   2.379   3.012   8.092  1.6507 -1.0126  1.0836
  186SLPC  H14S21430   2.256   3.135   8.142 -0.7572 -1.9454  0.4166
  186SLPC  C21521431   2.391   3.103   8.297 -0.0156  0.3219  0.4198
  186SLPC  H15R21432   2.330   3.023   8.342  0.5460 -0.4649 -0.1927
  186SLPC  H15S21433   2.374   3.210   8.325  0.9773  1.4591 -2.8377
  186SLPC  C21621434   2.536   3.074   8.343 -0.3777  0.4271  0.3284
  186SLPC  H16R21435   2.603   3.158   8.318  0.8960  0.0466  2.2103
  186SLPC  H16S21436   2.575   2.991   8.281  1.4729  0.2766  1.6260
  186SLPC  C21721437   2.557   3.049   8.490  0.5511 -0.4951  0.7148
  186SLPC  H17R21438   2.519   2.949   8.521 -0.3061 -0.5836 -0.5569
  186SLPC  H17S21439   2.494   3.121   8.547  0.7589  0.5271 -0.3052
  186SLPC  C21821440   2.708   3.058   8.533  0.6787  0.0685  0.6517
  186SLPC  H18R21441   2.747   2.954   8.536 -3.5694 -1.7760  0.2895
  186SLPC  H18S21442   2.712   3.111   8.630 -0.2815 -1.0880  1.3623
  186SLPC  H18T21443   2.777   3.123   8.476  2.1637 -1.1946  0.9273
  186SLPC   C3321444   2.554   2.794   7.140  0.1794  0.4463  0.2378
  186SLPC   H3X21445   2.639   2.727   7.114  0.9007  0.9358  1.2680
  186SLPC   H3Y21446   2.465   2.756   7.086  1.2140 -1.8496  0.0322
  186SLPC   C3421447   2.533   2.805   7.289  0.0759 -0.1089  0.9296
  186SLPC   H4X21448   2.473   2.717   7.319 -1.1318 -0.4746 -2.1598
  186SLPC   H4Y21449   2.469   2.893   7.311  1.3203  0.9967  0.3221
  186SLPC   C3521450   2.665   2.802   7.363 -0.1996 -0.1548 -0.1581
  186SLPC   H5X21451   2.734   2.879   7.323 -0.2505  0.7315  1.3732
  186SLPC   H5Y21452   2.705   2.702   7.335 -2.3002 -0.9339 -0.6131
  186SLPC   C3621453   2.648   2.820   7.514 -0.4900  0.2547  0.0220
  186SLPC   H6X21454   2.549   2.783   7.549 -0.6618 -0.0323 -0.7616
  186SLPC   H6Y21455   2.653   2.927   7.544  0.6819  0.4261 -0.7348
  186SLPC   C3721456   2.760   2.754   7.591  0.2085 -0.0828 -0.3200
  186SLPC   H7X21457   2.856   2.773   7.537  1.0666  0.4271  1.3404
  186SLPC   H7Y21458   2.726   2.648   7.589 -0.9562  0.2613  0.5578
  186SLPC   C3821459   2.773   2.789   7.738  0.4083 -0.1026 -0.1490
  186SLPC   H8X21460   2.776   2.899   7.753 -0.2629  0.2780 -2.4258
  186SLPC   H8Y21461   2.870   2.757   7.780  2.2547  3.7817 -1.0058
  186SLPC   C3921462   2.657   2.757   7.835 -0.2446 -0.3799  0.0867
  186SLPC   H9X21463   2.656   2.646   7.833  1.5673 -0.4168 -0.1648
  186SLPC   H9Y21464   2.556   2.793   7.805  0.0514  1.8080  1.4642
  186SLPC  C31021465   2.682   2.805   7.978  0.2143  1.2065  0.0567
  186SLPC  H10X21466   2.587   2.771   8.025 -0.7345  0.1467 -2.4763
  186SLPC  H10Y21467   2.689   2.916   7.971  2.6429  1.0142 -1.4078
  186SLPC  C31121468   2.811   2.749   8.044  0.3645  0.4697  0.1272
  186SLPC  H11X21469   2.903   2.781   7.990 -0.1568  0.9104 -0.5120
  186SLPC  H11Y21470   2.803   2.639   8.027 -0.3751  0.2400  1.7705
  186SLPC  C31221471   2.817   2.794   8.191  0.2514  0.5863 -0.5941
  186SLPC  H12X21472   2.721   2.761   8.236  0.1984  0.4532 -0.8031
  186SLPC  H12Y21473   2.817   2.905   8.196 -0.5631  0.5564  0.2501
  186SLPC  C31321474   2.944   2.732   8.242  0.3986  0.6961 -0.9007
  186SLPC  H13X21475   3.032   2.795   8.219  0.2319  1.3394  0.1951
  186SLPC  H13Y21476   2.949   2.630   8.197 -2.8345 -0.1619  0.3800
  186SLPC  C31421477   2.943   2.710   8.394 -0.0936 -0.0156  0.0321
  186SLPC  H14X21478   2.929   2.813   8.433 -3.7030 -0.1880 -0.4871
  186SLPC  H14Y21479   3.046   2.678   8.419  0.1822 -0.3022 -1.3541
  186SLPC  C31521480   2.846   2.604   8.459  0.2045  0.1724 -0.5555
  186SLPC  H15X21481   2.874   2.508   8.411  0.0102  0.0517 -0.4296
  186SLPC  H15Y21482   2.739   2.629   8.443  0.3057  0.9783 -0.0057
  186SLPC  C31621483   2.875   2.579   8.614 -0.4807 -0.9929 -0.3151
  186SLPC  H16X21484   2.979   2.541   8.615  0.8216  2.2765  0.4766
  186SLPC  H16Y21485   2.805   2.498   8.647  1.1311 -2.2197  0.2336
  186SLPC  C31721486   2.853   2.696   8.703  0.8510 -0.6646 -0.0613
  186SLPC  H17X21487   2.869   2.782   8.634 -2.4895 -2.7154 -3.8149
  186SLPC  H17Y21488   2.913   2.688   8.796  0.2651  0.2874  0.4054
  186SLPC  C31821489   2.712   2.708   8.752 -0.0212  0.0586  0.4819
  186SLPC  H18X21490   2.700   2.775   8.840 -1.7101  1.1398 -0.4976
  186SLPC  H18Y21491   2.661   2.611   8.767  1.2716 -0.7950 -0.4627
  186SLPC  H18Z21492   2.654   2.765   8.675  1.0640 -0.8995 -1.1029
  187SLPC     N21493   4.386   6.818   6.051 -0.0326 -0.2879  0.0136
  187SLPC   C1321494   4.403   6.950   6.129  0.1704 -0.5919  0.4242
  187SLPC  H13A21495   4.508   6.974   6.124  0.2020 -0.2018  2.2847
  187SLPC  H13B21496   4.341   7.027   6.085  1.2224 -0.0404 -0.1117
  187SLPC  H13C21497   4.377   6.931   6.232  1.0084 -1.2186  0.5279
  187SLPC   C1421498   4.411   6.843   5.904 -1.0543 -0.0132  0.5386
  187SLPC  H14A21499   4.503   6.896   5.884 -0.1196 -1.8079 -0.0760
  187SLPC  H14B21500   4.413   6.746   5.858  1.4206  0.4501 -0.4830
  187SLPC  H14C21501   4.331   6.904   5.864 -0.8208 -0.1422 -0.1241
  187SLPC   C1521502   4.245   6.777   6.064 -0.4771 -0.2992 -0.8395
  187SLPC  H15A21503   4.178   6.860   6.047 -1.3682 -1.0678 -1.2265
  187SLPC  H15B21504   4.220   6.697   5.995  0.0727 -1.4571  0.2715
  187SLPC  H15C21505   4.227   6.749   6.167  1.4896  0.6681 -0.1947
  187SLPC   C1221506   4.483   6.722   6.115 -0.0847  0.5038  0.1119
  187SLPC  H12A21507   4.588   6.741   6.098 -0.5257  0.5173 -3.2551
  187SLPC  H12B21508   4.479   6.632   6.056 -1.3834  0.0109  0.9004
  187SLPC   C1121509   4.464   6.691   6.263 -0.4963 -0.0532 -0.2538
  187SLPC  H11A21510   4.545   6.617   6.278 -0.0412 -0.2279 -3.0406
  187SLPC  H11B21511   4.360   6.653   6.276  0.1271 -2.6605 -2.1155
  187SLPC     P21512   4.416   6.798   6.494  0.4094 -0.6583  0.0433
  187SLPC   O1321513   4.441   6.660   6.535  0.2916  0.6120  0.3696
  187SLPC   O1421514   4.476   6.907   6.570 -0.0267  0.4236  0.6534
  187SLPC   O1221515   4.475   6.812   6.346 -0.0168  0.0910  0.0041
  187SLPC   O1121516   4.262   6.832   6.473  0.3123 -0.0947 -0.5103
  187SLPC    C121517   4.197   6.959   6.477 -0.7814  0.1682 -0.0994
  187SLPC    HA21518   4.269   7.043   6.485  2.0729 -2.2676  2.3357
  187SLPC    HB21519   4.134   6.966   6.386 -2.4519  2.0020  1.1221
  187SLPC    C221520   4.105   6.978   6.596 -0.1357 -0.7129 -0.7323
  187SLPC    HS21521   4.047   7.071   6.576 -0.1153 -0.0218  2.0341
  187SLPC   O2121522   4.201   6.980   6.699  0.2454  0.0217  0.2965
  187SLPC   C2121523   4.168   7.066   6.797 -0.0316  0.2560  0.0098
  187SLPC   O2221524   4.085   7.151   6.795 -0.3330  0.1022  0.3909
  187SLPC   C2221525   4.249   7.033   6.919 -0.6206 -0.0455 -0.3218
  187SLPC   H2R21526   4.286   6.928   6.914 -2.4926 -0.7153 -1.1811
  187SLPC   H2S21527   4.340   7.097   6.917 -0.2087 -0.6370 -1.2833
  187SLPC    C321528   4.002   6.866   6.617  0.1645 -0.2490 -0.3166
  187SLPC    HX21529   4.062   6.774   6.631  0.1005 -0.0044  2.0728
  187SLPC    HY21530   3.946   6.849   6.523 -1.8394 -2.5282  1.1796
  187SLPC   O3121531   3.910   6.888   6.727 -0.0275 -0.4966  0.1934
  187SLPC   C3121532   3.815   6.980   6.721 -0.3269 -0.4864 -0.0011
  187SLPC   O3221533   3.785   7.048   6.628 -0.0775 -0.1186  0.4733
  187SLPC   C3221534   3.748   6.988   6.862  0.0583 -0.2943 -0.2091
  187SLPC   H2X21535   3.637   6.996   6.855  0.0805  1.7092  1.0750
  187SLPC   H2Y21536   3.776   7.077   6.922 -0.6815 -0.0247 -0.2484
  187SLPC   C2321537   4.161   7.052   7.045  0.2976  0.9965  0.0664
  187SLPC   H3R21538   4.075   6.982   7.046  0.0604  1.2822 -0.0743
  187SLPC   H3S21539   4.125   7.157   7.053 -1.5336  0.5430 -1.4477
  187SLPC   C2421540   4.239   7.027   7.175 -0.0483  0.7073  0.4794
  187SLPC   H4R21541   4.327   7.095   7.172 -0.7049  1.5679 -2.3452
  187SLPC   H4S21542   4.278   6.924   7.176 -0.5291  0.4877 -0.8212
  187SLPC   C2521543   4.153   7.020   7.303 -0.0702  0.4844 -0.9767
  187SLPC   H5R21544   4.072   6.946   7.285 -0.6936  1.0811 -0.6807
  187SLPC   H5S21545   4.109   7.119   7.327 -0.0261 -0.0304  1.4679
  187SLPC   C2621546   4.233   6.970   7.429  0.5195 -0.2693  0.0756
  187SLPC   H6R21547   4.313   7.040   7.461 -0.0146  0.1106  0.6091
  187SLPC   H6S21548   4.279   6.871   7.407  0.1925 -0.3050 -0.4654
  187SLPC   C2721549   4.146   6.947   7.556  0.0121 -0.3913  0.4817
  187SLPC   H7R21550   4.075   6.865   7.535 -0.2818 -0.1506  0.5317
  187SLPC   H7S21551   4.087   7.039   7.576  0.1156 -0.5761  1.6879
  187SLPC   C2821552   4.222   6.929   7.683  0.2063 -0.1883  0.3034
  187SLPC   H8R21553   4.309   6.997   7.692  0.4548 -0.5640  0.8100
  187SLPC   H8S21554   4.273   6.832   7.668 -1.8347 -1.0806 -1.4041
  187SLPC   C2921555   4.140   6.938   7.815 -0.0190 -0.1145  0.2977
  187SLPC   H9R21556   4.076   6.850   7.834  0.3987 -0.2922  0.9031
  187SLPC  C21021557   4.136   7.037   7.903 -0.1405 -0.3026 -0.2099
  187SLPC  H10R21558   4.075   7.012   7.991  1.1875 -2.0234  0.2736
  187SLPC  C21121559   4.207   7.171   7.917 -0.2633  0.2407 -0.6854
  187SLPC  H11R21560   4.136   7.254   7.937  0.2707  1.1458 -2.4167
  187SLPC  H11S21561   4.242   7.201   7.816 -1.7093  2.7696 -0.4981
  187SLPC  C21221562   4.325   7.166   8.012  0.2569 -0.0355  0.1684
  187SLPC  H12R21563   4.424   7.173   7.963 -0.6023  0.9422 -1.4958
  187SLPC  C21321564   4.318   7.168   8.147 -0.0422  0.2880  0.3812
  187SLPC  H13R21565   4.416   7.155   8.194 -0.2771 -0.2137  0.7345
  187SLPC  C21421566   4.193   7.169   8.228 -0.0874 -0.7059 -0.9680
  187SLPC  H14R21567   4.099   7.200   8.179 -2.0680 -0.9704  2.3594
  187SLPC  H14S21568   4.209   7.237   8.314  0.8857 -0.1226 -1.5805
  187SLPC  C21521569   4.156   7.021   8.279 -1.1874 -0.5747 -0.9063
  187SLPC  H15R21570   4.243   6.974   8.329 -0.9326  0.2167 -0.5942
  187SLPC  H15S21571   4.132   6.967   8.184 -1.7041  0.2744 -1.2718
  187SLPC  C21621572   4.034   6.999   8.362  0.3541 -0.3736  0.8905
  187SLPC  H16R21573   4.003   6.893   8.349  0.6895 -0.3492 -0.2949
  187SLPC  H16S21574   3.944   7.051   8.323  0.6877  0.2607  0.9423
  187SLPC  C21721575   4.052   7.045   8.501 -0.3007  0.4349  0.0219
  187SLPC  H17R21576   4.106   7.142   8.511 -1.6896  1.2385 -0.0661
  187SLPC  H17S21577   4.101   6.961   8.554  0.6248  0.1000 -1.3046
  187SLPC  C21821578   3.918   7.066   8.573  0.5063 -0.9141 -0.0972
  187SLPC  H18R21579   3.926   7.088   8.682  0.3817 -1.6991  0.0816
  187SLPC  H18S21580   3.862   6.970   8.579 -0.6053 -0.2235  0.8155
  187SLPC  H18T21581   3.855   7.143   8.525 -0.2820 -1.6774 -0.3101
  187SLPC   C3321582   3.771   6.862   6.954  0.3355 -0.2405  0.3687
  187SLPC   H3X21583   3.880   6.858   6.976 -0.0842 -1.0617  2.5024
  187SLPC   H3Y21584   3.740   6.764   6.910 -0.3362  0.7764 -1.5190
  187SLPC   C3421585   3.684   6.872   7.083 -0.6669  0.0501 -0.8051
  187SLPC   H4X21586   3.691   6.772   7.130  0.8227 -0.1120 -1.3081
  187SLPC   H4Y21587   3.578   6.897   7.064  0.0689  2.5321 -2.0905
  187SLPC   C3521588   3.745   6.973   7.184  0.3369  0.1361 -0.2388
  187SLPC   H5X21589   3.720   7.074   7.146  0.1481  0.1045 -0.2003
  187SLPC   H5Y21590   3.855   6.956   7.184  0.3072 -0.2395  1.5001
  187SLPC   C3621591   3.688   6.962   7.326 -0.1889 -0.0685  0.2221
  187SLPC   H6X21592   3.604   6.891   7.311 -0.0168 -0.3193  0.4376
  187SLPC   H6Y21593   3.639   7.058   7.352 -0.6831 -0.1023 -0.5506
  187SLPC   C3721594   3.778   6.910   7.436  0.4343 -0.4801  0.4603
  187SLPC   H7X21595   3.847   6.832   7.397  0.2702  1.0078 -3.1946
  187SLPC   H7Y21596   3.841   6.982   7.492 -0.5031  0.1557  0.7209
  187SLPC   C3821597   3.703   6.837   7.550 -0.6986  0.5401 -0.8468
  187SLPC   H8X21598   3.621   6.775   7.509  1.1961 -2.3097 -0.6341
  187SLPC   H8Y21599   3.656   6.922   7.605 -2.0663  0.3373 -1.6503
  187SLPC   C3921600   3.779   6.751   7.651 -0.0369  0.1459 -0.3509
  187SLPC   H9X21601   3.862   6.812   7.694 -0.5699 -0.2793  1.3411
  187SLPC   H9Y21602   3.824   6.668   7.592  2.0462  0.3708  0.8317
  187SLPC  C31021603   3.679   6.688   7.756  0.2973 -0.2016 -0.1374
  187SLPC  H10X21604   3.599   6.641   7.695 -0.7193  0.8801  0.3305
  187SLPC  H10Y21605   3.625   6.773   7.805 -2.5656 -2.4340  0.8933
  187SLPC  C31121606   3.735   6.608   7.865  0.0965 -0.1760 -0.0084
  187SLPC  H11X21607   3.816   6.540   7.832  1.8780  1.6421  0.3525
  187SLPC  H11Y21608   3.653   6.555   7.918  1.5356 -0.6211  1.8992
  187SLPC  C31221609   3.786   6.702   7.984 -0.1425  0.3103  0.3821
  187SLPC  H12X21610   3.716   6.765   8.043 -0.0875 -1.1774  2.1384
  187SLPC  H12Y21611   3.869   6.759   7.939  0.9648 -1.8390 -0.4661
  187SLPC  C31321612   3.873   6.622   8.088  0.0030  0.2766  0.9836
  187SLPC  H13X21613   3.953   6.690   8.126  1.1510 -0.3516 -0.2114
  187SLPC  H13Y21614   3.949   6.556   8.040  0.8179  2.2221 -0.5672
  187SLPC  C31421615   3.796   6.575   8.214 -0.3752  0.3709  0.2938
  187SLPC  H14X21616   3.716   6.507   8.177 -1.8719  1.8333  0.7122
  187SLPC  H14Y21617   3.749   6.659   8.269 -0.8800  0.7223 -0.6489
  187SLPC  C31521618   3.878   6.502   8.330  0.1479 -0.1288 -0.5640
  187SLPC  H15X21619   3.921   6.411   8.284  1.7106 -0.1163  0.7806
  187SLPC  H15Y21620   3.796   6.465   8.395 -1.2515  1.5700 -1.2994
  187SLPC  C31621621   3.969   6.596   8.404 -0.5067 -0.2349 -0.0290
  187SLPC  H16X21622   3.922   6.696   8.414  0.6409  0.1954  1.4847
  187SLPC  H16Y21623   4.057   6.609   8.338 -0.2385  0.2164  0.4099
  187SLPC  C31721624   4.021   6.546   8.538 -0.2778 -0.3948 -0.1111
  187SLPC  H17X21625   4.043   6.439   8.522  0.1996 -0.1502 -1.1596
  187SLPC  H17Y21626   3.945   6.565   8.617  1.5091 -0.8035  1.8104
  187SLPC  C31821627   4.156   6.619   8.562  0.4050  0.1874  0.5489
  187SLPC  H18X21628   4.233   6.610   8.483 -0.9026 -0.7552 -0.6560
  187SLPC  H18Y21629   4.189   6.598   8.666  0.9800  1.6657  0.6892
  187SLPC  H18Z21630   4.125   6.726   8.560  0.0253  0.0798  0.5804
  188SLPC     N21631   3.592   1.296   6.574 -0.3032  0.8372 -0.0899
  188SLPC   C1321632   3.455   1.340   6.532  1.5269  0.7504 -1.0219
  188SLPC  H13A21633   3.422   1.295   6.439  1.1545 -1.3032  0.0557
  188SLPC  H13B21634   3.382   1.305   6.603  0.4097  1.7467 -1.6340
  188SLPC  H13C21635   3.447   1.448   6.526 -0.1253  0.7277  0.0026
  188SLPC   C1421636   3.592   1.146   6.580  0.3095 -0.3181 -0.1486
  188SLPC  H14A21637   3.576   1.100   6.483 -1.0130 -0.4866  0.1295
  188SLPC  H14B21638   3.688   1.104   6.610 -0.0997 -1.9203 -0.9424
  188SLPC  H14C21639   3.519   1.115   6.653 -1.0809  0.5833 -1.1107
  188SLPC   C1521640   3.612   1.366   6.708  0.3039 -0.0360  0.0724
  188SLPC  H15A21641   3.537   1.318   6.770 -0.5659 -0.8890 -1.5693
  188SLPC  H15B21642   3.714   1.354   6.743  0.6085 -1.7095 -1.2612
  188SLPC  H15C21643   3.586   1.470   6.695 -0.2934 -0.3848 -1.8601
  188SLPC   C1221644   3.707   1.346   6.486  0.2537 -0.0855 -0.3897
  188SLPC  H12A21645   3.805   1.330   6.528 -0.6418 -0.4805  1.6483
  188SLPC  H12B21646   3.691   1.452   6.483  0.9423  0.0642  0.7924
  188SLPC   C1121647   3.723   1.302   6.341 -0.3554 -0.3660  0.1577
  188SLPC  H11A21648   3.632   1.333   6.285  0.2875  3.8388  1.0763
  188SLPC  H11B21649   3.737   1.192   6.343  1.9585 -0.1061  0.3941
  188SLPC     P21650   3.985   1.328   6.330 -0.2619  0.1802  0.0470
  188SLPC   O1321651   3.992   1.183   6.332  0.0549  0.1811  0.1012
  188SLPC   O1421652   4.085   1.390   6.243 -0.1327 -0.0765  0.7023
  188SLPC   O1221653   3.839   1.368   6.293 -0.3664 -0.3083 -0.5017
  188SLPC   O1121654   3.994   1.367   6.479  0.4825 -0.2271  0.0481
  188SLPC    C121655   3.975   1.495   6.544  1.0224 -0.2753  0.3314
  188SLPC    HA21656   4.045   1.575   6.514  0.1239  0.1125 -0.8003
  188SLPC    HB21657   3.874   1.535   6.519  1.0980  0.8678  1.7134
  188SLPC    C221658   3.995   1.484   6.693  0.1848 -0.2964  0.3443
  188SLPC    HS21659   4.104   1.486   6.719  0.8089 -0.8280 -1.9891
  188SLPC   O2121660   3.921   1.361   6.746 -0.5550 -0.3107 -0.6439
  188SLPC   C2121661   4.001   1.254   6.764  0.4147 -0.4201 -0.2376
  188SLPC   O2221662   4.120   1.259   6.754 -0.1766 -0.7114  0.4641
  188SLPC   C2221663   3.917   1.134   6.788  0.2404 -0.1583 -0.0601
  188SLPC   H2R21664   3.829   1.129   6.721 -0.6822 -1.8509  1.2013
  188SLPC   H2S21665   3.990   1.052   6.773  0.7125 -0.4325  3.0135
  188SLPC    C321666   3.938   1.619   6.750 -0.6148  0.2175 -0.2603
  188SLPC    HX21667   3.836   1.643   6.713 -0.9265 -0.0841  0.3999
  188SLPC    HY21668   3.996   1.697   6.696 -1.5655  0.7073 -0.6018
  188SLPC   O3121669   3.953   1.636   6.890 -0.1181 -0.3179  0.2292
  188SLPC   C3121670   3.859   1.587   6.964 -0.7798  0.2423 -0.7620
  188SLPC   O3221671   3.748   1.553   6.924 -0.0275 -0.9539  0.2567
  188SLPC   C3221672   3.894   1.583   7.111  0.1851 -0.2057  0.2544
  188SLPC   H2X21673   3.811   1.624   7.171 -1.3199  1.5587 -2.7998
  188SLPC   H2Y21674   3.967   1.665   7.131  1.1952 -0.4208 -2.1536
  188SLPC   C2321675   3.870   1.130   6.933 -0.0123 -0.7759 -0.4697
  188SLPC   H3R21676   3.793   1.052   6.951 -0.1994 -0.7276 -1.0252
  188SLPC   H3S21677   3.810   1.220   6.960  0.0431 -1.3741  1.8098
  188SLPC   C2421678   3.982   1.096   7.027 -0.2541 -0.4659 -0.1786
  188SLPC   H4R21679   4.045   1.188   7.029 -0.9952  0.0453  1.7834
  188SLPC   H4S21680   4.044   1.010   6.995  0.3069 -0.5272  1.0161
  188SLPC   C2521681   3.923   1.071   7.165  1.2496 -0.1000 -0.0790
  188SLPC   H5R21682   3.869   0.974   7.155  0.8026  0.3179 -2.0708
  188SLPC   H5S21683   3.859   1.160   7.182  0.8253 -0.0166 -1.9524
  188SLPC   C2621684   4.018   1.044   7.282 -0.2352 -0.5245  0.0347
  188SLPC   H6R21685   4.111   1.102   7.267 -0.8798  0.2814 -1.0347
  188SLPC   H6S21686   4.051   0.938   7.284  0.9232 -0.2633 -2.2567
  188SLPC   C2721687   3.955   1.078   7.414  0.3708 -0.3213  0.6790
  188SLPC   H7R21688   3.861   1.021   7.428  0.6214 -0.9393 -0.0509
  188SLPC   H7S21689   3.931   1.186   7.402  0.0234  0.0104  3.6872
  188SLPC   C2821690   4.041   1.046   7.539 -0.0826  0.4168 -0.0530
  188SLPC   H8R21691   4.125   1.118   7.536  0.6548 -0.2003  2.9342
  188SLPC   H8S21692   4.084   0.944   7.529 -2.2898 -0.4565 -1.5332
  188SLPC   C2921693   3.957   1.066   7.658  0.2867 -0.0536 -0.0987
  188SLPC   H9R21694   3.867   1.127   7.638  0.7072  1.6961  2.7446
  188SLPC  C21021695   3.966   1.011   7.784 -0.7450  0.0051  0.0753
  188SLPC  H10R21696   3.895   1.059   7.853 -1.2060  1.8683 -1.6097
  188SLPC  C21121697   4.068   0.912   7.836  0.4654  0.0425 -0.4287
  188SLPC  H11R21698   4.108   0.958   7.929 -2.9458  1.3217  0.5740
  188SLPC  H11S21699   4.151   0.894   7.764 -1.1142  1.6022 -2.7947
  188SLPC  C21221700   4.004   0.779   7.861 -0.2444 -0.0291  0.6283
  188SLPC  H12R21701   3.963   0.730   7.772  0.2406 -0.3589  0.5829
  188SLPC  C21321702   4.020   0.713   7.979 -0.2580 -0.3179  0.2875
  188SLPC  H13R21703   3.982   0.609   7.985  2.3537 -1.3506  0.2220
  188SLPC  C21421704   4.096   0.750   8.103 -0.6281 -0.2406  0.3452
  188SLPC  H14R21705   4.100   0.860   8.117  1.6144 -0.1080 -0.9500
  188SLPC  H14S21706   4.197   0.705   8.105 -0.8841 -1.0756 -2.2122
  188SLPC  C21521707   4.016   0.692   8.225  1.1205 -0.1948  0.9191
  188SLPC  H15R21708   3.997   0.583   8.220 -1.0822  0.1820 -0.2885
  188SLPC  H15S21709   3.913   0.735   8.224  0.4636 -1.4959  3.9679
  188SLPC  C21621710   4.086   0.727   8.360 -0.2965 -0.0784  0.3021
  188SLPC  H16R21711   4.098   0.837   8.368  1.6074 -0.1698 -0.7042
  188SLPC  H16S21712   4.193   0.700   8.357  0.1635  1.7184 -1.9399
  188SLPC  C21721713   4.020   0.695   8.495 -0.0646 -0.5473 -0.7027
  188SLPC  H17R21714   4.093   0.722   8.574  1.1161  0.6712 -2.1394
  188SLPC  H17S21715   4.031   0.585   8.502  1.6074 -0.3646 -0.0152
  188SLPC  C21821716   3.882   0.761   8.515  0.2196  0.1992  0.2893
  188SLPC  H18R21717   3.897   0.871   8.505  1.7224 -0.1822 -2.7135
  188SLPC  H18S21718   3.850   0.728   8.616 -0.3352 -1.7803 -0.4881
  188SLPC  H18T21719   3.810   0.716   8.444  1.1027 -1.1000  0.1905
  188SLPC   C3321720   3.935   1.446   7.169  0.0990 -0.2105  0.4962
  188SLPC   H3X21721   4.015   1.396   7.111  0.2523 -0.5421  0.9933
  188SLPC   H3Y21722   3.851   1.374   7.164  0.0498 -0.1049 -0.2529
  188SLPC   C3421723   3.997   1.459   7.309 -0.3302 -0.2764 -0.5464
  188SLPC   H4X21724   4.090   1.519   7.300  0.1728 -0.9731 -0.1379
  188SLPC   H4Y21725   4.037   1.359   7.336  0.6419  0.4279  0.7067
  188SLPC   C3521726   3.903   1.509   7.414 -0.4021  0.0499 -0.0748
  188SLPC   H5X21727   3.803   1.462   7.397  0.8662 -2.9087  0.0665
  188SLPC   H5Y21728   3.877   1.617   7.407 -0.9143 -0.0950 -0.5627
  188SLPC   C3621729   3.942   1.464   7.554 -0.2595 -0.6055  0.2448
  188SLPC   H6X21730   3.934   1.353   7.553 -0.4030 -0.6259 -2.6437
  188SLPC   H6Y21731   3.876   1.511   7.631 -2.7009 -1.0024 -1.4828
  188SLPC   C3721732   4.082   1.503   7.596  0.2908  0.4966 -0.6153
  188SLPC   H7X21733   4.137   1.502   7.500 -0.8552 -1.5548 -1.3295
  188SLPC   H7Y21734   4.108   1.425   7.671 -0.8952  1.6900  1.1193
  188SLPC   C3821735   4.098   1.645   7.663 -0.1388 -0.4997 -0.3428
  188SLPC   H8X21736   4.026   1.654   7.747 -0.7544  1.2177 -1.0004
  188SLPC   H8Y21737   4.071   1.725   7.590 -1.3924  0.1490  0.7825
  188SLPC   C3921738   4.238   1.673   7.721 -0.3782  0.5364 -0.0620
  188SLPC   H9X21739   4.306   1.694   7.636  0.9382  1.4776  1.1630
  188SLPC   H9Y21740   4.269   1.578   7.770 -0.8836  1.0051  1.1986
  188SLPC  C31021741   4.241   1.788   7.829 -0.0796  0.3536  0.0080
  188SLPC  H10X21742   4.164   1.790   7.909  1.6674 -0.7026  1.8403
  188SLPC  H10Y21743   4.223   1.879   7.768 -0.5423 -0.2499 -0.7750
  188SLPC  C31121744   4.377   1.780   7.895  0.4554  0.2904  0.1760
  188SLPC  H11X21745   4.456   1.825   7.830  1.7542  1.9633  2.7148
  188SLPC  H11Y21746   4.407   1.676   7.917 -0.1319  0.4858  2.0859
  188SLPC  C31221747   4.378   1.860   8.022 -0.1711 -0.0317  0.0395
  188SLPC  H12X21748   4.308   1.816   8.096 -0.0808  0.2405  0.2868
  188SLPC  H12Y21749   4.348   1.965   8.002 -0.5489 -0.2241 -0.4206
  188SLPC  C31321750   4.511   1.873   8.092 -0.2618  0.0987 -0.7777
  188SLPC  H13X21751   4.487   1.926   8.186  1.7528 -1.7636  0.8804
  188SLPC  H13Y21752   4.577   1.943   8.037  1.4040 -0.1854  0.7759
  188SLPC  C31421753   4.593   1.745   8.113  0.4951 -0.1791  0.5268
  188SLPC  H14X21754   4.699   1.774   8.126  0.7367 -0.8569  0.0980
  188SLPC  H14Y21755   4.597   1.683   8.021 -0.4240 -0.8808  0.9440
  188SLPC  C31521756   4.540   1.664   8.228 -0.1478 -0.9828  0.0976
  188SLPC  H15X21757   4.445   1.618   8.192  0.0549 -1.7021  0.4769
  188SLPC  H15Y21758   4.494   1.722   8.311 -2.2291  0.4616 -1.9041
  188SLPC  C31621759   4.646   1.550   8.267  1.2150 -0.0988  0.6307
  188SLPC  H16X21760   4.738   1.579   8.322  1.3967  0.2149  0.1604
  188SLPC  H16Y21761   4.670   1.502   8.170  2.7757  1.5051  0.1855
  188SLPC  C31721762   4.575   1.441   8.355  0.2150 -0.9502  0.3977
  188SLPC  H17X21763   4.475   1.411   8.316 -0.6556  1.9528  0.1789
  188SLPC  H17Y21764   4.561   1.502   8.447 -3.1933 -0.2617 -0.4322
  188SLPC  C31821765   4.661   1.325   8.404 -0.0131  0.3591 -0.0269
  188SLPC  H18X21766   4.731   1.358   8.484 -1.5150  2.5698  0.4479
  188SLPC  H18Y21767   4.726   1.282   8.325 -0.8358 -2.6022  0.7719
  188SLPC  H18Z21768   4.591   1.253   8.453 -0.1277 -0.7927 -1.7849
  189SLPC     N21769   0.491   2.323   6.182  0.1590  0.7117 -0.7990
  189SLPC   C1321770   0.635   2.353   6.191  0.1038  0.2696 -0.1519
  189SLPC  H13A21771   0.690   2.297   6.265  1.4459  1.6253 -0.0793
  189SLPC  H13B21772   0.679   2.349   6.093 -0.9214  1.0559 -0.6683
  189SLPC  H13C21773   0.647   2.455   6.226 -2.1975  0.0908  1.3980
  189SLPC   C1421774   0.473   2.181   6.128 -0.1485 -0.1117 -0.5445
  189SLPC  H14A21775   0.527   2.168   6.035  0.9755  0.5709 -0.0057
  189SLPC  H14B21776   0.517   2.106   6.192  2.8521  0.1823 -2.0543
  189SLPC  H14C21777   0.369   2.151   6.120 -1.0357  2.5217  0.1796
  189SLPC   C1521778   0.430   2.422   6.092  0.4343 -0.4256  0.4148
  189SLPC  H15A21779   0.484   2.411   5.999 -0.1944  3.7975 -0.6687
  189SLPC  H15B21780   0.326   2.398   6.078  0.4842 -0.4389  0.0312
  189SLPC  H15C21781   0.438   2.523   6.128  0.1219 -0.3106  0.1701
  189SLPC   C1221782   0.420   2.320   6.318 -0.4154 -0.6114  0.2797
  189SLPC  H12A21783   0.467   2.239   6.372 -0.0016  0.1082  1.0279
  189SLPC  H12B21784   0.314   2.320   6.299 -0.3583  2.1432 -0.4306
  189SLPC   C1121785   0.445   2.453   6.404  0.3871  0.1568 -0.4225
  189SLPC  H11A21786   0.555   2.459   6.415  0.2845  0.9214  0.2352
  189SLPC  H11B21787   0.404   2.439   6.506  0.2421  0.8329 -0.3871
  189SLPC     P21788   0.454   2.712   6.345  0.3345 -0.2479 -0.0930
  189SLPC   O1321789   0.504   2.734   6.208  0.1893 -0.1398 -0.0896
  189SLPC   O1421790   0.368   2.815   6.403  0.1513 -0.6584 -0.1538
  189SLPC   O1221791   0.385   2.570   6.344  0.4895  0.1884  0.1109
  189SLPC   O1121792   0.572   2.681   6.443 -0.4072  0.1890 -0.3057
  189SLPC    C121793   0.582   2.757   6.565  0.4358  0.0679  0.3121
  189SLPC    HA21794   0.690   2.780   6.580  0.2150  0.0541  2.0457
  189SLPC    HB21795   0.535   2.857   6.568 -0.8236 -0.5307  1.0513
  189SLPC    C221796   0.532   2.676   6.685 -0.5634 -0.0463 -0.2201
  189SLPC    HS21797   0.566   2.734   6.774 -0.9708  1.5591 -1.0644
  189SLPC   O2121798   0.581   2.534   6.691  0.1604 -0.9103  0.1055
  189SLPC   C2121799   0.706   2.525   6.744  0.7399 -0.0211 -0.4219
  189SLPC   O2221800   0.774   2.622   6.782  0.7268  0.0084 -0.2863
  189SLPC   C2221801   0.745   2.382   6.724 -0.3880 -0.1134 -0.3638
  189SLPC   H2R21802   0.658   2.321   6.691 -0.7083 -1.6666  2.9409
  189SLPC   H2S21803   0.829   2.386   6.651 -0.0127  1.3650  0.1145
  189SLPC    C321804   0.382   2.663   6.697 -0.4661 -0.4674 -0.6208
  189SLPC    HX21805   0.350   2.580   6.632 -1.5529  0.8426 -1.8256
  189SLPC    HY21806   0.326   2.754   6.665 -0.8269 -1.0079 -1.5558
  189SLPC   O3121807   0.349   2.639   6.833 -0.0113  0.2530 -0.2997
  189SLPC   C3121808   0.226   2.590   6.843  0.1826 -0.1781 -0.6514
  189SLPC   O3221809   0.153   2.561   6.751 -0.2498 -0.2032 -1.0616
  189SLPC   C3221810   0.181   2.585   6.983 -0.6743  0.2154  0.1902
  189SLPC   H2X21811   0.076   2.548   6.978 -0.3945 -0.8257  1.3002
  189SLPC   H2Y21812   0.189   2.685   7.029 -2.8288  0.1381  0.8443
  189SLPC   C2321813   0.798   2.321   6.855  0.3121 -0.0242 -0.4166
  189SLPC   H3R21814   0.882   2.381   6.894 -0.5078 -0.0360  1.4684
  189SLPC   H3S21815   0.844   2.221   6.835  2.6866  0.6302  1.4589
  189SLPC   C2421816   0.690   2.289   6.958  0.0342 -0.6517 -0.2756
  189SLPC   H4R21817   0.606   2.228   6.917 -0.9103  1.8900 -2.3866
  189SLPC   H4S21818   0.642   2.384   6.990 -0.3673 -1.6199  2.2252
  189SLPC   C2521819   0.746   2.196   7.067 -0.2411 -0.2440  0.4648
  189SLPC   H5R21820   0.827   2.249   7.122  0.7616 -2.3387  1.1225
  189SLPC   H5S21821   0.801   2.106   7.034 -0.0946  0.2458 -0.6800
  189SLPC   C2621822   0.628   2.139   7.155 -0.1842 -0.0520 -0.1084
  189SLPC   H6R21823   0.560   2.082   7.088 -0.1024  1.0411 -1.1575
  189SLPC   H6S21824   0.566   2.223   7.192 -0.0898  1.0337 -2.2318
  189SLPC   C2721825   0.686   2.045   7.267  0.5400 -0.9119 -0.2162
  189SLPC   H7R21826   0.763   2.107   7.315 -1.1772  1.2905 -0.1294
  189SLPC   H7S21827   0.729   1.959   7.210  1.3439 -0.5697 -0.1315
  189SLPC   C2821828   0.575   1.999   7.360  0.1319  1.0345 -0.0467
  189SLPC   H8R21829   0.496   1.951   7.298  1.0323 -1.2005  0.4805
  189SLPC   H8S21830   0.526   2.091   7.400 -0.8668  0.0443  1.0588
  189SLPC   C2921831   0.625   1.912   7.468 -0.3542  0.5489 -0.1373
  189SLPC   H9R21832   0.622   1.805   7.443 -2.1854  0.7944 -1.1876
  189SLPC  C21021833   0.687   1.944   7.587  0.0389  0.4662 -0.1288
  189SLPC  H10R21834   0.722   1.859   7.648 -3.6789 -1.7718 -0.8043
  189SLPC  C21121835   0.706   2.082   7.628 -0.7457  0.4210 -0.1616
  189SLPC  H11R21836   0.624   2.104   7.700  0.4260  1.1370  1.0100
  189SLPC  H11S21837   0.687   2.165   7.557  0.5028  0.3282 -0.6332
  189SLPC  C21221838   0.841   2.122   7.691 -0.3931  0.3075 -0.6353
  189SLPC  H12R21839   0.903   2.173   7.615  0.2646 -1.3765 -1.2786
  189SLPC  C21321840   0.889   2.093   7.812 -0.2304  0.2411 -0.3520
  189SLPC  H13R21841   0.994   2.110   7.842 -0.8399 -0.8815  2.8282
  189SLPC  C21421842   0.816   2.011   7.921 -0.2374  0.1530 -0.2099
  189SLPC  H14R21843   0.776   1.923   7.868 -2.7154  1.4432 -0.6490
  189SLPC  H14S21844   0.726   2.058   7.967 -0.0860  1.4626 -1.2065
  189SLPC  C21521845   0.903   1.960   8.036  0.3069 -0.2288 -0.3356
  189SLPC  H15R21846   0.997   1.913   7.999  0.8853 -1.3319  2.2554
  189SLPC  H15S21847   0.862   1.876   8.095 -0.4093 -0.8237 -1.6384
  189SLPC  C21621848   0.930   2.058   8.148 -0.8962  0.1024 -0.1329
  189SLPC  H16R21849   0.837   2.116   8.167 -3.6681 -3.5469 -1.3686
  189SLPC  H16S21850   1.013   2.122   8.112  0.3223 -2.0629 -1.3725
  189SLPC  C21721851   0.977   1.986   8.279 -0.1123 -0.8097 -1.2889
  189SLPC  H17R21852   1.037   2.056   8.341 -0.5626 -3.2440  2.2108
  189SLPC  H17S21853   1.038   1.898   8.251  1.9462 -0.6280  2.1225
  189SLPC  C21821854   0.858   1.925   8.363  0.9424 -0.4866  0.9390
  189SLPC  H18R21855   0.892   1.865   8.451  0.8638 -0.6411  0.8636
  189SLPC  H18S21856   0.801   1.870   8.286  2.6997  3.5033 -3.6926
  189SLPC  H18T21857   0.795   2.009   8.401  0.6970 -0.7320  1.0850
  189SLPC   C3321858   0.263   2.480   7.070 -0.9754 -0.3225  0.6251
  189SLPC   H3X21859   0.370   2.507   7.076 -0.5253 -2.1163  1.1650
  189SLPC   H3Y21860   0.280   2.385   7.015  2.0376  0.1616  0.5839
  189SLPC   C3421861   0.196   2.460   7.200 -0.4007 -0.7131  0.2801
  189SLPC   H4X21862   0.093   2.424   7.183 -0.7697  0.3999  0.0794
  189SLPC   H4Y21863   0.191   2.560   7.248 -1.0623  0.3676 -1.9254
  189SLPC   C3521864   0.268   2.358   7.297  0.2777 -0.0003 -0.0289
  189SLPC   H5X21865   0.379   2.360   7.292  0.2522  1.0145 -0.4186
  189SLPC   H5Y21866   0.241   2.258   7.256 -0.3132  0.5042 -0.8981
  189SLPC   C3621867   0.214   2.364   7.441  0.7665 -1.0507 -0.2788
  189SLPC   H6X21868   0.104   2.371   7.447  0.8530 -0.6450  1.2649
  189SLPC   H6Y21869   0.263   2.454   7.484  2.2716 -1.6175 -0.7169
  189SLPC   C3721870   0.257   2.248   7.532  0.2449 -0.9071  0.8667
  189SLPC   H7X21871   0.362   2.217   7.512  0.0928 -1.6940  1.2292
  189SLPC   H7Y21872   0.187   2.164   7.513 -2.6525  1.7520 -1.0417
  189SLPC   C3821873   0.241   2.288   7.682 -0.1074 -0.4569 -0.5562
  189SLPC   H8X21874   0.137   2.323   7.703  0.7720  1.5224  0.7623
  189SLPC   H8Y21875   0.304   2.372   7.717  0.1365 -0.1329 -1.7158
  189SLPC   C3921876   0.280   2.171   7.773 -0.4680  0.4532 -0.1939
  189SLPC   H9X21877   0.376   2.130   7.733 -0.9868  1.1096 -2.2398
  189SLPC   H9Y21878   0.201   2.096   7.750 -1.6532  2.0323 -1.5014
  189SLPC  C31021879   0.281   2.208   7.919 -0.1280  0.0216  0.8889
  189SLPC  H10X21880   0.192   2.274   7.929 -0.5258 -0.0483 -1.4838
  189SLPC  H10Y21881   0.373   2.261   7.953 -0.7163  0.8192  1.2770
  189SLPC  C31121882   0.250   2.093   8.018 -0.1646  0.0968 -0.0739
  189SLPC  H11X21883   0.149   2.058   7.986 -0.9178  0.1712  2.0764
  189SLPC  H11Y21884   0.254   2.129   8.123  1.8238  0.5733 -0.2759
  189SLPC  C31221885   0.354   1.974   7.997  1.1992 -0.7804  0.0719
  189SLPC  H12X21886   0.453   2.021   7.981  0.3525  0.8857 -0.5201
  189SLPC  H12Y21887   0.328   1.914   7.907 -0.8996  1.2858 -0.8001
  189SLPC  C31321888   0.357   1.897   8.130 -0.2413  0.5700 -0.5558
  189SLPC  H13X21889   0.250   1.882   8.154 -0.2724  1.9215  0.2969
  189SLPC  H13Y21890   0.410   1.948   8.214 -0.0673  1.2309 -1.0646
  189SLPC  C31421891   0.434   1.761   8.113 -0.1868  0.2659 -0.0034
  189SLPC  H14X21892   0.425   1.728   8.007  1.8535  0.0102 -0.1475
  189SLPC  H14Y21893   0.387   1.695   8.189  0.6503  0.1853  0.4571
  189SLPC  C31521894   0.588   1.791   8.136  0.0176  0.0763 -0.1053
  189SLPC  H15X21895   0.590   1.847   8.232  0.2127  0.8116 -0.5273
  189SLPC  H15Y21896   0.641   1.852   8.061 -0.7602  0.5691 -0.2641
  189SLPC  C31621897   0.664   1.654   8.153 -0.0777  0.5678  0.1815
  189SLPC  H16X21898   0.762   1.685   8.109 -0.7629 -0.9293 -2.6882
  189SLPC  H16Y21899   0.622   1.580   8.081  2.8772 -0.4729 -0.6383
  189SLPC  C31721900   0.657   1.608   8.294 -0.7555  0.3621 -0.8336
  189SLPC  H17X21901   0.557   1.613   8.343 -0.8259 -2.2135 -0.5534
  189SLPC  H17Y21902   0.722   1.665   8.363 -0.8872 -0.3854 -0.0726
  189SLPC  C31821903   0.712   1.462   8.295  0.1917 -0.2475 -0.4015
  189SLPC  H18X21904   0.808   1.448   8.242  0.3315  0.2947 -0.2929
  189SLPC  H18Y21905   0.632   1.399   8.250  0.4120 -0.3665 -0.6313
  189SLPC  H18Z21906   0.733   1.428   8.399 -1.6442 -2.1783 -0.5834
  190SLPC     N21907   0.194   1.865   5.885 -0.2256  0.0585  0.3257
  190SLPC   C1321908   0.215   1.771   5.778 -0.8584 -0.0840  0.8436
  190SLPC  H13A21909   0.313   1.730   5.794 -2.1379 -4.0619 -0.2019
  190SLPC  H13B21910   0.150   1.685   5.787  0.5219 -1.3973 -0.9250
  190SLPC  H13C21911   0.208   1.817   5.680  2.0282 -2.8902 -0.8818
  190SLPC   C1421912   0.055   1.924   5.881 -0.2309  0.2024 -0.7173
  190SLPC  H14A21913  -0.018   1.847   5.903  0.6015 -0.3925  0.0407
  190SLPC  H14B21914   0.057   1.990   5.966  0.0263 -1.4493  0.6143
  190SLPC  H14C21915   0.031   1.977   5.790  2.1523  1.4882 -0.6887
  190SLPC   C1521916   0.284   1.981   5.870  0.2189 -0.0944 -0.3406
  190SLPC  H15A21917   0.270   2.058   5.944  2.0303  2.9555 -2.8846
  190SLPC  H15B21918   0.387   1.947   5.863 -0.1980 -1.5776  0.4281
  190SLPC  H15C21919   0.262   2.029   5.776 -0.1125  0.2008 -0.1132
  190SLPC   C1221920   0.217   1.802   6.019 -1.0173 -0.0176 -0.3795
  190SLPC  H12A21921   0.132   1.742   6.045 -1.3500  0.3884 -0.5126
  190SLPC  H12B21922   0.201   1.885   6.087 -2.9309  1.3476 -2.3412
  190SLPC   C1121923   0.351   1.729   6.048  0.0821  1.2416  0.6906
  190SLPC  H11A21924   0.364   1.636   5.989 -1.8056  0.1035  1.9669
  190SLPC  H11B21925   0.353   1.696   6.154  1.0435 -1.2975 -0.0326
  190SLPC     P21926   0.609   1.809   6.098 -0.0496 -0.1544  0.5958
  190SLPC   O1321927   0.676   1.686   6.048  0.3064 -0.2842 -0.1173
  190SLPC   O1421928   0.672   1.941   6.081  0.2821  0.5641  0.3247
  190SLPC   O1221929   0.466   1.817   6.028 -0.0808  0.0534  0.1976
  190SLPC   O1121930   0.561   1.784   6.246  0.3672 -0.3485 -0.6724
  190SLPC    C121931   0.498   1.889   6.321  0.3020 -0.3469  0.5769
  190SLPC    HA21932   0.527   1.990   6.284 -0.7669 -0.4869 -0.7218
  190SLPC    HB21933   0.389   1.870   6.317  0.0359  0.2104  3.4453
  190SLPC    C221934   0.535   1.887   6.474  0.4529  0.4974  0.6214
  190SLPC    HS21935   0.478   1.972   6.519 -0.9458  0.9282 -1.7637
  190SLPC   O2121936   0.677   1.889   6.495  0.0256  0.2243  0.1389
  190SLPC   C2121937   0.720   2.020   6.491  0.7155  0.5549 -0.3557
  190SLPC   O2221938   0.643   2.113   6.492  0.6298 -0.1154  0.3951
  190SLPC   C2221939   0.868   2.034   6.497 -0.5579 -0.2686  0.3702
  190SLPC   H2R21940   0.900   2.090   6.407  0.8449 -1.1061  0.3066
  190SLPC   H2S21941   0.881   2.104   6.583 -0.3845 -0.0708  0.1836
  190SLPC    C321942   0.482   1.752   6.536  0.1017 -0.4089  0.3657
  190SLPC    HX21943   0.516   1.671   6.468  1.1598 -2.2234  2.8845
  190SLPC    HY21944   0.371   1.743   6.536  0.1961 -1.8954  0.9199
  190SLPC   O3121945   0.531   1.732   6.672  0.1421 -0.2440 -0.1366
  190SLPC   C3121946   0.628   1.655   6.690 -0.5209  0.0533  1.0534
  190SLPC   O3221947   0.667   1.575   6.603 -0.6355  0.2346 -0.2308
  190SLPC   C3221948   0.693   1.678   6.827  0.3832  0.7574 -0.2074
  190SLPC   H2X21949   0.665   1.777   6.869  1.4045  1.2569 -0.6625
  190SLPC   H2Y21950   0.804   1.683   6.818  0.9523 -2.1565  3.0001
  190SLPC   C2321951   0.951   1.906   6.504  0.1533  0.1767 -0.2447
  190SLPC   H3R21952   1.045   1.941   6.455  1.0758 -1.0246  0.6065
  190SLPC   H3S21953   0.907   1.822   6.445  1.4316 -2.1891  1.9811
  190SLPC   C2421954   0.969   1.859   6.647  0.1166 -0.2410  0.0873
  190SLPC   H4R21955   0.994   1.751   6.653  1.6446  0.1456  1.2859
  190SLPC   H4S21956   0.873   1.875   6.700 -0.1462  0.3333 -0.5356
  190SLPC   C2521957   1.081   1.940   6.712 -1.1229  0.0096  0.1201
  190SLPC   H5R21958   1.063   2.049   6.704 -2.9900 -0.3914 -2.4785
  190SLPC   H5S21959   1.178   1.929   6.659 -2.8711 -0.2367 -3.2699
  190SLPC   C2621960   1.098   1.914   6.866 -0.1034 -0.6131  0.5621
  190SLPC   H6R21961   1.128   1.807   6.868 -1.2537 -0.9774 -0.6220
  190SLPC   H6S21962   1.000   1.927   6.917  0.8444  0.8715  2.1275
  190SLPC   C2721963   1.210   2.001   6.931  0.0038  0.3479  0.2627
  190SLPC   H7R21964   1.192   2.110   6.914 -0.8766  0.8560  3.6280
  190SLPC   H7S21965   1.311   1.972   6.899 -0.2389 -0.9586  0.6393
  190SLPC   C2821966   1.204   1.987   7.087  0.2512 -0.2440  0.1866
  190SLPC   H8R21967   1.301   2.020   7.129  0.7208 -0.8236 -0.4056
  190SLPC   H8S21968   1.193   1.877   7.101  2.9257 -0.9459 -2.0645
  190SLPC   C2921969   1.085   2.049   7.152 -0.6135  0.4365  0.1605
  190SLPC   H9R21970   1.036   2.138   7.110 -0.8897  0.5931  0.8149
  190SLPC  C21021971   1.046   2.006   7.272 -0.2614 -0.1083 -0.0208
  190SLPC  H10R21972   0.955   2.046   7.321 -0.2820  0.0150 -0.1623
  190SLPC  C21121973   1.095   1.886   7.350  0.5934 -1.0087 -0.2424
  190SLPC  H11R21974   1.121   1.930   7.449  0.0381  0.3311 -0.6616
  190SLPC  H11S21975   1.191   1.844   7.314  1.1038 -1.8059  1.9360
  190SLPC  C21221976   0.997   1.769   7.364 -0.1968 -0.7640  0.2882
  190SLPC  H12R21977   0.940   1.756   7.270 -2.3855 -1.5732  1.6552
  190SLPC  C21321978   0.972   1.694   7.472 -0.0168  0.2053  0.4167
  190SLPC  H13R21979   0.906   1.607   7.459 -1.4143  1.4367 -1.2466
  190SLPC  C21421980   1.043   1.717   7.605  0.6496 -0.5542 -0.4081
  190SLPC  H14R21981   1.035   1.824   7.634 -0.1939 -0.4609 -0.9333
  190SLPC  H14S21982   1.153   1.703   7.599  0.9069  1.5833 -1.7269
  190SLPC  C21521983   0.981   1.620   7.707  0.4891  0.6156 -0.2462
  190SLPC  H15R21984   0.997   1.515   7.674 -0.3568  1.0508 -2.1986
  190SLPC  H15S21985   0.870   1.630   7.713  0.1785 -2.2834  0.5688
  190SLPC  C21621986   1.033   1.644   7.847 -0.3019 -0.7047  0.7980
  190SLPC  H16R21987   1.002   1.740   7.893  1.3676  0.5966 -0.6318
  190SLPC  H16S21988   1.144   1.648   7.836 -0.1629 -1.8166  1.5902
  190SLPC  C21721989   0.975   1.540   7.941 -0.4157 -0.0124  0.3779
  190SLPC  H17R21990   1.022   1.449   7.900  1.3007  0.1532  1.8255
  190SLPC  H17S21991   0.865   1.532   7.937 -0.4346 -0.2625  1.1230
  190SLPC  C21821992   1.023   1.557   8.086 -0.5295  0.0407 -0.2983
  190SLPC  H18R21993   0.998   1.475   8.157 -0.3428  1.4203  1.4433
  190SLPC  H18S21994   0.978   1.653   8.118  0.7132  0.3434  0.6212
  190SLPC  H18T21995   1.134   1.566   8.085 -0.4980 -0.3416 -1.6371
  190SLPC   C3321996   0.647   1.570   6.937 -0.4491  0.9826 -0.1649
  190SLPC   H3X21997   0.713   1.483   6.915 -0.4078  1.2356 -1.0930
  190SLPC   H3Y21998   0.543   1.533   6.924 -0.3494  0.0288  1.5235
  190SLPC   C3421999   0.665   1.615   7.084 -0.1888 -0.5362 -0.4442
  190SLPC   H4X22000   0.600   1.702   7.107 -0.2420 -0.4710 -0.8354
  190SLPC   H4Y22001   0.768   1.651   7.104 -0.1124  0.2303 -2.0990
  190SLPC   C3522002   0.635   1.496   7.174  0.2451 -0.3604  0.2527
  190SLPC   H5X22003   0.702   1.409   7.157 -0.0423 -0.4947 -0.2128
  190SLPC   H5Y22004   0.529   1.465   7.162  0.0836 -1.0786  2.9121
  190SLPC   C3622005   0.621   1.548   7.318 -0.0379  0.1237  0.4002
  190SLPC   H6X22006   0.543   1.626   7.308 -0.0545  0.3860  2.2280
  190SLPC   H6Y22007   0.715   1.601   7.344  0.5596 -2.0348  3.1328
  190SLPC   C3722008   0.580   1.450   7.426 -0.2523 -1.1997 -0.1705
  190SLPC   H7X22009   0.641   1.357   7.420  1.4704 -0.2669  1.7681
  190SLPC   H7Y22010   0.472   1.425   7.418 -0.9986  1.5235  0.3950
  190SLPC   C3822011   0.590   1.513   7.567 -0.2849 -0.3699 -0.1797
  190SLPC   H8X22012   0.546   1.615   7.573 -0.5334 -0.5345  1.3450
  190SLPC   H8Y22013   0.701   1.509   7.577 -0.2624 -0.7059 -0.5484
  190SLPC   C3922014   0.526   1.418   7.676 -0.0768  0.4862 -0.4987
  190SLPC   H9X22015   0.548   1.311   7.657 -1.0105 -0.3348  2.4045
  190SLPC   H9Y22016   0.416   1.438   7.681 -0.3199 -0.8234 -0.3426
  190SLPC  C31022017   0.586   1.438   7.829 -0.0983  0.1186  0.1264
  190SLPC  H10X22018   0.591   1.549   7.838  0.0932  0.1501 -0.3168
  190SLPC  H10Y22019   0.690   1.401   7.816 -1.1807 -2.8861 -0.7035
  190SLPC  C31122020   0.509   1.368   7.941 -0.0480  0.1042 -0.6335
  190SLPC  H11X22021   0.406   1.411   7.941 -0.9861 -1.7899 -3.8388
  190SLPC  H11Y22022   0.547   1.397   8.041  0.4247 -1.0144 -0.4772
  190SLPC  C31222023   0.515   1.218   7.935 -0.4386  0.4391  0.6921
  190SLPC  H12X22024   0.619   1.181   7.951 -1.1467 -1.5990  0.8784
  190SLPC  H12Y22025   0.482   1.188   7.834 -1.4337  4.1037 -0.2048
  190SLPC  C31322026   0.431   1.147   8.036  0.4212  0.0040  0.3522
  190SLPC  H13X22027   0.486   1.159   8.131  2.2166  0.2868 -0.6656
  190SLPC  H13Y22028   0.435   1.040   8.006  1.0822  0.0138  0.4014
  190SLPC  C31422029   0.288   1.197   8.044  0.2298 -0.2003  0.5742
  190SLPC  H14X22030   0.254   1.191   7.938 -0.0823  2.3475  0.4542
  190SLPC  H14Y22031   0.287   1.305   8.072 -2.0345 -0.1065  0.3348
  190SLPC  C31522032   0.201   1.121   8.139  0.2975  0.1923 -0.7799
  190SLPC  H15X22033   0.102   1.169   8.155  0.5559  0.5976 -0.3884
  190SLPC  H15Y22034   0.254   1.114   8.237 -0.5710 -1.0339 -0.3593
  190SLPC  C31622035   0.179   0.965   8.120 -0.0313 -0.6225  0.0637
  190SLPC  H16X22036   0.284   0.928   8.122  1.8191  4.0145 -0.0093
  190SLPC  H16Y22037   0.128   0.931   8.027  1.6723 -2.6282 -0.2122
  190SLPC  C31722038   0.102   0.899   8.235 -1.0339  0.2523 -0.1255
  190SLPC  H17X22039   0.060   0.800   8.205 -0.4225 -1.2856  3.5053
  190SLPC  H17Y22040   0.009   0.952   8.265 -0.4351  2.2126 -1.5294
  190SLPC  C31822041   0.176   0.889   8.367 -0.1674 -0.1887  0.4996
  190SLPC  H18X22042   0.180   0.989   8.417 -0.3602 -0.2248  0.5862
  190SLPC  H18Y22043   0.282   0.862   8.349 -0.7775 -2.9615  0.6636
  190SLPC  H18Z22044   0.137   0.820   8.445  0.2257  0.2309  1.0788
  191SLPC     N22045   6.004   3.502   6.114 -0.2902 -0.1636 -0.7625
  191SLPC   C1322046   5.977   3.579   6.238  0.4790 -0.1413 -0.3905
  191SLPC  H13A22047   5.877   3.560   6.273  0.2070 -1.3128 -1.7285
  191SLPC  H13B22048   6.050   3.549   6.312 -0.7981  0.3763  1.1372
  191SLPC  H13C22049   5.982   3.684   6.212 -0.1942  0.8013  2.8240
  191SLPC   C1422050   5.932   3.371   6.123  0.0630  0.2642 -0.1964
  191SLPC  H14A22051   5.958   3.309   6.207 -0.4654 -1.6747 -1.4062
  191SLPC  H14B22052   5.824   3.382   6.125  0.1783  1.6205 -0.5811
  191SLPC  H14C22053   5.955   3.317   6.032 -1.8236 -0.3511 -0.3562
  191SLPC   C1522054   6.153   3.479   6.100  0.0421  0.4395 -0.0305
  191SLPC  H15A22055   6.182   3.408   6.177 -1.9133  0.3393  0.6853
  191SLPC  H15B22056   6.176   3.430   6.007 -2.9421 -1.9156  0.3310
  191SLPC  H15C22057   6.210   3.570   6.091  1.7994 -0.6375 -0.2521
  191SLPC   C1222058   5.958   3.583   5.990 -0.0656 -0.4534 -0.2346
  191SLPC  H12A22059   5.993   3.685   5.994 -2.2283  0.2988  1.0131
  191SLPC  H12B22060   5.852   3.598   6.002  0.1818 -0.6462  2.8162
  191SLPC   C1122061   5.967   3.517   5.848  0.2748 -0.8357 -0.5082
  191SLPC  H11A22062   6.073   3.516   5.815  0.6529  0.9471  0.4662
  191SLPC  H11B22063   5.927   3.594   5.778  1.0246 -0.0280 -0.0817
  191SLPC     P22064   5.747   3.386   5.812  0.4274 -0.2660 -0.2671
  191SLPC   O1322065   5.726   3.402   5.669  0.3649 -0.0891  0.5562
  191SLPC   O1422066   5.701   3.258   5.879  0.3499  0.0120  0.4274
  191SLPC   O1222067   5.904   3.394   5.842  0.0579  1.0380 -0.2403
  191SLPC   O1122068   5.705   3.508   5.890 -0.2168 -0.4337 -0.0880
  191SLPC    C122069   5.577   3.564   5.888  0.8738 -0.2520  0.0667
  191SLPC    HA22070   5.588   3.671   5.862  3.4224 -0.6670 -0.8436
  191SLPC    HB22071   5.506   3.523   5.814  0.5469  1.3275 -0.5380
  191SLPC    C222072   5.506   3.549   6.024  0.8693 -0.3681 -1.2877
  191SLPC    HS22073   5.402   3.588   6.012  1.6819  1.5565 -2.4015
  191SLPC   O2122074   5.578   3.626   6.132  0.1089  0.7881 -0.2398
  191SLPC   C2122075   5.562   3.757   6.121  0.3167  0.1894  0.0629
  191SLPC   O2222076   5.490   3.814   6.042  0.0286  0.0130 -0.1872
  191SLPC   C2222077   5.653   3.827   6.220  0.4780  0.1759 -0.4330
  191SLPC   H2R22078   5.758   3.818   6.183  0.7000 -2.4890  0.5662
  191SLPC   H2S22079   5.605   3.926   6.226 -0.3502 -0.2760  0.9062
  191SLPC    C322080   5.485   3.396   6.070 -0.7624  0.2178 -1.0637
  191SLPC    HX22081   5.585   3.355   6.093 -1.6828 -2.3373 -1.2968
  191SLPC    HY22082   5.436   3.344   5.985 -0.8661 -0.3907 -0.6403
  191SLPC   O3122083   5.398   3.400   6.187  0.4306  0.2549 -0.3965
  191SLPC   C3122084   5.391   3.272   6.250  0.4420 -0.3868  0.4208
  191SLPC   O3222085   5.438   3.171   6.206 -0.6166  0.2669  0.1089
  191SLPC   C3222086   5.312   3.293   6.377 -0.0545 -0.2567 -0.1491
  191SLPC   H2X22087   5.356   3.221   6.450 -1.5136 -2.0694 -0.9734
  191SLPC   H2Y22088   5.211   3.255   6.353  0.4846 -1.3034 -0.8568
  191SLPC   C2322089   5.633   3.781   6.372 -0.3655  0.7443 -0.6731
  191SLPC   H3R22090   5.703   3.696   6.389 -0.8180  0.2914 -1.0153
  191SLPC   H3S22091   5.532   3.740   6.394 -0.0835 -0.8569 -2.1054
  191SLPC   C2422092   5.664   3.886   6.479 -0.3731 -0.1117  0.9672
  191SLPC   H4R22093   5.601   3.977   6.478  0.9207  0.8229  0.2246
  191SLPC   H4S22094   5.756   3.930   6.434  0.3807 -1.2616  1.3286
  191SLPC   C2522095   5.682   3.834   6.621 -0.7671  0.4670  0.9237
  191SLPC   H5R22096   5.712   3.925   6.676 -0.7813  1.4139 -0.6029
  191SLPC   H5S22097   5.767   3.763   6.629  1.3247  2.5611 -1.3476
  191SLPC   C2622098   5.549   3.802   6.694 -0.1975 -0.5544  0.0299
  191SLPC   H6R22099   5.488   3.732   6.632 -1.7225 -1.8142  2.7848
  191SLPC   H6S22100   5.486   3.893   6.702  1.5221  0.8063 -0.9679
  191SLPC   C2722101   5.571   3.749   6.836 -1.2700 -0.2495 -0.2757
  191SLPC   H7R22102   5.640   3.822   6.884 -2.5980  1.0952 -0.3088
  191SLPC   H7S22103   5.607   3.646   6.816 -0.1029  0.0430  0.2357
  191SLPC   C2822104   5.442   3.760   6.926 -0.6297 -0.3836  0.1378
  191SLPC   H8R22105   5.391   3.855   6.900  0.1622 -0.1394 -0.5583
  191SLPC   H8S22106   5.473   3.768   7.033 -0.0145  0.8486 -0.1104
  191SLPC   C2922107   5.350   3.642   6.914  0.2063  0.2730  0.6049
  191SLPC   H9R22108   5.313   3.620   6.813 -1.8533  2.1920  0.8569
  191SLPC  C21022109   5.317   3.562   7.013 -0.0549 -0.4194 -0.4290
  191SLPC  H10R22110   5.249   3.480   6.985 -1.1883 -0.2405  1.5549
  191SLPC  C21122111   5.348   3.574   7.163 -0.1993  0.1781  0.0974
  191SLPC  H11R22112   5.261   3.620   7.215 -0.0588 -0.2451  0.7269
  191SLPC  H11S22113   5.439   3.634   7.186  1.1206 -1.5894 -0.2477
  191SLPC  C21222114   5.384   3.441   7.222  0.0825  0.2464  0.1829
  191SLPC  H12R22115   5.462   3.389   7.165  1.8505  3.2970 -0.4205
  191SLPC  C21322116   5.340   3.391   7.341  0.5142 -0.3881  0.2680
  191SLPC  H13R22117   5.367   3.288   7.368 -1.2841 -0.4972  1.8645
  191SLPC  C21422118   5.239   3.460   7.433  0.1836 -0.2845 -1.1097
  191SLPC  H14R22119   5.141   3.408   7.443  1.9069 -4.0050 -1.7493
  191SLPC  H14S22120   5.238   3.570   7.423 -2.4791  0.2830  2.9599
  191SLPC  C21522121   5.293   3.434   7.574  0.7568 -0.1531  0.0733
  191SLPC  H15R22122   5.389   3.483   7.600  0.2567  0.4929  0.7381
  191SLPC  H15S22123   5.310   3.324   7.581 -0.8327 -0.4723 -0.7438
  191SLPC  C21622124   5.200   3.466   7.695  0.0689  0.0753  0.0894
  191SLPC  H16R22125   5.106   3.410   7.675  0.7319 -1.5569  1.3723
  191SLPC  H16S22126   5.186   3.576   7.699  2.6379  0.4318  1.1081
  191SLPC  C21722127   5.267   3.408   7.825  0.0732  0.1076  0.0851
  191SLPC  H17R22128   5.362   3.465   7.832 -0.1507  0.6473 -0.9546
  191SLPC  H17S22129   5.290   3.299   7.818 -0.4691 -0.1469  1.8524
  191SLPC  C21822130   5.196   3.433   7.959  0.3498 -0.0660  0.7719
  191SLPC  H18R22131   5.087   3.412   7.951  0.3274  0.6317 -1.4334
  191SLPC  H18S22132   5.203   3.542   7.979 -0.5044  0.6175 -2.1087
  191SLPC  H18T22133   5.227   3.371   8.046 -0.9712 -1.6903  0.1433
  191SLPC   C3322134   5.289   3.438   6.428  0.0824 -0.1288  0.4147
  191SLPC   H3X22135   5.229   3.480   6.344 -0.2232  1.1730  1.2532
  191SLPC   H3Y22136   5.386   3.493   6.432  0.5846 -0.6487 -2.3580
  191SLPC   C3422137   5.198   3.450   6.548  0.1901  0.4581  1.1690
  191SLPC   H4X22138   5.101   3.402   6.521  0.1394  0.5529  1.1818
  191SLPC   H4Y22139   5.188   3.559   6.567  2.3566  0.6783  1.2936
  191SLPC   C3522140   5.230   3.363   6.669  0.3929  0.1412  0.0884
  191SLPC   H5X22141   5.329   3.392   6.709  0.6981  0.2797 -0.7430
  191SLPC   H5Y22142   5.239   3.258   6.635  0.5029 -0.5878  2.2185
  191SLPC   C3622143   5.124   3.341   6.769  0.2958 -0.6296 -0.8076
  191SLPC   H6X22144   5.017   3.321   6.747 -1.3444  1.0598  4.1497
  191SLPC   H6Y22145   5.101   3.435   6.823  1.5093  0.3816 -1.9896
  191SLPC   C3722146   5.159   3.239   6.872 -0.1865  0.6911  0.0018
  191SLPC   H7X22147   5.265   3.234   6.905 -0.6465  0.0764  1.4950
  191SLPC   H7Y22148   5.147   3.142   6.821 -0.6371 -0.3836  2.0419
  191SLPC   C3822149   5.065   3.254   6.998 -0.6370  0.1583 -1.0421
  191SLPC   H8X22150   4.957   3.244   6.975 -0.7181 -3.5667  0.2201
  191SLPC   H8Y22151   5.078   3.353   7.046 -2.0695  0.2910 -0.8777
  191SLPC   C3922152   5.097   3.157   7.116 -0.3683  0.0794 -0.2885
  191SLPC   H9X22153   5.192   3.197   7.158 -1.6523  1.7127  1.2103
  191SLPC   H9Y22154   5.107   3.056   7.070 -1.1005 -0.4124  0.5836
  191SLPC  C31022155   4.991   3.144   7.229 -0.1422 -0.6268  0.3172
  191SLPC  H10X22156   4.905   3.080   7.198  0.3791 -2.3592  2.1984
  191SLPC  H10Y22157   4.959   3.249   7.242 -0.0852 -0.2244 -2.2633
  191SLPC  C31122158   5.050   3.068   7.356 -0.2931 -1.0542 -0.3019
  191SLPC  H11X22159   5.158   3.097   7.357 -0.3481 -0.6891  2.4410
  191SLPC  H11Y22160   5.033   2.959   7.349 -0.4645 -0.9892 -0.9619
  191SLPC  C31222161   4.979   3.109   7.485 -0.1169 -0.0785  0.0839
  191SLPC  H12X22162   4.876   3.068   7.484 -0.8430  1.1510 -5.0770
  191SLPC  H12Y22163   4.965   3.219   7.488  0.4003 -0.0026 -0.1796
  191SLPC  C31322164   5.062   3.060   7.613 -0.0021  0.0900 -0.2153
  191SLPC  H13X22165   5.150   3.127   7.620 -0.4646  0.6296  0.6067
  191SLPC  H13Y22166   5.084   2.952   7.599  1.7726  0.0354  2.3237
  191SLPC  C31422167   4.993   3.077   7.747  0.1679  0.9000  0.4382
  191SLPC  H14X22168   4.906   3.007   7.748  2.4826 -2.2061 -0.4235
  191SLPC  H14Y22169   4.943   3.176   7.756 -4.0722 -1.2228  4.1874
  191SLPC  C31522170   5.093   3.043   7.857 -0.0107  0.0752 -0.0020
  191SLPC  H15X22171   5.148   3.137   7.881 -0.0264 -0.2068  1.2340
  191SLPC  H15Y22172   5.168   2.966   7.831 -0.2282 -0.3341  0.5703
  191SLPC  C31622173   5.017   3.007   7.990  0.2995  0.9976 -0.1236
  191SLPC  H16X22174   5.084   2.940   8.048 -0.1176 -0.6141 -1.4094
  191SLPC  H16Y22175   4.923   2.950   7.979  0.3406  0.1301  3.0279
  191SLPC  C31722176   4.988   3.132   8.078  0.1408  0.0161 -0.6038
  191SLPC  H17X22177   4.951   3.211   8.010  0.7651 -0.1692 -1.1613
  191SLPC  H17Y22178   5.092   3.156   8.110  0.4862 -2.4222  0.3042
  191SLPC  C31822179   4.895   3.118   8.205 -0.1705 -0.6496  0.3569
  191SLPC  H18X22180   4.789   3.126   8.175 -0.4898 -1.6959  1.1429
  191SLPC  H18Y22181   4.923   3.207   8.265  0.4908 -0.0974 -0.7303
  191SLPC  H18Z22182   4.922   3.030   8.267 -0.8662 -0.4305  0.9852
  192SLPC     N22183   6.505   3.032   6.120  0.1737  0.3015  0.1030
  192SLPC   C1322184   6.469   2.885   6.115 -0.3271  1.2938  0.1264
  192SLPC  H13A22185   6.533   2.820   6.173 -2.1674 -2.7505 -1.9580
  192SLPC  H13B22186   6.368   2.864   6.146 -0.1108 -1.5696 -0.7736
  192SLPC  H13C22187   6.478   2.844   6.015 -1.0377 -0.9591  0.9249
  192SLPC   C1422188   6.455   3.069   6.250  0.2297  0.4995 -0.3711
  192SLPC  H14A22189   6.349   3.047   6.251  0.3519 -0.1060  0.4502
  192SLPC  H14B22190   6.494   3.009   6.331 -0.7112 -0.3245 -0.5016
  192SLPC  H14C22191   6.479   3.171   6.274 -0.6933  0.4903  0.6828
  192SLPC   C1522192   6.431   3.105   6.010 -0.2768  0.0975  0.8965
  192SLPC  H15A22193   6.455   3.210   6.018  1.0997 -0.0965 -0.3353
  192SLPC  H15B22194   6.450   3.067   5.911 -0.2236 -0.7099  1.2051
  192SLPC  H15C22195   6.324   3.092   6.015 -0.4394 -0.6681 -2.4138
  192SLPC   C1222196   6.655   3.053   6.103  0.5731  0.0973 -0.3038
  192SLPC  H12A22197   6.686   3.015   6.007 -0.3699 -3.1948  0.5419
  192SLPC  H12B22198   6.712   2.992   6.172 -1.7907  0.9132  2.5869
  192SLPC   C1122199   6.722   3.190   6.113  0.5634  0.1374  0.3258
  192SLPC  H11A22200   6.658   3.259   6.054 -0.8355  0.8359  2.5255
  192SLPC  H11B22201   6.823   3.182   6.067 -1.0499 -0.8118 -3.3685
  192SLPC     P22202   6.839   3.193   6.353  0.6405  0.2698 -0.4113
  192SLPC   O1322203   6.949   3.128   6.278 -0.0003  0.1375 -0.6397
  192SLPC   O1422204   6.867   3.305   6.442  0.1821  0.3913  0.5070
  192SLPC   O1222205   6.721   3.227   6.251 -0.7963 -0.0825  0.2069
  192SLPC   O1122206   6.779   3.081   6.447  0.5565 -0.0137  0.3639
  192SLPC    C122207   6.664   3.107   6.528 -0.2003  1.0300  0.0586
  192SLPC    HA22208   6.604   3.198   6.506 -1.3549  0.3320  0.2577
  192SLPC    HB22209   6.595   3.022   6.518 -1.3826  1.9028  0.5815
  192SLPC    C222210   6.700   3.098   6.690  0.4247  0.9138  0.4840
  192SLPC    HS22211   6.743   2.996   6.702 -0.3543  0.3578 -1.1515
  192SLPC   O2122212   6.575   3.122   6.756  0.5923  0.3474 -0.2908
  192SLPC   C2122213   6.492   3.018   6.765 -0.9210  0.0930 -0.0515
  192SLPC   O2222214   6.529   2.906   6.730 -0.4100  0.0539 -0.4472
  192SLPC   C2222215   6.355   3.060   6.818  0.0169 -0.8155 -0.2033
  192SLPC   H2R22216   6.340   3.170   6.816  2.5096 -0.4297 -1.0086
  192SLPC   H2S22217   6.287   3.007   6.747  0.7649 -0.4131 -1.2502
  192SLPC    C322218   6.804   3.198   6.739  0.0074 -0.9241 -0.2824
  192SLPC    HX22219   6.773   3.294   6.692 -2.4056 -1.8706 -0.7449
  192SLPC    HY22220   6.905   3.174   6.698 -0.7480 -0.0832 -2.8712
  192SLPC   O3122221   6.806   3.222   6.887  0.3369 -0.7298  0.1566
  192SLPC   C3122222   6.857   3.126   6.953 -0.2513  0.1388  0.6709
  192SLPC   O3222223   6.911   3.023   6.908  0.6792  0.1768 -0.7806
  192SLPC   C3222224   6.846   3.171   7.102 -0.4651 -0.3156  0.2225
  192SLPC   H2X22225   6.758   3.235   7.120 -0.2372  0.0325  0.1107
  192SLPC   H2Y22226   6.931   3.240   7.120  0.5202 -1.6125  0.7763
  192SLPC   C2322227   6.332   3.007   6.961 -0.1449 -0.6136 -0.1536
  192SLPC   H3R22228   6.361   2.900   6.969  0.3860 -0.3040  3.1349
  192SLPC   H3S22229   6.222   3.002   6.978 -0.5929 -1.1770 -2.7487
  192SLPC   C2422230   6.413   3.073   7.079 -0.4150 -0.0224  0.0403
  192SLPC   H4R22231   6.395   3.182   7.089  1.8757  0.4852 -0.8347
  192SLPC   H4S22232   6.522   3.064   7.063 -0.2839  0.1432  0.8308
  192SLPC   C2522233   6.380   3.020   7.218 -0.0986  0.0275  0.1216
  192SLPC   H5R22234   6.405   2.912   7.208  1.7571  0.4236  0.1185
  192SLPC   H5S22235   6.270   3.031   7.230 -0.0059 -0.1335  1.2819
  192SLPC   C2622236   6.461   3.084   7.331  0.2067  0.4228  0.3131
  192SLPC   H6R22237   6.479   3.192   7.310  2.4690 -0.3818 -2.6767
  192SLPC   H6S22238   6.565   3.044   7.331  0.2271  0.4597  1.3994
  192SLPC   C2722239   6.412   3.055   7.473 -0.3904  0.1293 -0.0690
  192SLPC   H7R22240   6.410   2.944   7.477 -1.6109  0.1212 -0.5611
  192SLPC   H7S22241   6.305   3.078   7.489 -0.4021 -0.0857  0.1748
  192SLPC   C2822242   6.503   3.106   7.577  0.5176 -0.8060  0.1849
  192SLPC   H8R22243   6.450   3.091   7.674  1.0572  0.6535  0.7325
  192SLPC   H8S22244   6.519   3.213   7.552  1.0251 -0.9172  0.0296
  192SLPC   C2922245   6.628   3.025   7.598 -0.7907  0.5505  0.0086
  192SLPC   H9R22246   6.615   2.916   7.596 -1.0019  0.4336  3.0829
  192SLPC  C21022247   6.749   3.081   7.612 -0.1076 -0.5742 -0.0658
  192SLPC  H10R22248   6.841   3.026   7.636  1.5821  1.4890 -1.3829
  192SLPC  C21122249   6.778   3.233   7.614  0.0998 -0.3522 -0.0464
  192SLPC  H11R22250   6.704   3.278   7.684  0.4551 -1.4406  1.0582
  192SLPC  H11S22251   6.765   3.277   7.513  0.1507  0.7186  0.3989
  192SLPC  C21222252   6.922   3.266   7.654  0.0704  0.5418  0.2725
  192SLPC  H12R22253   6.987   3.243   7.569 -0.7835 -0.4232 -0.1375
  192SLPC  C21322254   6.977   3.309   7.774  0.6887 -0.1100 -0.0087
  192SLPC  H13R22255   7.087   3.319   7.772  0.6097  2.0526 -3.7670
  192SLPC  C21422256   6.909   3.340   7.906  0.7473  0.2685  0.0420
  192SLPC  H14R22257   6.985   3.331   7.987  1.7750 -0.6111 -0.9666
  192SLPC  H14S22258   6.845   3.252   7.926  0.8025  0.4336  0.9671
  192SLPC  C21522259   6.833   3.472   7.914 -0.2216 -0.0139  0.2565
  192SLPC  H15R22260   6.767   3.495   7.828 -2.1032  1.4119  1.9820
  192SLPC  H15S22261   6.908   3.554   7.913 -0.8640  0.5938  0.4758
  192SLPC  C21622262   6.742   3.487   8.042 -0.4956 -0.6891 -0.0867
  192SLPC  H16R22263   6.710   3.591   8.066 -2.3776 -1.5846  1.5988
  192SLPC  H16S22264   6.799   3.435   8.121 -0.0082  1.0561  0.7490
  192SLPC  C21722265   6.610   3.427   8.045  0.2536  0.0965  0.1928
  192SLPC  H17R22266   6.548   3.465   7.962 -0.9175 -2.9499 -0.4641
  192SLPC  H17S22267   6.624   3.319   8.022 -0.0711  0.0278  0.3061
  192SLPC  C21822268   6.527   3.436   8.175 -0.2346 -0.4597  0.2430
  192SLPC  H18R22269   6.433   3.380   8.158  0.7409 -1.9235 -0.4926
  192SLPC  H18S22270   6.500   3.536   8.217 -0.3224 -1.1093  1.8220
  192SLPC  H18T22271   6.577   3.387   8.261  1.0728 -1.2999 -0.9486
  192SLPC   C3322272   6.839   3.047   7.197 -0.9425 -0.7028 -0.3691
  192SLPC   H3X22273   6.780   2.962   7.157 -1.8613 -0.3500  0.2017
  192SLPC   H3Y22274   6.785   3.076   7.290 -1.5073  0.1218 -0.9373
  192SLPC   C3422275   6.977   2.987   7.220  0.1348 -1.0864  0.1181
  192SLPC   H4X22276   7.039   3.063   7.273 -1.5157  0.9181 -0.7051
  192SLPC   H4Y22277   7.024   2.993   7.120 -0.2229  1.3689  0.0470
  192SLPC   C3522278   6.983   2.851   7.290 -0.1053  0.6124  1.0118
  192SLPC   H5X22279   7.087   2.818   7.269  0.3128  1.8866  0.9903
  192SLPC   H5Y22280   6.913   2.788   7.231 -0.4929  2.4591 -0.5759
  192SLPC   C3622281   6.954   2.842   7.440  0.0185 -0.4967  0.2677
  192SLPC   H6X22282   6.850   2.876   7.461  0.1521 -0.1860  0.4412
  192SLPC   H6Y22283   7.024   2.917   7.482  0.4691 -0.2015 -0.9627
  192SLPC   C3722284   6.964   2.699   7.499 -0.2250 -0.2208  0.2445
  192SLPC   H7X22285   7.068   2.668   7.472 -0.7081 -1.9839  0.2581
  192SLPC   H7Y22286   6.894   2.634   7.442 -0.6079  0.3123  0.0982
  192SLPC   C3822287   6.927   2.696   7.646 -0.3864  0.5462 -0.4816
  192SLPC   H8X22288   6.940   2.591   7.681  2.6397  1.0681  0.2409
  192SLPC   H8Y22289   6.819   2.717   7.659 -0.5185 -0.2572 -0.2258
  192SLPC   C3922290   7.005   2.794   7.730  0.7517 -0.3374  0.1807
  192SLPC   H9X22291   6.985   2.898   7.697 -1.1993 -0.8772 -0.4999
  192SLPC   H9Y22292   7.110   2.781   7.696  0.4283 -0.2769 -0.9109
  192SLPC  C31022293   6.988   2.795   7.877  0.1563 -0.1569 -0.0810
  192SLPC  H10X22294   7.019   2.700   7.926 -1.2851 -1.3835 -1.4432
  192SLPC  H10Y22295   6.878   2.803   7.893  0.1501  0.3585 -0.3734
  192SLPC  C31122296   7.065   2.914   7.938  0.3163 -0.3475 -0.2596
  192SLPC  H11X22297   7.024   3.009   7.898 -0.4083 -1.1983 -1.6215
  192SLPC  H11Y22298   7.173   2.910   7.914 -0.3439 -0.7918 -3.7105
  192SLPC  C31222299   7.033   2.932   8.088  0.1815 -0.0910 -0.0265
  192SLPC  H12X22300   6.924   2.919   8.108  0.3322 -0.8122  0.4106
  192SLPC  H12Y22301   7.062   3.032   8.126  2.7854 -0.2306 -1.4206
  192SLPC  C31322302   7.114   2.831   8.172 -0.1577 -0.5087  0.2648
  192SLPC  H13X22303   7.218   2.866   8.187  0.0797 -1.3402  0.5530
  192SLPC  H13Y22304   7.115   2.733   8.121 -2.7857 -0.6598  0.3372
  192SLPC  C31422305   7.052   2.805   8.312  0.0917  0.2314  0.7719
  192SLPC  H14X22306   7.018   2.887   8.379 -3.1390  0.5076 -0.9763
  192SLPC  H14Y22307   7.128   2.748   8.369  0.5184 -0.2010 -0.1901
  192SLPC  C31522308   6.913   2.742   8.301 -0.4209 -0.1688  0.0106
  192SLPC  H15X22309   6.837   2.799   8.243 -0.2658  0.0745  0.0451
  192SLPC  H15Y22310   6.892   2.710   8.405  0.3773 -1.4299 -0.2063
  192SLPC  C31622311   6.930   2.612   8.217  0.5694  0.0475  1.1846
  192SLPC  H16X22312   7.033   2.572   8.232  1.3295  0.8069 -1.4578
  192SLPC  H16Y22313   6.921   2.621   8.107  1.1307  0.9478  1.2033
  192SLPC  C31722314   6.833   2.503   8.259  1.2747  0.2307  0.5604
  192SLPC  H17X22315   6.733   2.549   8.242  1.3075  0.8261  1.8592
  192SLPC  H17Y22316   6.830   2.482   8.368  1.8248 -3.6751 -0.0504
  192SLPC  C31822317   6.857   2.372   8.180  0.0771 -0.0557 -0.3560
  192SLPC  H18X22318   6.772   2.341   8.115 -0.4747  0.3223  0.1748
  192SLPC  H18Y22319   6.880   2.284   8.245 -0.9248 -0.6116 -0.7199
  192SLPC  H18Z22320   6.935   2.394   8.105 -0.9903 -3.0094 -2.5312
  193SOD    SOD22321   0.788   6.680   6.596 -0.2256 -0.3374 -0.5226
  194SOD    SOD22322   1.766   2.878  12.207 -0.9501 -0.1780 -0.1514
  195SOD    SOD22323   3.200   2.858   6.439 -0.1301 -0.1022  0.2422
  196SOD    SOD22324   6.123   5.373  15.720  0.0517 -0.4926  0.0492
  197SOD    SOD22325   3.265   0.649  12.211  0.3207  0.7813 -0.1530
  198SOD    SOD22326   3.508   4.247  15.959  0.0459 -0.5192 -0.1627
  199SOD    SOD22327   1.665   6.811   5.274  0.0963 -0.2842  0.2316
  200SOD    SOD22328   3.990   3.521   5.242  0.1454  0.1459  0.7084
  201SOD    SOD22329   4.731   6.779  11.430  0.2005  0.1768  0.1651
  202SOD    SOD22330   4.836   5.159   5.699  0.3671  0.5150  0.4511
  203SOD    SOD22331   2.282   2.742   4.978 -0.3793  0.4194  0.4626
  204SOD    SOD22332   3.833   2.864  11.453 -0.2614  0.4657 -0.2606
  205SOD    SOD22333   4.369   1.268   0.691  0.2035  0.0731  0.2767
  206SOD    SOD22334   1.892   3.188   1.740 -0.1539 -0.5512  0.5233
  207SOD    SOD22335   6.809   0.362   5.806 -0.0226  0.6666  0.0189
  208SOD    SOD22336   1.789   6.328   2.085 -0.4428  0.1470  0.4339
  209SOD    SOD22337   1.722   5.545   5.948 -0.9004  0.0869  0.2834
  210SOD    SOD22338   5.910   4.569  12.456 -0.3068 -0.0335  0.2397
  211SOD    SOD22339   5.736   4.768  14.189 -0.6618  0.0594  0.1355
  212SOD    SOD22340   0.150   0.956  11.836 -0.4866 -0.1912 -0.0840
  213SOD    SOD22341   1.723   4.822  13.900  0.2271 -0.1954 -0.0278
  214SOD    SOD22342   6.616   6.616  14.583  0.4830  0.3674  0.3433
  215SOD    SOD22343   2.336   5.321   4.686  0.1070 -0.0879 -0.4530
  216SOD    SOD22344   3.119   6.170   0.203  0.1646  0.0134  0.5947
  217SOD    SOD22345   3.417   2.857  10.333 -0.0966  0.0504 -0.6985
  218SOD    SOD22346   6.602   6.592  10.817  0.5503  0.2488 -0.3040
  219SOD    SOD22347   0.471   3.833  10.786  0.1646 -0.1540 -0.4551
  220SOD    SOD22348   2.054   4.029  16.300  0.3319  0.0189  0.5185
  221SOD    SOD22349   4.260   4.052   0.620  0.3147 -0.1703 -0.1775
  222SOD    SOD22350   5.482   1.085  12.695  0.5134  0.0522 -0.0545
  223SOD    SOD22351   2.341   0.266  13.487  0.1867 -0.0199 -0.0644
  224SOD    SOD22352   4.701   4.152   5.169 -0.1931  0.0216  0.6745
  225SOD    SOD22353   2.996   2.018  15.583 -0.0072  0.0837 -0.3060
  226SOD    SOD22354   5.175   4.254  13.472 -0.1966  0.5775  0.7194
  227SOD    SOD22355   3.396   5.626   5.729  0.2622  0.4461  0.2222
  228SOD    SOD22356   5.453   6.522   3.305  0.1621 -0.2042  0.3366
  229SOD    SOD22357   4.419   2.636   1.705  0.0411 -0.1867  0.3859
  230SOD    SOD22358   3.698   6.441  11.490 -0.2620  0.3916 -0.0267
  231SOD    SOD22359   0.371   6.510  13.726  0.1399  0.3040 -0.5107
  232SOD    SOD22360   3.981   5.921   4.252 -0.1879 -0.3289 -0.0623
  233SOD    SOD22361   6.658   2.217   3.849  0.2527 -0.2920  0.1722
  234SOD    SOD22362   4.833   5.853  10.499 -0.0888  0.0931  0.7294
  235SOD    SOD22363   4.514   0.919  13.996 -0.0844  0.3109 -0.3368
  236SOD    SOD22364   2.551   4.678   1.374 -0.2969  0.2302 -0.5662
  237SOD    SOD22365   6.357   2.773  16.631 -0.0602  0.3065 -0.3954
  238SOD    SOD22366   3.860   5.065  16.993 -0.6558 -0.3827 -0.3338
  239SOD    SOD22367   6.133   4.287   2.624 -0.4860  0.4899  0.0926
  240SOD    SOD22368   2.253   3.821  11.711  0.3843  0.7052  0.2519
  241SOD    SOD22369   1.966   2.194   5.750 -0.9463 -0.6480 -0.2837
  242SOD    SOD22370   6.738   3.155  15.107 -0.1780 -0.3287 -0.0233
  243SOD    SOD22371   3.733   6.655  13.545  0.0879  0.1735 -0.1381
  244SOD    SOD22372   0.858   0.054  10.645 -0.2402 -0.2706 -0.4706
  245SOD    SOD22373   5.771   6.753  16.021 -0.3022 -0.4941  0.5744
  246SOD    SOD22374   3.954   5.235  12.549  0.3333  0.3450 -0.2851
  247SOD    SOD22375   3.626   2.243   0.491 -0.0060  0.3117 -0.0064
  248SOD    SOD22376   3.060   3.908  12.826 -0.0556  0.4598 -0.1982
  249SOD    SOD22377   1.182   2.043   0.198 -0.2389 -0.3375 -0.4182
  250SOD    SOD22378   2.233   5.871  11.326  0.2494  0.0163 -0.1049
  251SOD    SOD22379   2.600   5.273   0.193 -0.1797  0.7060  0.1363
  252SOD    SOD22380   5.249   6.122   2.383  0.3350 -0.2042  0.0529
  253SOD    SOD22381   3.906   4.176  15.211 -0.5378 -0.2117  0.2079
  254SOD    SOD22382   5.740   3.850   4.256  0.0953  0.4476 -0.5052
  255SOD    SOD22383   5.456   2.972   6.079  0.2642  0.4811  0.7358
  256SOD    SOD22384   4.691   1.416   3.594  0.5475 -0.2628  0.5430
  257SOD    SOD22385   5.963   2.042   0.441  0.1289 -0.4016  0.1541
  258SOD    SOD22386   1.642   2.285   3.182 -0.6639 -0.4015  0.3924
  259SOD    SOD22387   3.339   4.350   6.038  0.4011  0.0459  0.1267
  260SOD    SOD22388   0.038   6.594   0.341 -0.0327 -0.2137 -0.1910
  261SOD    SOD22389   4.458   1.248   5.997  0.5761  0.3916  0.0222
  262SOD    SOD22390   3.763   1.701  13.317 -0.4194  0.1602 -0.2240
  263SOD    SOD22391   1.976   4.191  14.403 -0.3262 -0.1147  0.0641
  264SOD    SOD22392   6.120   2.159   2.415  0.3513 -0.0936 -0.1034
  265SOD    SOD22393   5.967   6.579  13.535  0.0425 -0.1025 -0.1588
  266CLA    CLA22394   1.827   1.379  13.301 -0.3063 -0.1264 -0.2121
  267CLA    CLA22395   3.331   0.401   5.720 -0.1421 -0.2736 -0.3694
  268CLA    CLA22396   5.810   2.325  16.448 -0.3580 -0.3042  0.2865
  269CLA    CLA22397   4.154   2.711  14.366  0.1093 -0.4955  0.2442
  270CLA    CLA22398   3.192   1.382  16.890  0.1081  0.1810 -0.1970
  271CLA    CLA22399   0.605   3.085  12.935  0.2850  0.0776 -0.5312
  272CLA    CLA22400   5.515   0.637  14.007  0.4399 -0.2841  0.1845
  273CLA    CLA22401   0.476   0.754   0.163  0.0385 -0.0063 -0.0284
  274CLA    CLA22402   0.318   2.027   3.380 -0.0215  0.3455  0.1495
  275CLA    CLA22403   6.163   5.834  15.052  0.0773  0.3087  0.0058
  276CLA    CLA22404   4.349   5.155  12.486  0.1276 -0.3326  0.3408
  277CLA    CLA22405   6.774   6.049   0.041 -0.2345  0.0979 -0.2418
  278CLA    CLA22406   4.884   5.573  16.085 -0.1056  0.0198  0.1911
  279CLA    CLA22407   2.885   5.168  16.807  0.0813 -0.3432  0.0639
  280CLA    CLA22408   2.129   3.773  14.254 -0.0054 -0.3491  0.0589
  281CLA    CLA22409   6.106   1.643   0.127 -0.4513  0.0896 -0.2210
  282CLA    CLA22410   6.549   3.311   0.651 -0.1952 -0.3384  0.2404
  283CLA    CLA22411   6.791   4.245   3.598 -0.1933 -0.4325  0.2191
  284CLA    CLA22412   1.496   0.412   5.487 -0.1236  0.1055 -0.2114
  285CLA    CLA22413   3.839   2.588  16.343 -0.2806  0.1924  0.0209
  286CLA    CLA22414   4.289   5.586   0.169 -0.2060  0.0836 -0.1099
  287CLA    CLA22415   2.492   1.220   2.961  0.1253 -0.1870  0.1893
  288CLA    CLA22416   2.460   0.176  12.151 -0.2610 -0.2931  0.0135
  289CLA    CLA22417   5.978   5.043  12.525 -0.6119 -0.2544 -0.4136
  290CLA    CLA22418   2.401   5.298   5.568 -0.0502 -0.1348 -0.0192
  291CLA    CLA22419   0.624   4.464  12.636 -0.4084  0.3493 -0.2134
  292CLA    CLA22420   0.774   6.715  15.398  0.1644 -0.2566 -0.0828
  293CLA    CLA22421   1.966   0.093   4.637  0.4096 -0.3194  0.0947
  294CLA    CLA22422   4.635   4.881  15.342 -0.3475 -0.2285  0.0855
  295CLA    CLA22423   6.450   5.443  13.536 -0.3602  0.2709 -0.1963
  296CLA    CLA22424   5.412   2.960   2.189 -0.2989  0.1932 -0.0352
  297CLA    CLA22425   5.758   6.589   2.992 -0.1960 -0.1047  0.3890
  298CLA    CLA22426   0.077   0.975   5.381  0.2346 -0.1493  0.1007
  299CLA    CLA22427   2.616   5.945  12.006 -0.2275 -0.1701 -0.0823
  300CLA    CLA22428   5.228   0.595  11.630 -0.1186 -0.1956  0.2769
  301CLA    CLA22429   5.532   2.149  14.781 -0.2715  0.2380  0.1883
  302CLA    CLA22430   4.591   1.650   3.505  0.2065 -0.4449 -0.1056
  303CLA    CLA22431   3.281   5.393   2.751 -0.1889 -0.0952  0.0350
  304CLA    CLA22432   2.088   4.718  12.894 -0.4359 -0.4873  0.0696
  305CLA    CLA22433   6.566   3.022   4.603 -0.3204  0.1029  0.1683
  306CLA    CLA22434   2.921   3.421   3.509  0.7923 -0.0191  0.3679
  307CLA    CLA22435   4.000   0.563   6.043  0.0929  0.5705 -0.0481
  308CLA    CLA22436   3.644   1.613   3.880  0.1565 -0.1546  0.0002
  309CLA    CLA22437   5.238   5.754  15.342 -0.0997 -0.1956 -0.2199
  310CLA    CLA22438   3.153   5.273   0.255 -0.5734 -0.3081  0.0200
  311CLA    CLA22439   1.222   5.473  13.961 -0.0063  0.0578 -0.1484
  312CLA    CLA22440   3.807   5.741   2.205 -0.0050 -0.2522 -0.0235
  313CLA    CLA22441   5.369   0.410  13.115  0.3122 -0.8512  0.2307
  314CLA    CLA22442   0.790   6.140  13.414  0.0341  0.4585 -0.0996
  315CLA    CLA22443   1.182   0.495   1.955  0.2483  0.1323  0.0881
  316CLA    CLA22444   2.707   1.420   1.688  0.0109  0.0245 -0.3144
  317CLA    CLA22445   4.834   4.178  16.977  0.3571 -0.0366  0.0650
  318CLA    CLA22446   4.063   4.321  16.084  0.5499 -0.1391 -0.4028
  319TIP3   OH222447   3.859   1.370   5.405 -0.4392  0.4015 -0.0315
  319TIP3    H122448   3.896   1.311   5.471  0.3546 -0.8322 -1.5240
  319TIP3    H222449   3.823   1.443   5.456 -0.5962 -0.8957  1.8032
  320TIP3   OH222450   1.037   6.509  13.109  0.3831  0.1489  0.5593
  320TIP3    H122451   1.111   6.565  13.129  0.2678  0.1058  1.1015
  320TIP3    H222452   0.999   6.486  13.194  0.4935 -0.8324  0.3619
  321TIP3   OH222453   1.642   2.728  16.507  0.7317 -0.6509  0.3966
  321TIP3    H122454   1.598   2.649  16.477  0.9568 -0.9786  0.9147
  321TIP3    H222455   1.699   2.753  16.434  0.2331 -0.6363  0.0090
  322TIP3   OH222456   6.806   2.384   5.004 -0.5644 -0.4011 -0.3208
  322TIP3    H122457   6.750   2.429   5.068 -1.0743 -2.1388  0.5034
  322TIP3    H222458   6.811   2.294   5.035  0.5032 -0.9189 -1.8730
  323TIP3   OH222459   4.677   4.780   5.752 -0.6136 -0.0346 -0.0573
  323TIP3    H122460   4.586   4.779   5.783 -1.4696 -0.4869 -2.3301
  323TIP3    H222461   4.712   4.695   5.778  0.0518  1.0690  3.0118
  324TIP3   OH222462   4.718   4.563   0.234 -0.2039 -0.8326  0.5261
  324TIP3    H122463   4.708   4.583   0.141  0.5451 -1.1202  0.3735
  324TIP3    H222464   4.681   4.638   0.280  1.1058  0.1914 -0.0241
  325TIP3   OH222465   4.346   3.128   3.784 -0.0053 -0.0813 -0.3579
  325TIP3    H122466   4.336   3.206   3.730 -1.1231 -1.8185 -2.8301
  325TIP3    H222467   4.382   3.062   3.725  0.4454 -1.6143  1.5176
  326TIP3   OH222468   0.542   3.812  16.240  0.6103 -0.6694 -0.5691
  326TIP3    H122469   0.507   3.901  16.227  1.9108 -0.1136 -0.3893
  326TIP3    H222470   0.635   3.825  16.259  1.2262 -2.1594 -2.2419
  327TIP3   OH222471   5.442   5.430  14.440  0.1661 -0.2178  0.0852
  327TIP3    H122472   5.474   5.421  14.350 -0.4526  0.4397 -0.2119
  327TIP3    H222473   5.382   5.505  14.437  0.3106 -0.0406  1.0942
  328TIP3   OH222474   4.575   2.730  11.971  0.6960 -0.0395 -0.0599
  328TIP3    H122475   4.545   2.726  12.062  0.9043 -0.3845 -0.0057
  328TIP3    H222476   4.613   2.818  11.962  1.0352 -0.1441  0.3020
  329TIP3   OH222477   0.084   5.581   5.428 -0.1261  0.3486 -0.0760
  329TIP3    H122478   0.142   5.572   5.504  0.3445  0.4196 -0.4276
  329TIP3    H222479   0.141   5.606   5.356 -0.1069 -2.4125 -1.1362
  330TIP3   OH222480   2.387   1.555  12.791  0.3488 -0.8644  0.1763
  330TIP3    H122481   2.465   1.576  12.844  0.1447  0.2044  0.0763
  330TIP3    H222482   2.315   1.600  12.836  0.3550  1.0941 -1.6185
  331TIP3   OH222483   6.526   2.391   3.759 -0.2608 -0.6702 -0.7809
  331TIP3    H122484   6.480   2.474   3.768 -1.2831 -1.2588 -0.3550
  331TIP3    H222485   6.558   2.391   3.669 -1.7851 -0.5547 -1.3533
  332TIP3   OH222486   3.782   4.897   3.956 -0.1665 -0.3837 -0.1477
  332TIP3    H122487   3.875   4.917   3.973 -0.3366 -0.5368  1.0616
  332TIP3    H222488   3.747   4.872   4.041 -1.4194  0.0115 -0.5264
  333TIP3   OH222489   2.858   4.469   5.419 -0.4230  0.3263  0.3779
  333TIP3    H122490   2.916   4.400   5.451  0.3413  0.8153  0.0858
  333TIP3    H222491   2.790   4.423   5.370  1.2409 -0.1409 -1.6308
  334TIP3   OH222492   0.898   2.743   0.696  0.1097 -0.2521 -0.3855
  334TIP3    H122493   0.991   2.732   0.681  0.0297 -1.4552 -0.1588
  334TIP3    H222494   0.859   2.662   0.662 -0.6862 -0.4078  0.8425
  335TIP3   OH222495   6.335   1.859  17.168 -0.3876 -0.1644  0.5272
  335TIP3    H122496   6.344   1.839  17.074  0.3610  0.6687  0.4049
  335TIP3    H222497   6.289   1.784  17.204 -0.7615 -0.4637 -0.5275
  336TIP3   OH222498   4.644   1.945   1.466  0.1708 -0.0944  0.2534
  336TIP3    H122499   4.619   2.037   1.466  0.9956  0.2190 -2.0482
  336TIP3    H222500   4.584   1.903   1.527 -1.4755  1.6620 -0.0525
  337TIP3   OH222501   5.974   2.525  16.021  0.2447  0.5483 -0.2640
  337TIP3    H122502   5.929   2.584  15.960  0.3090 -1.5161 -2.4700
  337TIP3    H222503   5.922   2.445  16.018  1.9834 -0.6244  0.0162
  338TIP3   OH222504   3.996   6.188  15.168  0.0018  0.3509  0.6162
  338TIP3    H122505   4.066   6.159  15.225  0.4515  1.6109  0.7279
  338TIP3    H222506   4.034   6.257  15.115 -1.0462  0.7840  0.3921
  339TIP3   OH222507   0.019   0.719  14.718 -0.5298  0.0588  0.2588
  339TIP3    H122508   0.104   0.716  14.762 -0.2107 -2.3383 -0.3457
  339TIP3    H222509  -0.044   0.689  14.784 -0.2902 -1.8911 -0.3205
  340TIP3   OH222510   3.694   3.340   3.060 -1.0893 -0.0991  0.1852
  340TIP3    H122511   3.753   3.414   3.045 -1.6842  0.1160 -1.2738
  340TIP3    H222512   3.650   3.361   3.143 -0.9547  0.9844  0.0047
  341TIP3   OH222513   1.848   3.540   4.382  0.1416 -0.5666  0.2142
  341TIP3    H122514   1.813   3.578   4.301  0.0114 -0.5943  0.2580
  341TIP3    H222515   1.772   3.502   4.426  0.4765 -2.1812 -0.5224
  342TIP3   OH222516   6.766   1.826   4.468  0.4214  0.1992 -0.4622
  342TIP3    H122517   6.842   1.877   4.442  1.0271 -0.2873  0.2954
  342TIP3    H222518   6.769   1.826   4.564  0.2868 -1.0070 -0.4420
  343TIP3   OH222519   4.968   4.857  13.637 -0.2067  0.3479 -0.2813
  343TIP3    H122520   4.978   4.944  13.598 -0.0722  0.8036  0.7543
  343TIP3    H222521   4.965   4.873  13.731  1.6166 -0.9307  0.0356
  344TIP3   OH222522   1.664   4.980  12.925  0.4421 -0.3959 -0.2990
  344TIP3    H122523   1.672   4.886  12.939 -1.0360 -0.2111  2.7587
  344TIP3    H222524   1.755   5.010  12.913  0.9829 -2.1065 -0.8005
  345TIP3   OH222525   1.645   0.040  15.060  0.2463  0.3199  0.2572
  345TIP3    H122526   1.668   0.127  15.027  0.1030  0.4934  0.6099
  345TIP3    H222527   1.647  -0.016  14.983 -0.3442  0.7699 -0.0927
  346TIP3   OH222528   1.841   4.897   5.915  0.3405 -0.6538 -0.0760
  346TIP3    H122529   1.830   4.984   5.954 -1.8159 -1.3655  1.0300
  346TIP3    H222530   1.855   4.839   5.989  0.2100 -1.4895 -0.6934
  347TIP3   OH222531   2.997   4.949   1.136 -0.3886  0.1400  0.2255
  347TIP3    H122532   3.085   4.949   1.098 -0.5389  0.2312 -0.1235
  347TIP3    H222533   3.008   4.993   1.220  0.0398 -0.5052  0.5132
  348TIP3   OH222534   0.635   4.197  14.298 -0.2499  0.0282  0.1766
  348TIP3    H122535   0.592   4.150  14.369  1.3272  0.5486  1.5503
  348TIP3    H222536   0.611   4.289  14.312 -0.2911  0.0836 -0.2425
  349TIP3   OH222537   4.424   0.645   0.981  0.0064  0.3483 -0.0061
  349TIP3    H122538   4.341   0.600   0.998 -0.5135  1.1857 -0.3170
  349TIP3    H222539   4.428   0.715   1.046  2.3342 -1.9984  2.6857
  350TIP3   OH222540   2.755   5.270   0.361  0.0975 -0.8254  0.0156
  350TIP3    H122541   2.688   5.244   0.424  0.7754 -1.8616  0.3230
  350TIP3    H222542   2.804   5.339   0.406  1.9916 -3.0500  1.5981
  351TIP3   OH222543   0.800   2.394  14.462 -0.2588  0.2538  0.6841
  351TIP3    H122544   0.834   2.387  14.372  0.3365  0.9705  0.8419
  351TIP3    H222545   0.812   2.307  14.499  0.4896  0.2329  0.4080
  352TIP3   OH222546   4.150   2.851   2.422 -0.4445 -0.3979 -0.3072
  352TIP3    H122547   4.204   2.926   2.402 -0.5051 -0.4438 -0.6394
  352TIP3    H222548   4.079   2.854   2.358 -0.4934 -0.6886 -0.2683
  353TIP3   OH222549   2.011   6.380  12.737  0.3446 -0.0748 -0.2737
  353TIP3    H122550   2.101   6.361  12.764  0.1850  0.4299  0.6716
  353TIP3    H222551   2.016   6.465  12.694  0.6941 -1.1383 -2.4653
  354TIP3   OH222552   1.312   4.270   1.527  0.2676  0.0461  0.1399
  354TIP3    H122553   1.346   4.202   1.586  0.7303  1.4817  1.5944
  354TIP3    H222554   1.388   4.324   1.507  0.1087 -0.3877 -1.8051
  355TIP3   OH222555   1.732   1.760  15.369 -0.4546  0.5113  0.1593
  355TIP3    H122556   1.676   1.834  15.392 -1.0984 -0.1274  0.6767
  355TIP3    H222557   1.778   1.789  15.290 -0.4108  1.6018  0.5601
  356TIP3   OH222558   4.016   0.146  13.329  0.5061 -0.4109 -0.5819
  356TIP3    H122559   4.063   0.204  13.269  1.3596 -1.6883 -1.1963
  356TIP3    H222560   4.025   0.187  13.415  0.5631  0.6593 -1.0830
  357TIP3   OH222561   1.260   2.466   3.018  0.0100 -0.0869  0.6424
  357TIP3    H122562   1.321   2.501   2.953 -0.5954  1.5955  0.9474
  357TIP3    H222563   1.173   2.488   2.984 -0.3278  0.4645  1.8205
  358TIP3   OH222564   0.185   2.831  11.772 -0.1786 -0.2774 -0.4606
  358TIP3    H122565   0.097   2.805  11.744 -0.7788  0.2029  0.9002
  358TIP3    H222566   0.193   2.921  11.740 -0.1193 -0.3701 -0.7107
  359TIP3   OH222567   2.347   0.535  16.152  0.1192  0.1681 -0.2434
  359TIP3    H122568   2.327   0.608  16.092  1.6027 -0.0718 -1.0736
  359TIP3    H222569   2.268   0.481  16.150 -0.9891  1.6856  0.3326
  360TIP3   OH222570   2.313   5.819  12.005  0.0768  0.0037 -0.0949
  360TIP3    H122571   2.407   5.837  12.009  0.3246 -1.2901  0.4572
  360TIP3    H222572   2.281   5.840  12.093 -0.1710  0.4752 -0.2911
  361TIP3   OH222573   6.229   4.847   1.687  0.0854  0.9926 -0.0629
  361TIP3    H122574   6.263   4.916   1.744 -0.2883 -0.8875  2.6420
  361TIP3    H222575   6.135   4.843   1.708  0.3769 -1.3226  1.0880
  362TIP3   OH222576   6.284   4.979  12.453  0.2429 -0.3902 -0.2703
  362TIP3    H122577   6.336   4.941  12.524 -1.1400 -2.6207 -0.3389
  362TIP3    H222578   6.202   5.005  12.495 -0.2021 -0.8204 -0.8430
  363TIP3   OH222579   5.613   3.609  17.057 -0.3661 -0.0222 -0.3266
  363TIP3    H122580   5.574   3.635  17.140  0.1980  0.8869 -0.3222
  363TIP3    H222581   5.608   3.688  17.002  0.8493 -0.0636 -0.5393
  364TIP3   OH222582   4.700   4.622  12.123  0.0024  0.4175  0.3203
  364TIP3    H122583   4.659   4.702  12.157  1.5939  0.8735  1.2986
  364TIP3    H222584   4.641   4.552  12.148 -0.7513  1.1641  0.6775
  365TIP3   OH222585   1.966   2.046  13.257 -0.1528  0.3611  0.6127
  365TIP3    H122586   2.041   2.004  13.299 -1.0220 -1.0744  0.7971
  365TIP3    H222587   1.992   2.138  13.248  0.8667  0.2892  2.3938
  366TIP3   OH222588   6.436   4.737   1.218 -0.0005 -0.0147  0.3033
  366TIP3    H122589   6.354   4.717   1.173  0.2036  0.5808 -0.3414
  366TIP3    H222590   6.411   4.796   1.289 -0.0269  0.8401 -0.4032
  367TIP3   OH222591   2.974   1.933  15.349 -0.3985  0.5641 -0.4199
  367TIP3    H122592   3.046   1.908  15.291  0.4859  1.8528  0.0715
  367TIP3    H222593   2.942   2.016  15.314 -1.8449 -0.0977 -0.7660
  368TIP3   OH222594   1.119   3.418   6.054  0.2111  0.2946  0.5941
  368TIP3    H122595   1.212   3.416   6.078  0.0554  1.6131  1.4304
  368TIP3    H222596   1.072   3.411   6.137 -0.4010  1.1743  0.3433
  369TIP3   OH222597   0.194   3.396  14.083  0.3065 -0.4850  0.0628
  369TIP3    H122598   0.165   3.331  14.019  0.0176  0.2030 -0.5240
  369TIP3    H222599   0.241   3.462  14.031 -0.7149  0.5596  0.4070
  370TIP3   OH222600   0.645   6.476   1.346 -0.4416 -0.1083  0.3017
  370TIP3    H122601   0.592   6.463   1.424 -2.7913  1.8857 -0.8378
  370TIP3    H222602   0.645   6.391   1.302 -1.7553 -0.4497  0.9177
  371TIP3   OH222603   1.936   6.374   1.778  0.1660  0.3202  0.2078
  371TIP3    H122604   1.994   6.383   1.702 -0.2132  1.9362  0.0795
  371TIP3    H222605   1.861   6.325   1.745 -0.4028  1.7461 -0.7453
  372TIP3   OH222606   0.344   2.913  15.780  0.3406 -0.2218  0.4877
  372TIP3    H122607   0.302   2.959  15.853  1.7680  1.4925  0.2847
  372TIP3    H222608   0.271   2.879  15.729 -0.7115 -0.4525  2.0584
  373TIP3   OH222609   6.532   6.734  13.745 -0.2282  0.4211  0.3401
  373TIP3    H122610   6.465   6.756  13.680 -0.3549 -1.6777 -0.3130
  373TIP3    H222611   6.573   6.654  13.711  0.1393 -0.3843  2.5203
  374TIP3   OH222612   0.925   5.747   6.633 -0.5260 -0.3155 -0.2871
  374TIP3    H122613   1.001   5.746   6.691 -0.3612  2.3390 -0.3569
  374TIP3    H222614   0.961   5.765   6.546 -0.9753 -2.2669 -0.9366
  375TIP3   OH222615   5.708   0.133  16.072 -0.2800 -0.4430 -0.1459
  375TIP3    H122616   5.725   0.141  16.165 -1.1955 -1.0826  0.0953
  375TIP3    H222617   5.645   0.202  16.052 -0.5795 -0.7141 -0.1491
  376TIP3   OH222618   4.067   0.335   2.690  0.2087  0.3233  0.4204
  376TIP3    H122619   3.978   0.364   2.671 -0.5885 -1.2653  1.5520
  376TIP3    H222620   4.118   0.361   2.613 -1.5633 -0.2408 -1.0037
  377TIP3   OH222621   2.393   0.167  17.017 -0.1493 -0.8060 -0.1566
  377TIP3    H122622   2.383   0.261  17.008 -0.1033 -0.6782  1.0220
  377TIP3    H222623   2.469   0.156  17.075 -0.4065 -1.5529  0.0568
  378TIP3   OH222624   4.822   4.242  16.468 -0.0419 -0.4258 -0.1063
  378TIP3    H122625   4.849   4.333  16.467  0.6848 -0.5743 -3.1351
  378TIP3    H222626   4.814   4.218  16.376 -0.4948 -3.3494  0.5873
  379TIP3   OH222627   1.398   3.307   6.044  0.1298  0.5924  0.4907
  379TIP3    H122628   1.439   3.393   6.047 -0.2551  0.7970  0.0083
  379TIP3    H222629   1.466   3.247   6.073  0.8961  0.8791 -0.6421
  380TIP3   OH222630   6.046   3.616  16.221  0.2322 -0.0314 -0.0453
  380TIP3    H122631   6.067   3.530  16.186 -0.3625 -0.5939  0.9450
  380TIP3    H222632   5.951   3.624  16.211  0.4347  1.0869 -1.3746
  381TIP3   OH222633   5.978   3.990  12.485 -0.1671  0.0048 -0.3910
  381TIP3    H122634   6.000   3.897  12.494 -0.1543  0.0209 -0.2596
  381TIP3    H222635   6.055   4.029  12.443 -1.8500 -0.8723 -4.8811
  382TIP3   OH222636   4.096   6.234  17.067  0.1316 -0.1555 -0.7936
  382TIP3    H122637   4.176   6.194  17.032 -0.3088 -1.3552 -0.4648
  382TIP3    H222638   4.049   6.265  16.990  0.1817 -0.8638 -1.1159
  383TIP3   OH222639   4.686   5.059   6.187 -0.2618  0.0092 -0.1758
  383TIP3    H122640   4.695   5.140   6.237 -1.9939  0.3856 -0.3861
  383TIP3    H222641   4.601   5.069   6.143 -0.0656 -1.5242 -0.9355
  384TIP3   OH222642   3.419   3.484  11.096 -0.4439  0.2904  0.1755
  384TIP3    H122643   3.331   3.511  11.071  0.3772  1.3607 -1.7640
  384TIP3    H222644   3.416   3.479  11.192 -1.9753  2.5726  0.3150
  385TIP3   OH222645   2.798   5.944  12.268  0.0096 -0.5145 -0.4821
  385TIP3    H122646   2.764   5.927  12.180 -1.1522 -1.5658  0.1400
  385TIP3    H222647   2.746   6.018  12.300 -0.8813 -1.3429  0.0135
  386TIP3   OH222648   3.761   6.173  11.857 -0.2575  0.0882 -0.3238
  386TIP3    H122649   3.834   6.126  11.819  0.1451 -1.0031  1.6760
  386TIP3    H222650   3.713   6.108  11.908 -1.0290  1.3461  0.6484
  387TIP3   OH222651   1.349   5.622  15.044 -0.4672  0.4646 -0.3430
  387TIP3    H122652   1.418   5.684  15.022  1.8170 -1.8814 -0.1779
  387TIP3    H222653   1.318   5.651  15.130  1.1695  0.9130  0.1287
  388TIP3   OH222654   5.155   5.592   3.094  0.4451  0.1399 -0.3626
  388TIP3    H122655   5.110   5.597   3.178 -1.0317  1.1584 -1.1605
  388TIP3    H222656   5.247   5.577   3.116  0.0134 -0.0637  1.4029
  389TIP3   OH222657   2.074   4.352   0.680 -0.2715 -0.4986  0.0020
  389TIP3    H122658   2.134   4.426   0.671  1.1057 -1.6464 -0.5385
  389TIP3    H222659   1.998   4.389   0.726  0.1788  1.3375 -0.6306
  390TIP3   OH222660   0.883   3.230  14.068  0.2130 -0.2536  0.1550
  390TIP3    H122661   0.796   3.195  14.051 -0.8739  1.0491  2.5045
  390TIP3    H222662   0.900   3.290  13.996 -0.2803 -1.4272 -0.9700
  391TIP3   OH222663   4.533   3.997   5.170 -0.3761 -0.5050 -0.3149
  391TIP3    H122664   4.462   3.972   5.110 -1.8095 -1.7207  1.7548
  391TIP3    H222665   4.551   3.917   5.220  1.5743  0.1545  0.1348
  392TIP3   OH222666   4.471   2.220   2.304 -0.2828  0.1720  0.4930
  392TIP3    H122667   4.456   2.176   2.220  0.0476 -0.0019  0.5216
  392TIP3    H222668   4.475   2.313   2.282 -1.8253  0.2813  0.5446
  393TIP3   OH222669   3.760   4.541  12.173 -0.7950  0.4851  0.4759
  393TIP3    H122670   3.719   4.578  12.096  0.9041 -1.4726 -1.5064
  393TIP3    H222671   3.730   4.450  12.174  0.1585  0.1612  1.4270
  394TIP3   OH222672   3.506   1.948   0.187 -0.2701 -0.2472  0.4219
  394TIP3    H122673   3.536   1.868   0.231  0.7371  0.4880  1.1370
  394TIP3    H222674   3.437   1.919   0.128  1.6347 -1.9971 -1.0655
  395TIP3   OH222675   2.404   4.990  11.561 -0.1328  0.3379 -0.5081
  395TIP3    H122676   2.334   4.944  11.608  0.6822  1.3002  1.7959
  395TIP3    H222677   2.370   5.079  11.549  0.6190  0.8129  0.6291
  396TIP3   OH222678   3.154   4.856   1.746 -0.2210  0.1557  0.2672
  396TIP3    H122679   3.082   4.914   1.770 -0.9700 -0.1914 -1.0154
  396TIP3    H222680   3.223   4.914   1.715 -0.6204  0.4241 -0.1344
  397TIP3   OH222681   4.816   4.332  15.917  0.1891 -0.1643 -0.0720
  397TIP3    H122682   4.891   4.391  15.908  1.8100 -1.9936  0.8446
  397TIP3    H222683   4.759   4.355  15.843  1.5839  1.3311 -0.7575
  398TIP3   OH222684   0.085   4.407  15.427  0.4632  0.4846  0.2991
  398TIP3    H122685   0.080   4.395  15.522 -0.3103  0.1497  0.2202
  398TIP3    H222686   0.123   4.325  15.394 -0.4250  0.0917  0.2125
  399TIP3   OH222687   3.463   4.605   5.453 -0.0886  0.3108  0.7011
  399TIP3    H122688   3.392   4.668   5.451  0.3485  0.8458  1.6261
  399TIP3    H222689   3.424   4.524   5.420 -0.6244  1.0646 -0.6074
  400TIP3   OH222690   1.955   1.136  14.793 -0.1995  0.3464 -0.2100
  400TIP3    H122691   1.968   1.197  14.721 -1.7443  2.3156  1.0819
  400TIP3    H222692   2.004   1.174  14.866  1.1086 -1.4658 -0.0673
  401TIP3   OH222693   1.894   2.321  11.355  0.4302 -0.0985  0.1725
  401TIP3    H122694   1.833   2.336  11.427  1.0924 -1.4018  1.0511
  401TIP3    H222695   1.841   2.279  11.287  0.3172 -1.1926  0.9113
  402TIP3   OH222696   5.055   0.277  13.079 -0.0094 -1.1351  0.4692
  402TIP3    H122697   5.134   0.331  13.074 -1.9269  1.8233 -1.1629
  402TIP3    H222698   5.043   0.263  13.173  0.1960  2.1758  1.1449
  403TIP3   OH222699   0.687   3.938   4.217  0.1071  0.3226 -0.0963
  403TIP3    H122700   0.712   3.945   4.125  0.1215 -0.4628 -0.1622
  403TIP3    H222701   0.768   3.955   4.265  0.9830 -2.7142 -0.3212
  404TIP3   OH222702   1.043   6.780   1.874  0.1230 -0.2911 -0.5271
  404TIP3    H122703   1.076   6.845   1.936 -0.9784  1.8712 -2.0571
  404TIP3    H222704   0.949   6.801   1.866 -0.0264 -1.3499 -1.9171
  405TIP3   OH222705   2.627   5.270   3.287  0.6605  0.1488 -0.0153
  405TIP3    H122706   2.620   5.207   3.359 -1.1250 -1.7250 -1.6828
  405TIP3    H222707   2.693   5.233   3.228 -0.1343 -0.0200 -0.8288
  406TIP3   OH222708   2.248   5.481  14.718 -0.3251  0.2033  0.0072
  406TIP3    H122709   2.322   5.501  14.776 -0.1204 -2.5248  0.8347
  406TIP3    H222710   2.289   5.448  14.638 -0.5951 -1.5793  0.5695
  407TIP3   OH222711   6.496   3.651  13.959  0.1642  0.2946  0.4244
  407TIP3    H122712   6.545   3.571  13.941 -0.1981  0.7497 -3.4822
  407TIP3    H222713   6.415   3.621  13.999  0.9628 -1.0678  1.0749
  408TIP3   OH222714   5.238   6.252   5.993 -0.5127 -0.6436  0.1592
  408TIP3    H122715   5.302   6.216   6.055 -0.7806 -0.5466  0.4886
  408TIP3    H222716   5.162   6.194   6.001  0.3311 -2.1653 -1.8722
  409TIP3   OH222717   4.824   6.184   6.020 -0.3219 -0.0950 -0.1627
  409TIP3    H122718   4.844   6.152   6.108  0.6060  2.0066  0.4410
  409TIP3    H222719   4.731   6.204   6.023 -0.1089  0.8559  0.6664
  410TIP3   OH222720   1.928   4.452  12.592 -0.4833 -0.1142  0.0513
  410TIP3    H122721   1.862   4.484  12.530 -0.9278 -0.0046  0.5722
  410TIP3    H222722   1.930   4.518  12.661  0.3395 -0.0071 -0.0670
  411TIP3   OH222723   1.598   4.007   2.532  0.2448  0.2381 -0.0719
  411TIP3    H122724   1.616   4.098   2.558 -0.4536  0.5949 -0.8141
  411TIP3    H222725   1.681   3.977   2.494  0.0387  1.0925 -1.2690
  412TIP3   OH222726   1.103   4.155   2.290 -0.2221 -0.4940 -0.6518
  412TIP3    H122727   1.087   4.073   2.335 -0.7977  0.3270  0.6905
  412TIP3    H222728   1.156   4.130   2.214  0.2725 -2.0002  0.1313
  413TIP3   OH222729   5.607   1.920  13.180 -0.0939  0.1733 -0.4104
  413TIP3    H122730   5.533   1.865  13.207 -0.0061  0.0509 -0.4192
  413TIP3    H222731   5.631   1.886  13.094  0.9099 -0.7407  0.2098
  414TIP3   OH222732   6.417   3.596  12.128 -0.2852  0.0155 -0.3347
  414TIP3    H122733   6.451   3.637  12.049  0.4803  0.0873  0.0194
  414TIP3    H222734   6.470   3.632  12.199 -0.4615 -0.6088  0.1316
  415TIP3   OH222735   3.079   6.368   0.834  0.2408  0.0945 -0.4755
  415TIP3    H122736   3.135   6.438   0.801  0.8323 -0.5662 -0.9272
  415TIP3    H222737   3.114   6.289   0.792 -0.3788 -0.4707  0.0597
  416TIP3   OH222738   4.656   3.353  10.919 -0.1372 -0.4530 -0.2490
  416TIP3    H122739   4.735   3.368  10.971 -0.5336 -0.1884  0.2769
  416TIP3    H222740   4.585   3.389  10.971 -0.6206 -0.7519 -0.6892
  417TIP3   OH222741   1.975   4.786   1.744  0.3873  0.0143  0.2128
  417TIP3    H122742   1.950   4.877   1.756  1.1728  0.2490  0.0738
  417TIP3    H222743   2.067   4.789   1.720  0.5306 -0.8436  0.6287
  418TIP3   OH222744   1.222   4.872   6.511 -0.2843  0.1426  0.3118
  418TIP3    H122745   1.248   4.781   6.496  0.8539  0.4394  0.3668
  418TIP3    H222746   1.195   4.874   6.603  2.4186  0.4173  1.1798
  419TIP3   OH222747   4.921   6.567   3.089  0.0242 -0.4278  0.3905
  419TIP3    H122748   4.962   6.509   3.025 -0.6717  1.0074 -1.4231
  419TIP3    H222749   4.853   6.514   3.130 -0.8362 -0.8565 -1.4854
  420TIP3   OH222750   0.376   5.272  16.676  0.6597 -0.7114  0.6272
  420TIP3    H122751   0.361   5.240  16.587 -1.5886  0.4447  0.5107
  420TIP3    H222752   0.301   5.240  16.726  1.0205  0.0500  1.6884
  421TIP3   OH222753   0.745   0.070  11.120 -0.2659  0.2457  0.1278
  421TIP3    H122754   0.717   0.122  11.045 -1.5615 -1.6665 -0.8253
  421TIP3    H222755   0.838   0.052  11.103 -0.5522 -0.2035 -1.0881
  422TIP3   OH222756   4.276   0.758   2.916  0.1497 -0.0820  0.4683
  422TIP3    H122757   4.241   0.799   2.837  0.1947  0.6791  0.8382
  422TIP3    H222758   4.198   0.734   2.967  0.1439  1.1894  1.0774
  423TIP3   OH222759   2.794   0.252   4.689  0.1095 -0.4543  0.1191
  423TIP3    H122760   2.798   0.206   4.605 -0.2252 -1.0110  0.3995
  423TIP3    H222761   2.726   0.319   4.675  1.0118  0.3585 -0.4755
  424TIP3   OH222762   4.464   5.753   0.375  0.0868  0.3990  0.7892
  424TIP3    H122763   4.534   5.776   0.314  0.2845 -1.5027  0.2212
  424TIP3    H222764   4.398   5.709   0.321 -1.1366  1.3429  1.4735
  425TIP3   OH222765   3.491   2.259   3.627 -0.5475 -0.6637 -0.0244
  425TIP3    H122766   3.488   2.173   3.669 -0.3937 -0.0433  1.3107
  425TIP3    H222767   3.584   2.273   3.610 -0.5823 -0.8009 -0.3289
  426TIP3   OH222768   5.172   0.296  15.892 -0.3634  0.1811  0.4807
  426TIP3    H122769   5.205   0.280  15.981 -1.5171 -1.0453  0.7213
  426TIP3    H222770   5.078   0.309  15.903 -0.5294 -0.0243 -0.5713
  427TIP3   OH222771   1.491   0.192   3.874  0.1724 -0.0529 -0.3155
  427TIP3    H122772   1.524   0.103   3.882  0.9362  0.3509  1.4204
  427TIP3    H222773   1.569   0.247   3.869 -0.2778  0.6051 -0.3710
  428TIP3   OH222774   2.053   5.931  15.903  0.3277  0.2066 -0.1062
  428TIP3    H122775   2.081   5.864  15.840 -0.6447  1.4611 -1.9855
  428TIP3    H222776   1.960   5.915  15.915  0.2686  0.6865  0.0923
  429TIP3   OH222777   0.891   1.029  17.032 -0.0081 -0.0026  0.0360
  429TIP3    H122778   0.869   1.094  17.099 -0.7518 -0.3161  0.1049
  429TIP3    H222779   0.867   0.945  17.071 -2.1026 -0.0785 -1.2143
  430TIP3   OH222780   0.347   2.676  16.215  0.6773 -0.3575  0.6779
  430TIP3    H122781   0.423   2.717  16.173  1.3423 -0.9573  1.2829
  430TIP3    H222782   0.273   2.732  16.189  1.2682  0.0593 -0.1674
  431TIP3   OH222783   5.723   1.107  13.655 -0.5932  0.4178  0.1381
  431TIP3    H122784   5.693   1.016  13.667 -0.6963  0.0895 -2.1728
  431TIP3    H222785   5.817   1.103  13.670 -0.2591 -0.5405 -1.8981
  432TIP3   OH222786   0.203   4.601   1.804 -0.0852  0.2780 -0.4229
  432TIP3    H122787   0.210   4.607   1.709  1.7255  2.6488 -0.2652
  432TIP3    H222788   0.277   4.654   1.836 -1.6860  1.0728  2.2835
  433TIP3   OH222789   3.153   3.280   3.259  0.3336  0.3841 -0.4780
  433TIP3    H122790   3.227   3.301   3.317  0.0079 -0.5611  0.3136
  433TIP3    H222791   3.076   3.291   3.315 -0.0019 -0.3665 -0.7816
  434TIP3   OH222792   5.493   5.750  14.085 -0.4925  0.5101 -0.0564
  434TIP3    H122793   5.407   5.791  14.087 -0.3386  0.8376  1.9933
  434TIP3    H222794   5.539   5.795  14.014 -2.0767  0.0937 -1.4114
  435TIP3   OH222795   5.291   1.156   0.627 -0.1193  0.3654  0.0589
  435TIP3    H122796   5.196   1.144   0.637 -0.4848  2.5217 -0.2233
  435TIP3    H222797   5.328   1.068   0.636 -1.7838 -0.1229  3.7626
  436TIP3   OH222798   2.559   3.053   3.444  0.2893  0.3066  0.0127
  436TIP3    H122799   2.471   3.026   3.416  0.3948  0.2003 -0.2271
  436TIP3    H222800   2.561   3.148   3.430  0.0219  0.3934  0.5596
  437TIP3   OH222801   1.016   5.650   5.757  0.2898 -0.0019 -0.3051
  437TIP3    H122802   1.095   5.596   5.748  0.6593  0.6909 -1.3664
  437TIP3    H222803   1.008   5.663   5.851  2.4419  1.3278 -0.2386
  438TIP3   OH222804   3.419   6.483   4.058 -0.4421  0.3629 -0.6591
  438TIP3    H122805   3.472   6.488   3.979 -0.8428 -0.2910 -0.9709
  438TIP3    H222806   3.475   6.438   4.121 -0.2004  0.6990 -0.6326
  439TIP3   OH222807   6.693   2.326   4.042  0.9714  0.0804  0.5313
  439TIP3    H122808   6.749   2.276   4.102  0.4774 -0.3897  0.6155
  439TIP3    H222809   6.738   2.409   4.031  1.0223  0.2257  1.6517
  440TIP3   OH222810   3.261   3.166  13.403 -0.6953 -0.1736 -0.3940
  440TIP3    H122811   3.356   3.166  13.393 -0.9132  0.3674 -3.4989
  440TIP3    H222812   3.239   3.256  13.429 -0.3331 -0.7356  2.1749
  441TIP3   OH222813   6.487   6.791  15.377 -0.0373 -0.1265  0.2411
  441TIP3    H122814   6.469   6.784  15.471  1.2510 -0.1829  0.4990
  441TIP3    H222815   6.540   6.870  15.368 -0.2600 -0.0486 -0.4586
  442TIP3   OH222816   6.085   2.205  14.023 -0.6876  0.0175 -0.4573
  442TIP3    H122817   6.017   2.152  14.066 -0.8283 -0.1658 -0.8995
  442TIP3    H222818   6.129   2.251  14.095 -1.9728  0.9692 -0.2380
  443TIP3   OH222819   3.235   3.359   1.652  0.4029  0.5818 -0.1098
  443TIP3    H122820   3.252   3.451   1.674 -1.7218  0.7583  0.9620
  443TIP3    H222821   3.143   3.345   1.673  0.6893 -1.8407 -0.1646
  444TIP3   OH222822   3.606   6.587   1.057 -0.2472 -0.5728  0.4024
  444TIP3    H122823   3.645   6.505   1.026 -0.3408 -0.6368  0.4517
  444TIP3    H222824   3.512   6.572   1.048 -0.2668 -0.5062  0.5023
  445TIP3   OH222825   4.282   1.270   1.508 -0.5432  0.8304  0.2732
  445TIP3    H122826   4.202   1.293   1.461  0.3956  0.4542 -1.5907
  445TIP3    H222827   4.274   1.176   1.524 -0.4293  0.7699 -0.0192
  446TIP3   OH222828   3.695   1.749   4.594 -0.5007 -0.6258  0.3943
  446TIP3    H122829   3.618   1.692   4.591 -0.1545 -1.1032  0.5171
  446TIP3    H222830   3.689   1.802   4.514  0.1058 -2.0497 -0.6263
  447TIP3   OH222831   6.487   5.802  15.229 -0.0280 -0.0765  0.3911
  447TIP3    H122832   6.528   5.831  15.148  0.5873 -2.0076 -0.0302
  447TIP3    H222833   6.396   5.832  15.223  1.1250  4.4253  1.3907
  448TIP3   OH222834   1.899   2.156   2.572  0.3145 -0.3498  0.4168
  448TIP3    H122835   1.816   2.107   2.564 -0.3802  0.9495 -0.8084
  448TIP3    H222836   1.915   2.189   2.483  1.5989  0.3271  0.8844
  449TIP3   OH222837   1.517   2.739   5.966 -0.7306 -0.2382  0.0865
  449TIP3    H122838   1.479   2.694   6.042  0.9031 -0.6464  0.7203
  449TIP3    H222839   1.575   2.674   5.926  2.2826  1.3723  1.4673
  450TIP3   OH222840   1.780   5.162   2.129  0.4421  0.2262  0.3104
  450TIP3    H122841   1.864   5.180   2.171 -0.2441  0.3135  1.6862
  450TIP3    H222842   1.730   5.243   2.139  0.0588  0.0540 -0.1849
  451TIP3   OH222843   1.436   4.607  16.538 -0.6927 -0.3057  0.0471
  451TIP3    H122844   1.431   4.533  16.598 -0.3322 -1.3565 -1.1802
  451TIP3    H222845   1.511   4.587  16.482 -0.5437  1.0385 -0.2632
  452TIP3   OH222846   2.184   2.216   0.984  0.0706 -0.6076 -0.5701
  452TIP3    H122847   2.214   2.185   1.069  2.3085  0.9195 -0.7120
  452TIP3    H222848   2.117   2.153   0.958 -0.0380 -1.6282  1.8887
  453TIP3   OH222849   1.427   1.748  11.826 -0.3526 -0.0995  0.5800
  453TIP3    H122850   1.435   1.713  11.737  2.6379 -1.7141  1.3626
  453TIP3    H222851   1.355   1.698  11.865  1.4636 -3.0225  0.5097
  454TIP3   OH222852   0.684   3.246   1.670 -0.1367  0.4575  0.2352
  454TIP3    H122853   0.766   3.293   1.652  0.4468 -0.4520  0.4627
  454TIP3    H222854   0.671   3.256   1.765  2.0087 -2.8863  1.0721
  455TIP3   OH222855   6.140   0.562  16.596  0.2466 -0.1720  0.0652
  455TIP3    H122856   6.133   0.632  16.660 -0.6073  1.6345 -1.8781
  455TIP3    H222857   6.171   0.605  16.516  2.4371 -2.5152 -0.5007
  456TIP3   OH222858   0.651   4.949   3.451 -0.2355 -0.1691  0.0265
  456TIP3    H122859   0.670   4.874   3.394 -0.8840  0.3011 -0.8455
  456TIP3    H222860   0.711   5.017   3.422 -0.0573 -0.1582  0.4152
  457TIP3   OH222861   6.740   2.282   2.752 -0.3900 -0.1102 -0.0502
  457TIP3    H122862   6.767   2.203   2.798 -0.8454 -0.1864  0.0954
  457TIP3    H222863   6.797   2.286   2.675  2.4704  1.6231  1.9659
  458TIP3   OH222864   4.062   4.007  16.147 -0.5858 -0.6836  0.8291
  458TIP3    H122865   4.014   3.943  16.095 -0.2023 -0.5841  0.3426
  458TIP3    H222866   4.050   4.090  16.101 -0.0861 -0.6299  0.7868
  459TIP3   OH222867   5.906   2.723  15.316 -0.2597  0.1847 -0.3241
  459TIP3    H122868   5.922   2.650  15.375 -0.4751 -0.0909 -0.6032
  459TIP3    H222869   5.867   2.683  15.238  0.4224  0.4902 -0.8332
  460TIP3   OH222870   3.315   6.776   3.597  0.1406 -0.5587  0.1023
  460TIP3    H122871   3.269   6.830   3.532 -1.0347 -1.3454  0.2599
  460TIP3    H222872   3.408   6.793   3.580 -0.1705  1.6164  0.2325
  461TIP3   OH222873   1.431   5.836   4.684 -0.2066 -0.5556 -0.0857
  461TIP3    H122874   1.465   5.925   4.672  2.2594 -1.3596  0.2125
  461TIP3    H222875   1.361   5.828   4.619  0.0766  1.3124 -0.6944
  462TIP3   OH222876   2.436   0.844   2.618 -0.2035  0.3111  0.0236
  462TIP3    H122877   2.419   0.906   2.690 -0.5356  0.6889 -0.3747
  462TIP3    H222878   2.362   0.782   2.623  0.8071 -0.8715  1.2549
  463TIP3   OH222879   1.770   5.467  11.569 -0.3069  0.2591 -0.2796
  463TIP3    H122880   1.781   5.408  11.495  0.1787  1.3220 -1.0801
  463TIP3    H222881   1.779   5.411  11.646 -1.4742 -0.9803 -1.0016
  464TIP3   OH222882   2.000   5.749   1.472 -0.4307  0.0838 -1.2828
  464TIP3    H122883   1.992   5.838   1.439 -1.7807  0.5820  0.2716
  464TIP3    H222884   1.922   5.704   1.437 -1.4697  0.4160  0.4883
  465TIP3   OH222885   0.368   4.593   2.057  0.3705 -0.1840  0.3220
  465TIP3    H122886   0.446   4.644   2.037  1.3070 -1.3594  0.8430
  465TIP3    H222887   0.384   4.508   2.016  1.1424 -1.7724  3.6064
  466TIP3   OH222888   2.360   0.320   5.888 -0.0556  0.0949  0.3658
  466TIP3    H122889   2.357   0.367   5.972  0.7385 -0.9666  1.0261
  466TIP3    H222890   2.379   0.387   5.823  0.6270  0.7604  1.2269
  467TIP3   OH222891   2.038   5.230   2.206 -0.4825  0.2481 -0.1276
  467TIP3    H122892   2.028   5.267   2.293 -0.1024  1.7375 -0.6954
  467TIP3    H222893   2.115   5.173   2.213 -0.0656  0.8552  0.3691
  468TIP3   OH222894   1.329   5.341   1.905  0.2048 -0.5596  0.4512
  468TIP3    H122895   1.419   5.361   1.929 -0.4841  1.5331  1.5444
  468TIP3    H222896   1.277   5.371   1.980 -1.5222 -0.3530 -0.7656
  469TIP3   OH222897   6.117   5.757   1.020 -0.1437 -0.0110 -0.5785
  469TIP3    H122898   6.154   5.703   1.090 -0.8230 -1.6229 -1.4035
  469TIP3    H222899   6.187   5.763   0.955  0.0259  0.3645 -0.3677
  470TIP3   OH222900   0.362   0.808  13.701 -0.0792 -0.1149 -0.1924
  470TIP3    H122901   0.356   0.735  13.762 -1.9196 -0.3205 -0.5852
  470TIP3    H222902   0.298   0.872  13.732 -1.0185 -0.1945 -1.8419
  471TIP3   OH222903   3.118   0.299   4.458  0.1440  0.0826 -0.3247
  471TIP3    H122904   3.141   0.312   4.366 -0.0749 -2.8333 -0.9163
  471TIP3    H222905   3.025   0.320   4.463 -0.0034 -0.3695 -0.9655
  472TIP3   OH222906   3.455   4.095   4.543 -0.8325  0.4889 -0.2420
  472TIP3    H122907   3.387   4.100   4.476 -0.2272  0.7542 -0.8432
  472TIP3    H222908   3.529   4.053   4.499  0.1971  2.2277 -0.2784
  473TIP3   OH222909   6.798   2.723   6.074 -0.2624  0.1892  0.5836
  473TIP3    H122910   6.760   2.756   6.155  1.4030 -0.0163  1.4826
  473TIP3    H222911   6.885   2.693   6.098  0.3922  0.3807 -1.3329
  474TIP3   OH222912   2.238   5.803  15.176 -0.0388 -0.4407 -0.5183
  474TIP3    H122913   2.231   5.790  15.082 -0.4622  2.0894 -0.8901
  474TIP3    H222914   2.331   5.813  15.193 -0.0805  0.8537 -0.9674
  475TIP3   OH222915   2.301   4.987   0.998 -0.1364 -0.3651  0.8902
  475TIP3    H122916   2.337   5.015   1.083  1.8636  1.2012 -0.3749
  475TIP3    H222917   2.365   4.924   0.964 -0.5409 -0.4299  0.2286
  476TIP3   OH222918   0.807   1.130  16.165 -0.0978 -0.4112  0.0607
  476TIP3    H122919   0.790   1.153  16.256  0.6804  2.4207 -0.3868
  476TIP3    H222920   0.900   1.148  16.153 -0.2831 -0.3124 -1.3942
  477TIP3   OH222921   0.405   5.172  11.231 -0.2211  0.1014  0.4049
  477TIP3    H122922   0.434   5.191  11.320  0.1852  1.3620  0.0201
  477TIP3    H222923   0.480   5.194  11.175 -0.3833 -0.9019 -0.2444
  478TIP3   OH222924   6.249   2.592   0.764  0.2005  0.3697  0.1078
  478TIP3    H122925   6.247   2.679   0.723 -0.4118 -0.1644 -1.0749
  478TIP3    H222926   6.236   2.531   0.691 -0.4531 -0.6654  1.0479
  479TIP3   OH222927   2.777   2.418   2.024  0.0776 -0.0468  0.1195
  479TIP3    H122928   2.774   2.324   2.040 -1.2253  0.4267  3.6813
  479TIP3    H222929   2.696   2.437   1.977 -0.9326 -0.4591  1.6309
  480TIP3   OH222930   3.511   0.520  11.737  0.1630 -0.2556  0.3126
  480TIP3    H122931   3.524   0.580  11.664 -2.8196 -0.1609 -0.2716
  480TIP3    H222932   3.483   0.438  11.696 -0.0632 -0.6799  1.2864
  481TIP3   OH222933   1.476   1.950   4.005  0.1567 -0.3157  0.2857
  481TIP3    H122934   1.477   1.981   3.914 -2.5582 -2.8842 -0.7849
  481TIP3    H222935   1.558   1.901   4.014  0.9660  0.8717 -0.3844
  482TIP3   OH222936   0.085   3.513   4.423  0.2935 -0.1846 -0.3174
  482TIP3    H122937   0.175   3.544   4.409  0.6769 -1.7147 -1.4318
  482TIP3    H222938   0.032   3.575   4.372  0.7754  0.2608 -0.2998
  483TIP3   OH222939   0.481   1.002  15.784  0.1148 -0.4407  0.7512
  483TIP3    H122940   0.551   0.937  15.779  0.1393 -0.3433 -0.4556
  483TIP3    H222941   0.444   0.991  15.872  2.1265  0.0163  1.7367
  484TIP3   OH222942   4.738   6.330   3.904  0.6575  0.1837 -0.5783
  484TIP3    H122943   4.736   6.419   3.940  0.8228  0.0419 -0.2193
  484TIP3    H222944   4.651   6.317   3.868  0.5464  0.3917 -0.3904
  485TIP3   OH222945   5.037   1.776  11.207 -0.0269  0.0424 -0.1013
  485TIP3    H122946   4.989   1.787  11.125  0.7882  0.9449 -0.4797
  485TIP3    H222947   5.079   1.861  11.222  0.0028 -0.1798  1.1460
  486TIP3   OH222948   6.177   5.297   3.014  0.0091 -0.4227 -0.1497
  486TIP3    H122949   6.229   5.343   3.079  1.0289  0.4944 -1.5619
  486TIP3    H222950   6.152   5.365   2.951  1.0286 -1.6407 -1.9573
  487TIP3   OH222951   3.238   5.808   2.360  0.1964 -0.0083  0.5960
  487TIP3    H122952   3.309   5.852   2.314 -1.3812  3.7523  1.3551
  487TIP3    H222953   3.277   5.778   2.442  1.3102  0.3990  0.2244
  488TIP3   OH222954   1.208   0.520  14.041  0.3564 -0.0562 -0.1464
  488TIP3    H122955   1.266   0.548  14.111  2.4355 -0.9764 -1.3947
  488TIP3    H222956   1.247   0.558  13.962 -1.1278 -0.1886 -0.9784
  489TIP3   OH222957   3.339   3.406  15.752 -0.1874  0.4321 -0.5517
  489TIP3    H122958   3.394   3.484  15.757  0.4698 -0.0399 -0.4436
  489TIP3    H222959   3.275   3.427  15.683 -0.9065  1.6161  0.4220
  490TIP3   OH222960   5.035   1.452   6.484 -0.2819 -0.4435  0.1749
  490TIP3    H122961   4.951   1.410   6.503 -0.9100  0.1247 -1.1355
  490TIP3    H222962   5.010   1.541   6.456  0.8173 -0.0239  0.4952
  491TIP3   OH222963   2.482   0.378   0.516  0.2790  0.7486 -0.0684
  491TIP3    H122964   2.420   0.320   0.471 -0.2593  0.4634  0.9880
  491TIP3    H222965   2.538   0.413   0.447  0.7625 -1.2020 -0.7295
  492TIP3   OH222966   3.713   1.498  11.650 -0.3871  0.7082  0.7435
  492TIP3    H122967   3.781   1.432  11.636 -0.1844  0.9651  0.5127
  492TIP3    H222968   3.708   1.546  11.568 -0.1043  1.3756  1.1062
  493TIP3   OH222969   2.493   4.053   0.847 -0.0161 -0.4827 -0.6032
  493TIP3    H122970   2.461   3.981   0.901  0.5689 -0.7081 -0.5555
  493TIP3    H222971   2.532   4.011   0.771 -0.0675 -0.1958 -0.7896
  494TIP3   OH222972   0.304   3.192   3.470 -0.4460 -0.4850  0.2307
  494TIP3    H122973   0.334   3.282   3.485  2.4679 -1.4913  1.2246
  494TIP3    H222974   0.243   3.175   3.541 -1.5734  0.8665 -0.3551
  495TIP3   OH222975   4.385   0.419   5.136  0.4754  0.3328  0.1662
  495TIP3    H122976   4.438   0.381   5.206 -1.9977  0.8903  2.4867
  495TIP3    H222977   4.397   0.514   5.145 -1.7660  0.5400  1.5469
  496TIP3   OH222978   3.597   2.452   0.365  0.5807  0.0368  0.7844
  496TIP3    H122979   3.513   2.498   0.368  1.1035  0.9910  2.1270
  496TIP3    H222980   3.662   2.521   0.379  1.9337 -0.0650 -3.5657
  497TIP3   OH222981   4.515   3.470  12.781  0.0168 -0.5243 -0.8433
  497TIP3    H122982   4.554   3.497  12.864 -0.5556  1.1813 -1.0903
  497TIP3    H222983   4.447   3.408  12.805  0.3711 -0.6328 -0.0972
  498TIP3   OH222984   6.622   6.330  16.337  0.3142 -0.0992  0.1134
  498TIP3    H122985   6.638   6.236  16.351 -0.2361 -0.3426 -0.7959
  498TIP3    H222986   6.677   6.373  16.403  0.4110 -1.0609  0.6904
  499TIP3   OH222987   6.607   2.791  11.167 -0.5118 -0.0310  0.2364
  499TIP3    H122988   6.652   2.817  11.247  0.1230 -2.6639  0.8428
  499TIP3    H222989   6.674   2.795  11.099 -0.1048 -1.0831  0.5543
  500TIP3   OH222990   3.217   2.391  17.049 -0.3992  0.3610  0.1896
  500TIP3    H122991   3.209   2.486  17.052 -0.3202  0.3642  0.3439
  500TIP3    H222992   3.264   2.373  16.968 -0.1151  0.4759  0.3270
  501TIP3   OH222993   1.216   3.673  14.494  0.0667 -0.2674  0.6159
  501TIP3    H122994   1.236   3.664  14.400 -0.2354 -1.0123  0.6129
  501TIP3    H222995   1.203   3.583  14.524 -0.8727  0.0322  1.1475
  502TIP3   OH222996   3.564   0.992  11.693 -0.3339 -0.2490 -0.0418
  502TIP3    H122997   3.468   0.998  11.686 -0.3850  0.4986  1.0259
  502TIP3    H222998   3.578   0.914  11.747 -0.3878  0.1346  0.5363
  503TIP3   OH222999   3.984   0.773   5.356  0.0901  0.9642 -0.0007
  503TIP3    H123000   3.960   0.822   5.435 -2.8217 -0.0293 -0.1183
  503TIP3    H223001   4.009   0.840   5.293 -0.2307  2.0026  0.9354
  504TIP3   OH223002   4.901   2.743  12.028  0.2528  0.3969 -0.2150
  504TIP3    H123003   4.849   2.714  11.952 -0.2049  0.6937 -0.0240
  504TIP3    H223004   4.946   2.664  12.058 -0.6456 -0.0323  0.0382
  505TIP3   OH223005   4.280   1.446   4.860  0.3103 -0.2575 -0.0797
  505TIP3    H123006   4.355   1.475   4.809  1.8407 -2.5682  0.6888
  505TIP3    H223007   4.298   1.477   4.949 -0.9561  1.3203 -0.3156
  506TIP3   OH223008   1.259   0.075  13.491  0.3700  0.1276  0.4045
  506TIP3    H123009   1.164   0.070  13.491  0.3729 -0.8858  2.1759
  506TIP3    H223010   1.287  -0.012  13.462  0.7741  0.6150 -0.7052
  507TIP3   OH223011   6.560   5.374  16.495  0.2860 -0.2001  0.0592
  507TIP3    H123012   6.560   5.411  16.584  0.6741  0.1171 -0.0719
  507TIP3    H223013   6.529   5.284  16.507  2.5062 -0.9231  0.8506
  508TIP3   OH223014   5.311   1.557  16.536 -0.1602  0.3749  0.5622
  508TIP3    H123015   5.380   1.542  16.600 -0.1614  0.7341  0.6480
  508TIP3    H223016   5.339   1.509  16.458  0.1097  0.3928  0.6474
  509TIP3   OH223017   1.549   3.751  16.914 -0.5776  0.0876  0.2587
  509TIP3    H123018   1.501   3.670  16.931  0.3796 -0.4787  0.3525
  509TIP3    H223019   1.639   3.723  16.902 -0.0086  1.2676  1.5119
  510TIP3   OH223020   6.247   5.445   5.474  0.3743  0.4625  0.3000
  510TIP3    H123021   6.176   5.500   5.507  0.3704  0.8739 -0.3816
  510TIP3    H223022   6.236   5.361   5.520  0.3124  0.9809  1.2546
  511TIP3   OH223023   3.347   1.718   1.663  0.0957  0.2632 -1.0846
  511TIP3    H123024   3.388   1.646   1.614 -1.0033 -0.7487 -0.5896
  511TIP3    H223025   3.303   1.771   1.597  0.5405  0.2228 -1.4133
  512TIP3   OH223026   6.496   5.923   1.687 -0.4561  0.2276 -0.2498
  512TIP3    H123027   6.438   5.859   1.647  0.1933 -0.2608 -0.4218
  512TIP3    H223028   6.533   5.879   1.763 -0.9911  0.8465  0.3929
  513TIP3   OH223029   6.415   3.629  15.825  0.0599  0.2207  0.4208
  513TIP3    H123030   6.411   3.610  15.919 -0.5501 -0.7041  0.2249
  513TIP3    H223031   6.363   3.708  15.814  1.1268  1.0333  1.0169
  514TIP3   OH223032   0.460   2.925   1.118  0.4219  0.2078 -0.5324
  514TIP3    H123033   0.515   2.962   1.187 -0.5686  0.2037  0.2879
  514TIP3    H223034   0.439   2.999   1.061 -0.7205  0.7478  0.5357
  515TIP3   OH223035   0.069   3.725   4.004 -0.0019 -0.0256  0.3089
  515TIP3    H123036   0.132   3.693   4.068  0.3567  0.4244  0.1852
  515TIP3    H223037   0.092   3.679   3.923 -1.3322 -1.6597  0.8046
  516TIP3   OH223038   1.866   3.545  15.787 -0.1125 -0.1306  0.3807
  516TIP3    H123039   1.793   3.536  15.848  0.4426 -2.3698  0.8159
  516TIP3    H223040   1.830   3.521  15.701 -0.2023  0.0304  0.3755
  517TIP3   OH223041   1.317   0.491   0.504  0.4628  0.0613  0.6262
  517TIP3    H123042   1.256   0.541   0.558  0.2528 -0.9478  1.3590
  517TIP3    H223043   1.273   0.482   0.420  1.5332  3.1849 -0.4167
  518TIP3   OH223044   1.847   1.079  11.618  0.1500 -0.0156 -0.0168
  518TIP3    H123045   1.804   1.164  11.624 -0.7318 -0.5309  1.3841
  518TIP3    H223046   1.902   1.085  11.540  0.7279  2.1152  0.5042
  519TIP3   OH223047   3.263   5.241   3.785 -0.3160 -0.1136  0.1429
  519TIP3    H123048   3.214   5.171   3.829 -0.3808 -0.6483 -0.7456
  519TIP3    H223049   3.267   5.312   3.849 -0.4174 -0.8574  1.0007
  520TIP3   OH223050   4.693   0.650   0.289  0.1408  0.5681 -0.2068
  520TIP3    H123051   4.705   0.581   0.354 -1.0178 -0.0076 -0.5809
  520TIP3    H223052   4.780   0.661   0.250  0.3533 -0.6490 -0.1052
  521TIP3   OH223053   2.461   6.355   5.288 -0.4281  0.6351 -0.1082
  521TIP3    H123054   2.464   6.441   5.247 -0.1144  0.2137 -0.9956
  521TIP3    H223055   2.439   6.295   5.217 -1.6249  0.0921  0.6914
  522TIP3   OH223056   1.612   1.401  15.978 -0.3057 -0.1100  0.3389
  522TIP3    H123057   1.688   1.353  16.011 -1.1232  0.1629  2.7676
  522TIP3    H223058   1.538   1.366  16.027 -1.2379  2.1489  0.6592
  523TIP3   OH223059   6.126   0.642   0.321  0.0523 -0.2116 -0.1366
  523TIP3    H123060   6.087   0.690   0.248 -1.2794 -0.6704  0.2530
  523TIP3    H223061   6.129   0.706   0.393 -0.3125 -0.2734 -0.0651
  524TIP3   OH223062   1.203   1.627   5.552 -0.4610  0.4497 -0.6380
  524TIP3    H123063   1.128   1.649   5.497 -0.9209 -0.3184 -0.3412
  524TIP3    H223064   1.169   1.562   5.613  0.0838  1.1429  0.4350
  525TIP3   OH223065   1.836   1.997   2.879 -0.2507 -0.6132 -0.4066
  525TIP3    H123066   1.768   1.932   2.896  0.0574 -1.1452 -1.1514
  525TIP3    H223067   1.793   2.065   2.827 -0.5417 -0.2809  0.2644
  526TIP3   OH223068   0.976   1.358  17.100 -0.1758  0.0474 -0.3424
  526TIP3    H123069   0.916   1.432  17.100 -1.6500 -1.0662  0.9106
  526TIP3    H223070   0.952   1.308  17.022 -1.6387 -0.9120  0.6680
  527TIP3   OH223071   0.003   1.460   6.042 -0.4189 -0.0954 -0.8223
  527TIP3    H123072   0.058   1.502   6.107 -0.3325  0.0036 -0.9576
  527TIP3    H223073   0.053   1.383   6.013 -0.5559 -0.2658 -0.6099
  528TIP3   OH223074   0.968   0.726   2.816 -0.4779  0.3948 -0.5057
  528TIP3    H123075   1.017   0.665   2.761 -0.1541 -2.0768  2.2753
  528TIP3    H223076   0.882   0.732   2.773  0.6080  0.9099 -2.7761
  529TIP3   OH223077   5.471   2.788  10.914  0.2599 -0.4394 -0.1852
  529TIP3    H123078   5.384   2.828  10.917 -0.2167 -1.2054 -2.0055
  529TIP3    H223079   5.505   2.810  10.827  2.1122  0.2450  0.6517
  530TIP3   OH223080   4.826   4.421  15.117  0.3505 -0.4583  0.1996
  530TIP3    H123081   4.781   4.480  15.178 -1.0427 -1.2321 -0.0238
  530TIP3    H223082   4.871   4.480  15.057  1.8861  0.3164  2.0154
  531TIP3   OH223083   3.017   1.237  11.982 -0.2958 -0.8101  0.1587
  531TIP3    H123084   3.101   1.218  11.941 -2.0124 -2.6056 -2.9023
  531TIP3    H223085   3.004   1.331  11.969 -1.1757 -1.3139 -4.9507
  532TIP3   OH223086   1.223   3.227  15.563  0.6169  0.3945 -0.6798
  532TIP3    H123087   1.131   3.238  15.542  0.2837 -0.8065  0.0638
  532TIP3    H223088   1.267   3.221  15.478 -0.1389 -0.1198 -1.0413
  533TIP3   OH223089   2.741   1.996  13.708 -0.4759 -0.5635 -0.1800
  533TIP3    H123090   2.788   1.990  13.791  0.3351 -0.6038 -0.6277
  533TIP3    H223091   2.652   2.022  13.732 -0.9362 -2.9090  0.9012
  534TIP3   OH223092   3.298   1.900  12.284 -0.0949  0.2452 -0.8302
  534TIP3    H123093   3.293   1.983  12.237 -2.2012  0.1547 -0.8953
  534TIP3    H223094   3.226   1.905  12.348  0.4277 -1.0868 -0.1007
  535TIP3   OH223095   0.203   4.683  10.791  0.0880  0.4574 -0.2759
  535TIP3    H123096   0.115   4.651  10.812 -0.3909  1.4287 -0.7455
  535TIP3    H223097   0.247   4.687  10.876 -1.1276  2.2694  0.3525
  536TIP3   OH223098   3.525   2.071   2.240 -0.8570 -0.0656  0.1111
  536TIP3    H123099   3.465   2.000   2.218 -0.6852 -0.7294  1.5979
  536TIP3    H223100   3.567   2.094   2.157 -1.5787 -1.0854 -0.5628
  537TIP3   OH223101   1.258   5.459  16.047 -0.1297 -0.0791 -0.1638
  537TIP3    H123102   1.205   5.533  16.019  1.1191  0.7172 -0.4949
  537TIP3    H223103   1.283   5.415  15.965 -0.6851 -0.7578  0.0175
  538TIP3   OH223104   2.653   0.176   3.649  0.1057 -0.3276  0.4861
  538TIP3    H123105   2.719   0.237   3.617  0.6238 -1.2208 -0.1994
  538TIP3    H223106   2.677   0.092   3.610 -2.2506 -0.4138 -0.9692
  539TIP3   OH223107   6.306   5.010  17.173 -0.3776 -0.2414  0.0225
  539TIP3    H123108   6.246   5.068  17.126 -1.5562 -0.7062  0.8929
  539TIP3    H223109   6.255   4.979  17.248  0.3139 -2.1538 -0.2459
  540TIP3   OH223110   3.887   3.854  11.013  0.1012 -0.5100  0.0215
  540TIP3    H123111   3.882   3.790  11.084  0.2502 -0.4399  0.0966
  540TIP3    H223112   3.931   3.809  10.942 -3.5320 -1.9769 -1.5726
  541TIP3   OH223113   1.114   2.541   5.253 -0.0147 -1.2250  0.8301
  541TIP3    H123114   1.081   2.630   5.259  1.9775 -0.1524 -1.9348
  541TIP3    H223115   1.040   2.491   5.217 -0.2819 -0.0196 -0.3656
  542TIP3   OH223116   0.012   3.588   0.112  0.1273 -0.0155  0.1520
  542TIP3    H123117   0.073   3.567   0.182  0.5080 -0.3124 -0.2601
  542TIP3    H223118  -0.061   3.529   0.124  1.1894 -1.6536 -1.0005
  543TIP3   OH223119   5.154   1.162  16.929  0.6188 -0.1453  0.4555
  543TIP3    H123120   5.113   1.080  16.901 -1.3149  0.5485  1.1650
  543TIP3    H223121   5.171   1.209  16.847 -1.3014  0.1432  0.1947
  544TIP3   OH223122   6.497   4.369   4.801  0.6137  0.5095  0.0529
  544TIP3    H123123   6.569   4.423   4.770 -0.5318  2.1718  0.1633
  544TIP3    H223124   6.418   4.412   4.768 -0.4043 -0.3355  1.2795
  545TIP3   OH223125   4.130   6.022  13.211 -0.0828 -0.2865  0.1030
  545TIP3    H123126   4.223   6.011  13.191  0.0500 -0.0015  0.5571
  545TIP3    H223127   4.128   6.079  13.288 -0.6967  1.1860 -0.9638
  546TIP3   OH223128   4.544   2.985  14.423  0.4423 -0.2506 -0.1619
  546TIP3    H123129   4.558   3.022  14.510  0.6159 -1.6329  0.4185
  546TIP3    H223130   4.510   3.058  14.371  2.1968  1.0938  0.5189
  547TIP3   OH223131   5.227   2.360  16.622 -0.1167  0.0132 -0.6435
  547TIP3    H123132   5.187   2.273  16.625  0.5139 -0.2589  0.0036
  547TIP3    H223133   5.184   2.403  16.548 -0.0596 -1.0354 -1.3130
  548TIP3   OH223134   5.341   1.197   5.214  0.0526 -0.3734  0.4036
  548TIP3    H123135   5.302   1.168   5.132 -1.2165 -0.8744  1.1502
  548TIP3    H223136   5.324   1.126   5.276 -1.5606  1.1116  1.8188
  549TIP3   OH223137   6.787   4.794  13.820  0.3920  0.0903  0.1662
  549TIP3    H123138   6.881   4.786  13.834  0.1345 -1.3276  1.2695
  549TIP3    H223139   6.768   4.731  13.750  0.2204  0.1669  0.1448
  550TIP3   OH223140   2.739   4.511  14.981 -0.2851 -0.1090  0.3418
  550TIP3    H123141   2.781   4.547  14.903 -0.6414  1.0808  0.6787
  550TIP3    H223142   2.653   4.553  14.984 -0.1306  0.1723  1.5751
  551TIP3   OH223143   5.741   4.287   5.145 -0.5579 -0.0487 -0.3649
  551TIP3    H123144   5.754   4.357   5.080  1.1337  0.2457  0.2306
  551TIP3    H223145   5.736   4.333   5.229  1.8102 -0.6214  0.1856
  552TIP3   OH223146   1.128   2.127  11.372 -0.4163 -0.1311  0.3671
  552TIP3    H123147   1.070   2.167  11.307  2.3194 -0.1798 -2.3182
  552TIP3    H223148   1.216   2.145  11.340  1.0527 -2.6673  2.5806
  553TIP3   OH223149   1.752   0.570   5.421  0.2024  0.0407 -0.0495
  553TIP3    H123150   1.666   0.545   5.454  0.4961 -0.3284  0.4425
  553TIP3    H223151   1.805   0.491   5.427 -0.3607 -0.7671 -3.6420
  554TIP3   OH223152   5.015   1.105  14.542  0.4579  0.3997 -0.4456
  554TIP3    H123153   5.062   1.180  14.578 -0.2650  1.4574 -1.6525
  554TIP3    H223154   5.081   1.055  14.494  0.6243  1.1475 -0.9997
  555TIP3   OH223155   4.831   5.466   2.273  0.1201  0.2325  0.0913
  555TIP3    H123156   4.765   5.417   2.223  1.1129 -1.8281  0.7072
  555TIP3    H223157   4.801   5.557   2.269 -0.6325 -0.0211 -3.0161
  556TIP3   OH223158   0.400   6.141  13.978 -0.2131  0.2384 -0.0503
  556TIP3    H123159   0.393   6.097  13.894  0.9823  0.7638 -0.4512
  556TIP3    H223160   0.396   6.234  13.956  0.4349  0.3837  0.4294
  557TIP3   OH223161   2.003   3.475   5.845  0.6436  0.3513 -0.3499
  557TIP3    H123162   2.036   3.414   5.779  0.5983  1.0944 -1.0675
  557TIP3    H223163   1.936   3.424   5.892  0.5762 -0.1426 -0.9614
  558TIP3   OH223164   6.014   4.678   1.478 -0.5107  0.2355 -0.1690
  558TIP3    H123165   6.001   4.756   1.424  1.2999  0.7320  0.0567
  558TIP3    H223166   6.011   4.605   1.416 -3.0694  0.3533 -0.2715
  559TIP3   OH223167   0.783   1.097   2.809 -0.4260 -0.4838  0.4847
  559TIP3    H123168   0.853   1.159   2.827 -0.6445 -0.7581  2.5024
  559TIP3    H223169   0.827   1.020   2.774  0.4146 -0.8904  2.3109
  560TIP3   OH223170   4.454   4.216   1.693 -0.3097 -0.6363 -0.5620
  560TIP3    H123171   4.549   4.222   1.708 -0.2436 -0.5330 -0.9946
  560TIP3    H223172   4.415   4.275   1.757 -0.1286 -1.2259  0.1012
  561TIP3   OH223173   1.439   2.991  11.799  0.6192 -0.7674 -0.3973
  561TIP3    H123174   1.386   3.063  11.835 -0.2870 -1.9348  0.6938
  561TIP3    H223175   1.417   2.990  11.706 -0.5565 -0.6176 -0.1381
  562TIP3   OH223176   3.202   5.955   4.042 -0.1884  0.5176  0.6299
  562TIP3    H123177   3.126   5.970   4.097 -0.1071  2.4475  0.2938
  562TIP3    H223178   3.167   5.954   3.952  0.1548  1.5187  0.4668
  563TIP3   OH223179   5.854   5.521   3.767 -0.5077  0.0110  0.6820
  563TIP3    H123180   5.948   5.526   3.783 -0.4515 -1.1622  0.8110
  563TIP3    H223181   5.824   5.449   3.823 -1.0599 -1.2849 -1.1829
  564TIP3   OH223182   4.384   4.486  15.684 -0.3567  0.1266  0.0112
  564TIP3    H123183   4.414   4.563  15.636 -1.3792  1.1929  1.0184
  564TIP3    H223184   4.459   4.427  15.685  1.1398  1.9463  0.9570
  565TIP3   OH223185   1.028   2.904  12.734  0.1918 -0.7155  0.0754
  565TIP3    H123186   1.042   2.809  12.734 -2.8175 -1.2727 -1.7945
  565TIP3    H223187   1.028   2.928  12.642  0.9760  1.1625  0.5298
  566TIP3   OH223188   0.673   0.263   1.146 -0.0183  0.2197  0.4498
  566TIP3    H123189   0.623   0.190   1.109  1.1867 -0.6713  0.5145
  566TIP3    H223190   0.742   0.281   1.082  0.5438  0.3544  1.0789
  567TIP3   OH223191   1.076   1.411  10.746  0.0047 -0.0555  0.1456
  567TIP3    H123192   1.007   1.475  10.729 -0.5826 -0.9732 -1.1469
  567TIP3    H223193   1.151   1.463  10.777 -1.3903  0.9142  2.1284
  568TIP3   OH223194   4.194   0.978   1.013  0.4854 -0.4559  0.1497
  568TIP3    H123195   4.139   0.946   0.941  1.1547 -1.6502  0.1381
  568TIP3    H223196   4.131   1.009   1.078 -0.1416  2.0085 -1.4668
  569TIP3   OH223197   1.923   0.167  11.296  0.7323  0.0340 -0.1886
  569TIP3    H123198   1.893   0.086  11.337  1.5429 -0.0554  0.2532
  569TIP3    H223199   1.972   0.140  11.219  1.2863  0.0856  0.1433
  570TIP3   OH223200   3.770   4.062  14.759 -0.4900  0.4150  0.1665
  570TIP3    H123201   3.861   4.082  14.734 -0.4389 -0.3634 -0.3074
  570TIP3    H223202   3.765   3.966  14.754 -1.5259  0.4931 -0.4761
  571TIP3   OH223203   6.136   3.914   5.187 -0.0516  0.3328  0.4417
  571TIP3    H123204   6.156   3.913   5.093 -1.4033  0.6515  0.1289
  571TIP3    H223205   6.159   4.003   5.215 -0.7413  0.6106  0.1466
  572TIP3   OH223206   1.248   4.944  12.563 -0.0770 -0.1895 -0.0443
  572TIP3    H123207   1.171   4.914  12.611 -0.4561  0.3573 -0.3042
  572TIP3    H223208   1.317   4.949  12.629 -0.3867 -0.2229  0.2834
  573TIP3   OH223209   5.778   3.545   5.298  0.0068 -0.1740  0.2930
  573TIP3    H123210   5.747   3.566   5.209 -2.5529 -0.4223  1.0346
  573TIP3    H223211   5.868   3.516   5.285  0.8157  2.7651 -1.8110
  574TIP3   OH223212   6.488   4.584  11.633  0.6430 -0.2823 -0.5920
  574TIP3    H123213   6.422   4.516  11.619 -0.5952  0.9334 -0.8811
  574TIP3    H223214   6.556   4.565  11.568  1.0425 -2.0620  0.2829
  575TIP3   OH223215   1.450   0.324   5.787  0.0352  0.0892 -0.0269
  575TIP3    H123216   1.484   0.315   5.698  1.6576 -1.6908  0.6879
  575TIP3    H223217   1.492   0.403   5.821  1.5602 -0.7135  0.0140
  576TIP3   OH223218   0.836   1.867   3.967 -0.4302 -0.1754 -0.4169
  576TIP3    H123219   0.853   1.961   3.960 -0.6254 -0.1159 -0.0883
  576TIP3    H223220   0.808   1.841   3.879 -0.5289  0.1044 -0.4681
  577TIP3   OH223221   6.626   0.857  16.392 -0.1856  0.3001 -0.2430
  577TIP3    H123222   6.652   0.786  16.333  2.5715  0.8319  0.2074
  577TIP3    H223223   6.553   0.900  16.347 -2.7144 -3.3105 -0.0772
  578TIP3   OH223224   2.442   0.274  16.688  0.7072 -0.0459  0.4880
  578TIP3    H123225   2.440   0.365  16.658 -0.3847  0.2521  1.3852
  578TIP3    H223226   2.500   0.275  16.765  1.1988 -0.2428  0.1262
  579TIP3   OH223227   5.888   4.882  13.803  0.3292 -0.0886 -0.4235
  579TIP3    H123228   5.874   4.975  13.788 -0.0640 -0.1689 -0.5807
  579TIP3    H223229   5.972   4.863  13.761  2.2427  0.9087  2.6704
  580TIP3   OH223230   3.489   5.924  14.762  0.8428  0.0394  0.0705
  580TIP3    H123231   3.435   5.885  14.830  0.2676 -0.0871 -0.4532
  580TIP3    H223232   3.548   5.983  14.809  0.2603  0.1708  0.6463
  581TIP3   OH223233   0.362   0.330  12.312  0.0715 -0.4075  0.4304
  581TIP3    H123234   0.422   0.264  12.279 -0.3271  0.0166 -1.2539
  581TIP3    H223235   0.304   0.349  12.238 -0.7711  0.7264  1.3415
  582TIP3   OH223236   1.372   5.749   0.208  0.3818  0.0972  0.0750
  582TIP3    H123237   1.293   5.801   0.190  0.4158 -0.2171 -1.0596
  582TIP3    H223238   1.427   5.762   0.131  0.3915 -1.6131 -0.2499
  583TIP3   OH223239   6.653   4.385   2.710  0.3867  0.8071 -0.2037
  583TIP3    H123240   6.587   4.345   2.766  1.6286  2.3607  2.6275
  583TIP3    H223241   6.603   4.439   2.648 -1.0456 -0.9633 -0.6823
  584TIP3   OH223242   5.964   4.894   1.773 -0.0674 -0.0304 -0.5940
  584TIP3    H123243   5.906   4.968   1.757  1.4205  0.8725 -2.1694
  584TIP3    H223244   5.980   4.896   1.868 -1.5591  0.4384 -0.3257
  585TIP3   OH223245   6.245   6.253  15.495 -0.1289  0.3454 -0.2643
  585TIP3    H123246   6.319   6.251  15.435  0.6888  1.9806  0.6017
  585TIP3    H223247   6.257   6.177  15.551  1.3035  0.9265  0.2711
  586TIP3   OH223248   3.220   3.027   0.265  0.1319  0.5761 -0.1115
  586TIP3    H123249   3.132   3.014   0.300 -0.1874  0.7174 -0.8493
  586TIP3    H223250   3.276   2.971   0.319 -0.5983 -0.5089 -0.4658
  587TIP3   OH223251   4.694   5.748   2.522 -0.0034 -0.4988  1.3170
  587TIP3    H123252   4.788   5.763   2.527  0.0047 -0.7133  1.8541
  587TIP3    H223253   4.678   5.727   2.430  0.3530  0.3026  1.0619
  588TIP3   OH223254   5.948   4.598   5.583  0.3969  0.4235 -0.2499
  588TIP3    H123255   6.010   4.525   5.589 -0.2194 -0.1933 -1.1198
  588TIP3    H223256   5.895   4.589   5.662  0.1831 -0.2172 -0.4584
  589TIP3   OH223257   0.876   6.038   2.141 -0.5445  0.1971 -0.2510
  589TIP3    H123258   0.864   6.107   2.076 -0.2839  0.1007 -0.4040
  589TIP3    H223259   0.804   5.977   2.125  0.3960 -0.6341 -1.4934
  590TIP3   OH223260   5.558   2.036  11.782 -0.4523 -0.0856  0.4181
  590TIP3    H123261   5.633   2.028  11.841  0.7452  1.9769 -0.6928
  590TIP3    H223262   5.586   1.993  11.701 -1.2252 -0.9547  0.5961
  591TIP3   OH223263   0.064   1.378   4.316  0.1072 -0.0935  0.0882
  591TIP3    H123264   0.003   1.311   4.347  0.5826 -0.0679  1.1052
  591TIP3    H223265   0.078   1.357   4.224 -3.2593  1.2524 -0.8850
  592TIP3   OH223266   1.122   1.914  16.182  0.2590  0.0277  0.1354
  592TIP3    H123267   1.187   1.974  16.218  1.8028 -1.0932 -0.6974
  592TIP3    H223268   1.118   1.842  16.246  1.0711 -0.6968 -0.6084
  593TIP3   OH223269   6.140   5.288  14.720 -0.4033  0.4406 -0.8629
  593TIP3    H123270   6.056   5.243  14.708 -0.2958  0.4668 -1.7752
  593TIP3    H223271   6.172   5.304  14.631  0.3372  0.8731 -0.5309
  594TIP3   OH223272   5.842   4.437   0.505 -0.3126 -0.1431  0.1198
  594TIP3    H123273   5.827   4.496   0.431  1.0229  1.2659  0.9318
  594TIP3    H223274   5.857   4.351   0.465 -1.2510  0.2444 -1.1309
  595TIP3   OH223275   3.284   3.079   1.062  0.4865  0.3242  0.6226
  595TIP3    H123276   3.269   3.173   1.073 -1.2763 -0.0524  1.9375
  595TIP3    H223277   3.314   3.049   1.147 -0.8346 -0.5909  0.7981
  596TIP3   OH223278   3.417   3.415  14.093  0.2394  0.5545  0.0705
  596TIP3    H123279   3.338   3.469  14.095 -0.9911 -1.0022 -2.0350
  596TIP3    H223280   3.474   3.460  14.030  0.0393  0.4563 -0.1848
  597TIP3   OH223281   0.513   0.538  15.935  0.7815  0.4098 -0.0274
  597TIP3    H123282   0.523   0.516  16.027  0.6328  1.0492  0.1446
  597TIP3    H223283   0.538   0.630  15.929 -0.1883  0.6639 -0.4385
  598TIP3   OH223284   2.548   2.305   2.464  0.0463  0.3896 -0.7208
  598TIP3    H123285   2.521   2.245   2.534 -0.4072  1.5323  0.1196
  598TIP3    H223286   2.615   2.257   2.416 -1.8778 -1.6703 -1.5015
  599TIP3   OH223287   6.486   3.413   5.988 -0.3204 -0.1244  0.4105
  599TIP3    H123288   6.471   3.499   5.949 -1.0373 -0.2994  0.2954
  599TIP3    H223289   6.504   3.432   6.080 -0.9993  0.1176  0.5010
  600TIP3   OH223290   0.385   5.986   4.508  0.2588  0.2613 -0.2512
  600TIP3    H123291   0.362   6.054   4.572 -0.5746 -0.9647  0.8127
  600TIP3    H223292   0.480   5.979   4.513  0.2054  0.1771  0.8793
  601TIP3   OH223293   6.611   0.516  16.985 -0.4116  0.2360  0.4597
  601TIP3    H123294   6.692   0.542  17.028 -0.2874 -1.1871  1.1554
  601TIP3    H223295   6.544   0.518  17.054 -1.3527  2.8281 -0.4130
  602TIP3   OH223296   0.432   2.669   5.488  0.2681  0.0270  0.3912
  602TIP3    H123297   0.425   2.618   5.408  2.8063 -3.0255  1.9087
  602TIP3    H223298   0.357   2.641   5.541 -0.0209  0.2042  0.0859
  603TIP3   OH223299   0.317   3.419   1.414 -0.6230  0.6950 -0.3570
  603TIP3    H123300   0.257   3.494   1.423  0.3462  1.8656 -2.6891
  603TIP3    H223301   0.338   3.418   1.321  0.1074 -1.9839 -0.2149
  604TIP3   OH223302   3.840   5.339  14.753 -0.6142 -0.3196  0.1036
  604TIP3    H123303   3.781   5.266  14.735 -0.0319 -0.7035 -0.2437
  604TIP3    H223304   3.870   5.368  14.667 -0.4182 -0.0166  0.2700
  605TIP3   OH223305   0.029   0.311   6.283 -0.0723  0.2965 -0.4544
  605TIP3    H123306   0.104   0.274   6.236  0.2279  0.2500  0.0651
  605TIP3    H223307  -0.043   0.249   6.266  0.1555  0.0323 -0.4562
  606TIP3   OH223308   2.920   2.417   6.482 -0.1504 -0.1543  0.3492
  606TIP3    H123309   2.882   2.505   6.488  1.7436  0.7845 -0.4417
  606TIP3    H223310   2.959   2.402   6.569  1.8036  0.9626 -0.2717
  607TIP3   OH223311   5.553   3.654   4.272 -0.0414  0.2524 -0.5183
  607TIP3    H123312   5.548   3.586   4.340  0.8195  0.8973  0.2158
  607TIP3    H223313   5.463   3.662   4.240 -0.3063 -0.6602 -0.0430
  608TIP3   OH223314   1.562   3.344   1.185 -0.4050 -0.0913  0.0252
  608TIP3    H123315   1.515   3.396   1.120 -0.4858 -1.2687 -0.8841
  608TIP3    H223316   1.559   3.254   1.152 -0.4231 -0.7236  1.6427
  609TIP3   OH223317   0.592   2.618  14.444 -0.4661 -0.0812  0.4546
  609TIP3    H123318   0.591   2.523  14.434  0.5186  0.0694 -1.6363
  609TIP3    H223319   0.663   2.648  14.387 -0.5166  1.8920  1.3318
  610TIP3   OH223320   2.670   5.790  13.918  0.6701  0.3223  0.0171
  610TIP3    H123321   2.654   5.853  13.848  1.1308 -1.2288 -1.5568
  610TIP3    H223322   2.755   5.817  13.955  0.7270  0.7919 -0.4387
  611TIP3   OH223323   4.042   6.316   2.676 -0.1766 -0.4424  0.0297
  611TIP3    H123324   4.121   6.363   2.702 -1.0823  1.4652 -0.4822
  611TIP3    H223325   4.036   6.243   2.737  0.9573  0.4608  1.2704
  612TIP3   OH223326   3.887   2.102   4.411  0.4651  0.2584  0.3038
  612TIP3    H123327   3.950   2.089   4.481 -1.0954 -0.4013  1.6512
  612TIP3    H223328   3.828   2.027   4.417 -0.5260  0.8984 -0.8351
  613TIP3   OH223329   4.502   1.935  12.163  0.2078 -0.1428  0.4127
  613TIP3    H123330   4.515   2.029  12.162  0.1834 -0.0856  2.2619
  613TIP3    H223331   4.414   1.923  12.127 -0.1837  0.6350  1.0817
  614TIP3   OH223332   2.638   3.486   2.909  0.2515  0.4755  0.0003
  614TIP3    H123333   2.724   3.461   2.874 -0.1215 -0.7558 -0.1044
  614TIP3    H223334   2.576   3.428   2.864 -0.2697 -1.0783  2.5065
  615TIP3   OH223335   2.669   4.881   1.386 -0.0959 -0.0214  0.1476
  615TIP3    H123336   2.710   4.936   1.318 -2.4252  1.5890 -0.1033
  615TIP3    H223337   2.663   4.939   1.462  0.1575 -0.9747  0.9050
  616TIP3   OH223338   2.530   4.278  16.290 -0.0125 -0.2412  0.4631
  616TIP3    H123339   2.546   4.255  16.382  0.3335  0.5894  0.6195
  616TIP3    H223340   2.500   4.369  16.293  0.2592 -0.1178 -0.2671
  617TIP3   OH223341   4.738   0.520   3.563 -0.4547  0.2930  0.1178
  617TIP3    H123342   4.667   0.547   3.622 -1.4236  0.9658 -1.2903
  617TIP3    H223343   4.804   0.589   3.573 -1.2651  1.2143 -0.6501
  618TIP3   OH223344   1.020   0.979   2.102 -0.5576  0.1332  0.4371
  618TIP3    H123345   1.001   1.063   2.144  0.2839  1.9860 -2.5605
  618TIP3    H223346   1.111   0.986   2.074 -0.8345 -1.2539 -0.9496
  619TIP3   OH223347   1.949   6.380   5.429 -0.2974  0.0771  0.0390
  619TIP3    H123348   1.909   6.462   5.459 -0.0627 -0.0262  0.6420
  619TIP3    H223349   2.021   6.408   5.373 -0.1952  0.2863  0.2711
  620TIP3   OH223350   0.765   2.694   4.514  0.3136  0.9438  0.3214
  620TIP3    H123351   0.857   2.712   4.533  0.8943 -1.9408  0.6350
  620TIP3    H223352   0.726   2.672   4.599  0.2243 -1.2175 -0.2294
  621TIP3   OH223353   4.970   0.488   5.245  0.3547 -0.0671 -0.1665
  621TIP3    H123354   4.925   0.572   5.254 -0.5695 -0.3086 -2.0015
  621TIP3    H223355   4.931   0.432   5.312  1.4025  1.0759  1.4918
  622TIP3   OH223356   1.163   3.217  14.985 -0.1732 -0.2277 -0.0273
  622TIP3    H123357   1.087   3.199  14.929 -0.1880 -1.7434  0.4446
  622TIP3    H223358   1.126   3.225  15.073  0.0223  0.7969 -0.0183
  623TIP3   OH223359   4.503   4.792   2.287  0.6363 -0.7186 -0.4208
  623TIP3    H123360   4.414   4.794   2.252  0.4190 -0.5643  0.1174
  623TIP3    H223361   4.500   4.721   2.352  0.1972  0.8656  1.3907
  624TIP3   OH223362   5.618   0.303  16.469  0.0345  0.4386 -0.5561
  624TIP3    H123363   5.537   0.336  16.430  0.2736  0.0976 -1.3559
  624TIP3    H223364   5.665   0.262  16.397  0.8950  0.5658 -0.0850
  625TIP3   OH223365   3.114   2.800   6.093 -0.1204 -0.3215  0.4420
  625TIP3    H123366   3.052   2.789   6.165 -1.5621  1.5102 -0.4430
  625TIP3    H223367   3.061   2.791   6.014  0.8172  0.8695 -0.3455
  626TIP3   OH223368   5.214   2.068  12.168  0.3022  0.3252 -0.4553
  626TIP3    H123369   5.177   2.122  12.099  0.4498  0.7328 -0.2190
  626TIP3    H223370   5.144   2.007  12.190 -0.9170  2.1746  1.1707
  627TIP3   OH223371   4.020   0.018  14.801 -0.0464  0.4493  0.2258
  627TIP3    H123372   4.055   0.106  14.785 -0.7679  0.9472  1.2467
  627TIP3    H223373   3.927   0.033  14.821 -0.2274 -0.5723  0.1978
  628TIP3   OH223374   4.109   4.439   1.744 -0.0595 -0.1348  0.4705
  628TIP3    H123375   4.053   4.405   1.674 -0.1573 -0.6261  0.7842
  628TIP3    H223376   4.198   4.431   1.709 -0.1438  0.0763  0.2099
  629TIP3   OH223377   0.863   2.876  13.036  0.5228 -0.7368 -0.4200
  629TIP3    H123378   0.820   2.952  12.999  0.3295 -0.6674 -0.0620
  629TIP3    H223379   0.792   2.823  13.072  0.7811 -0.1968  0.9672
  630TIP3   OH223380   5.658   0.529  11.487 -0.0683 -0.0749  0.0266
  630TIP3    H123381   5.714   0.549  11.412  1.0952 -1.1808  0.5624
  630TIP3    H223382   5.586   0.592  11.481  1.7152  2.0514 -0.1625
  631TIP3   OH223383   2.518   4.026  16.151 -0.2590 -0.5241 -0.1137
  631TIP3    H123384   2.425   4.007  16.154 -0.1933 -0.7317  0.7561
  631TIP3    H223385   2.526   4.116  16.180 -0.0666 -0.9648  1.2524
  632TIP3   OH223386   3.901   1.905  12.460  0.0631  0.1371  0.0135
  632TIP3    H123387   3.824   1.939  12.415 -0.9679  0.5930  2.0210
  632TIP3    H223388   3.868   1.870  12.543  1.9138 -0.3885  0.5878
  633TIP3   OH223389   3.711   1.239   2.418  0.1828  0.0059 -0.2782
  633TIP3    H123390   3.797   1.269   2.447 -0.4772 -0.4927  2.4055
  633TIP3    H223391   3.709   1.261   2.325  1.8661  3.2164  0.2828
  634TIP3   OH223392   1.490   1.325   1.280 -1.0003 -0.5834 -0.8163
  634TIP3    H123393   1.558   1.265   1.249  0.6365  1.5330 -1.5733
  634TIP3    H223394   1.448   1.357   1.200 -1.8991 -0.7455 -0.4212
  635TIP3   OH223395   6.824   5.805   1.893 -0.0122  0.1461 -0.3332
  635TIP3    H123396   6.758   5.858   1.850  0.8887  0.5340 -1.2828
  635TIP3    H223397   6.904   5.857   1.887  0.4221 -0.3717  0.6620
  636TIP3   OH223398   6.790   3.990   2.826  0.1671  0.1065 -0.1858
  636TIP3    H123399   6.726   3.957   2.889 -1.0071 -0.5088 -1.6435
  636TIP3    H223400   6.873   3.953   2.854 -0.0588  0.9508  1.7740
  637TIP3   OH223401   3.344   4.150  17.017 -0.0248  0.4116 -0.2813
  637TIP3    H123402   3.342   4.206  17.095 -0.9177  1.1550 -0.8160
  637TIP3    H223403   3.255   4.118  17.009  0.0886  0.2566 -0.9420
  638TIP3   OH223404   6.394   3.626   0.447  0.1671  0.0332 -0.3532
  638TIP3    H123405   6.305   3.643   0.419  0.8000 -0.6485 -3.0301
  638TIP3    H223406   6.389   3.545   0.498 -0.6112 -0.5260 -1.3113
  639TIP3   OH223407   2.257   1.129  13.166 -0.2129 -0.0797  0.1249
  639TIP3    H123408   2.217   1.204  13.210  1.1296 -0.2118  1.6621
  639TIP3    H223409   2.335   1.165  13.124 -0.2315 -0.3993 -0.1920
  640TIP3   OH223410   2.142   4.592   2.149 -0.1763 -0.3112 -0.3430
  640TIP3    H123411   2.218   4.648   2.166 -0.0247 -0.8777  0.9908
  640TIP3    H223412   2.173   4.528   2.084 -0.0680  0.5402 -1.1501
  641TIP3   OH223413   4.515   0.204   0.869 -0.2755  0.0568  0.1603
  641TIP3    H123414   4.452   0.185   0.938 -1.6296 -1.3455 -1.3664
  641TIP3    H223415   4.462   0.233   0.795  0.9485 -0.1858 -0.8516
  642TIP3   OH223416   3.609   4.203  15.719 -0.0868  0.1128 -0.3488
  642TIP3    H123417   3.579   4.228  15.632 -0.8957 -0.6610 -0.3126
  642TIP3    H223418   3.668   4.273  15.746  0.5794  0.1188 -1.7229
  643TIP3   OH223419   5.150   3.945  12.280 -0.9518 -0.4702  0.5304
  643TIP3    H123420   5.232   3.895  12.282 -0.8618 -0.3361  0.2869
  643TIP3    H223421   5.133   3.959  12.187 -0.1008  1.3676  0.6057
  644TIP3   OH223422   1.485   2.469  10.432 -0.1137 -0.1960  0.0781
  644TIP3    H123423   1.511   2.423  10.352 -0.3478  0.4146 -0.3580
  644TIP3    H223424   1.429   2.407  10.477 -1.3217  0.0315 -1.0364
  645TIP3   OH223425   3.033   1.582   4.680  0.4078 -0.2580  0.2993
  645TIP3    H123426   3.042   1.657   4.622 -0.5376  0.1170  0.6164
  645TIP3    H223427   2.939   1.571   4.690  0.4979  0.6403  2.9441
  646TIP3   OH223428   4.084   0.615   5.586  0.6976 -0.7976 -0.0815
  646TIP3    H123429   4.052   0.703   5.567  0.7172 -1.0893 -1.5885
  646TIP3    H223430   4.004   0.563   5.595  0.5193 -0.1759  3.7423
  647TIP3   OH223431   1.300   3.760   1.048 -0.2664 -0.2376 -0.0499
  647TIP3    H123432   1.295   3.798   0.960 -0.3700  2.0320  0.8627
  647TIP3    H223433   1.394   3.757   1.067 -0.2998  0.7389  0.3239
  648TIP3   OH223434   5.606   0.268   4.962  0.0602 -0.2812 -0.6612
  648TIP3    H123435   5.586   0.361   4.953  1.9667  0.1794 -0.4557
  648TIP3    H223436   5.596   0.250   5.055  1.4426  0.1735 -0.4084
  649TIP3   OH223437   1.743   3.531   2.344 -0.3972  0.8214  0.0256
  649TIP3    H123438   1.812   3.554   2.407 -0.8035  0.6256  0.5464
  649TIP3    H223439   1.692   3.463   2.389 -0.8633  0.8911 -0.4029
  650TIP3   OH223440   1.372   0.483  13.501 -0.1148  0.2669 -0.0629
  650TIP3    H123441   1.308   0.481  13.429 -0.8941  0.8152  0.6040
  650TIP3    H223442   1.455   0.500  13.457 -0.4390 -0.2725 -0.9312
  651TIP3   OH223443   2.164   2.269  13.634  0.1735 -0.0109  0.4423
  651TIP3    H123444   2.121   2.354  13.620 -1.5761 -0.6540  1.5330
  651TIP3    H223445   2.195   2.272  13.724  0.0140 -0.5531  0.5186
  652TIP3   OH223446   2.120   0.517   1.567 -0.2164 -1.0752  0.6964
  652TIP3    H123447   2.119   0.589   1.631 -0.0775  0.2826 -0.7867
  652TIP3    H223448   2.064   0.548   1.496  2.3567 -1.0374 -1.4439
  653TIP3   OH223449   4.229   5.808   0.732 -0.3953  0.5100 -0.6252
  653TIP3    H123450   4.241   5.716   0.756 -0.8318  0.4906 -0.4592
  653TIP3    H223451   4.313   5.850   0.750 -0.8554  0.6214  1.4971
  654TIP3   OH223452   0.813   4.330   4.805 -0.7328  0.1780 -0.0012
  654TIP3    H123453   0.736   4.279   4.780  0.3147 -1.3414 -0.2679
  654TIP3    H223454   0.853   4.356   4.722  0.5198 -1.4060  0.0592
  655TIP3   OH223455   6.374   6.768   2.145 -0.9373 -0.3962  0.5813
  655TIP3    H123456   6.380   6.709   2.070 -0.5236 -2.1819  1.9146
  655TIP3    H223457   6.403   6.853   2.113  1.5185 -1.6369 -0.7546
  656TIP3   OH223458   1.686   6.682  14.866 -0.5535 -0.3986  0.0115
  656TIP3    H123459   1.700   6.619  14.795 -0.5764 -2.2928  1.5908
  656TIP3    H223460   1.751   6.658  14.932 -0.2812  1.5630  0.5018
  657TIP3   OH223461   4.696   3.659  11.929  0.1212 -0.4773 -0.0958
  657TIP3    H123462   4.707   3.635  12.022  1.3096  1.0871  0.2053
  657TIP3    H223463   4.785   3.661  11.894 -0.3025 -0.8603 -1.2451
  658TIP3   OH223464   5.561   2.589  12.253  0.1303  0.3110 -0.1916
  658TIP3    H123465   5.509   2.642  12.192  0.2631 -1.4973 -1.9554
  658TIP3    H223466   5.507   2.512  12.270  0.4139  0.4420  1.4618
  659TIP3   OH223467   2.250   3.612  13.359  0.4220 -0.1466 -0.0081
  659TIP3    H123468   2.286   3.628  13.272 -1.3243  0.9619 -0.5814
  659TIP3    H223469   2.297   3.674  13.415 -0.8295  1.6165 -0.8213
  660TIP3   OH223470   6.254   5.504   2.830 -0.4897  0.6160 -0.6865
  660TIP3    H123471   6.277   5.589   2.793 -0.0034  0.5739 -0.4898
  660TIP3    H223472   6.298   5.440   2.775  0.5796  0.5717  0.1890
  661TIP3   OH223473   2.182   4.711   5.748  0.0131  0.4897 -0.3791
  661TIP3    H123474   2.123   4.708   5.824  1.3400  1.3752  0.7240
  661TIP3    H223475   2.124   4.697   5.673 -1.2083 -1.4491  0.8237
  662TIP3   OH223476   1.317   2.504  10.737  0.2331  0.0769  0.6098
  662TIP3    H123477   1.286   2.452  10.811 -0.1363 -0.0855  0.3494
  662TIP3    H223478   1.331   2.440  10.667  1.5073  0.1073  0.8257
  663TIP3   OH223479   2.959   1.397   1.454  0.1227  0.3728  0.1234
  663TIP3    H123480   2.973   1.488   1.427 -0.1728  0.3381 -0.1443
  663TIP3    H223481   2.886   1.400   1.515 -0.0825  0.2755 -0.1169
  664TIP3   OH223482   3.481   4.206  13.280 -0.0806  0.6810 -0.1889
  664TIP3    H123483   3.405   4.151  13.259  0.1514  0.8299 -1.5141
  664TIP3    H223484   3.529   4.213  13.197 -0.4048  3.3812 -0.2347
  665TIP3   OH223485   3.255   1.372  15.686  0.4071 -0.2021 -0.1110
  665TIP3    H123486   3.176   1.319  15.677  1.0045 -1.5615  2.0399
  665TIP3    H223487   3.224   1.455  15.722 -0.0599 -0.7363  0.7393
  666TIP3   OH223488   0.056   0.035   4.956 -0.9293 -0.4316  0.3171
  666TIP3    H123489   0.006  -0.046   4.963  0.6508 -1.4856 -0.2281
  666TIP3    H223490   0.013   0.084   4.886 -2.8088 -0.0883  1.6429
  667TIP3   OH223491   0.275   0.603  13.042 -0.7419  0.4270  0.1457
  667TIP3    H123492   0.316   0.627  13.125 -2.7741 -0.8631  1.6202
  667TIP3    H223493   0.224   0.680  13.016 -0.8613  0.5123  0.6280
  668TIP3   OH223494   0.592   4.831  16.344 -0.0655 -0.1685  0.3625
  668TIP3    H123495   0.586   4.843  16.439  1.0718  0.2456  0.3965
  668TIP3    H223496   0.502   4.832  16.314 -0.4674 -0.7095  1.4908
  669TIP3   OH223497   5.011   4.689   3.809 -0.2757 -0.0406 -0.2740
  669TIP3    H123498   4.959   4.664   3.885 -0.4450 -0.1483 -0.4230
  669TIP3    H223499   5.094   4.643   3.820 -0.1202  0.3187  0.0878
  670TIP3   OH223500   4.073   6.235  12.353 -0.4667  0.4161 -0.2990
  670TIP3    H123501   4.125   6.250  12.274 -2.9115 -1.7560 -2.4641
  670TIP3    H223502   4.128   6.177  12.406  0.1427 -0.3206 -1.6692
  671TIP3   OH223503   5.323   0.448  12.789  0.4449  0.2787 -0.1840
  671TIP3    H123504   5.331   0.429  12.883  1.7327 -0.8907 -0.4889
  671TIP3    H223505   5.335   0.362  12.747  1.3720  1.0121 -1.4725
  672TIP3   OH223506   1.809   4.605   0.595 -0.0713  0.0775  0.4317
  672TIP3    H123507   1.786   4.697   0.581 -1.8055 -0.3569  0.2135
  672TIP3    H223508   1.827   4.599   0.688  1.1183  0.8405  0.2734
  673TIP3   OH223509   2.985   2.671  11.132  0.0269  0.1256  0.0402
  673TIP3    H123510   2.983   2.594  11.074 -2.4959 -0.7661  1.1559
  673TIP3    H223511   2.999   2.635  11.219 -0.7977  0.9299  0.5266
  674TIP3   OH223512   0.021   0.550   5.051  1.3202  0.3310  0.0923
  674TIP3    H123513   0.116   0.557   5.065  0.9065  0.8328  3.3956
  674TIP3    H223514  -0.016   0.614   5.112 -1.2225 -1.1849  0.2467
  675TIP3   OH223515   5.680   0.864   4.992 -0.5847  0.1834  0.1438
  675TIP3    H123516   5.734   0.942   5.007  0.8614 -0.7993  0.2444
  675TIP3    H223517   5.594   0.899   4.969  0.1738  1.8150 -0.3763
  676TIP3   OH223518   0.494   5.298  14.327 -0.7851 -0.2734 -0.0235
  676TIP3    H123519   0.438   5.319  14.253  1.8234  1.1485 -1.7426
  676TIP3    H223520   0.497   5.379  14.379  0.3235 -0.0010 -0.4656
  677TIP3   OH223521   6.801   6.668  14.721 -0.0931 -0.3032 -0.0170
  677TIP3    H123522   6.814   6.739  14.785 -0.5323 -0.1702 -0.0687
  677TIP3    H223523   6.885   6.623  14.718  0.9046  1.5210 -1.5775
  678TIP3   OH223524   4.158   6.174   5.422  0.8662 -0.2295  0.0688
  678TIP3    H123525   4.125   6.256   5.385 -3.3909 -1.3449  0.9323
  678TIP3    H223526   4.162   6.114   5.348  3.6714  0.5323 -0.5019
  679TIP3   OH223527   4.354   4.467   4.982 -0.5532  0.2282  0.4620
  679TIP3    H123528   4.330   4.384   5.024 -1.6099  0.6219  0.6699
  679TIP3    H223529   4.294   4.474   4.908  0.1440  0.3806 -0.0974
  680TIP3   OH223530   0.765   6.472  13.876  0.3153  0.1821  0.3760
  680TIP3    H123531   0.722   6.481  13.962  1.1456 -1.6204  1.0290
  680TIP3    H223532   0.849   6.515  13.887  0.6807 -0.5826  0.7048
  681TIP3   OH223533   1.260   1.333  15.457  0.5600  0.2612  0.5372
  681TIP3    H123534   1.345   1.343  15.415 -0.0914 -1.7963 -1.5141
  681TIP3    H223535   1.274   1.268  15.525  0.9438  1.1465  1.3168
  682TIP3   OH223536   4.266   2.214   1.477 -0.5692  0.1178  0.3802
  682TIP3    H123537   4.267   2.119   1.488  0.8406 -0.0696 -0.9719
  682TIP3    H223538   4.175   2.235   1.457 -0.7967 -1.0194  0.1765
  683TIP3   OH223539   1.194   0.262  11.952 -1.0507  0.0914 -0.6345
  683TIP3    H123540   1.139   0.218  11.887  0.5821 -0.6652 -1.5670
  683TIP3    H223541   1.283   0.230  11.934 -0.6272 -0.8167  2.5323
  684TIP3   OH223542   4.639   5.281  12.366  0.3176  0.4588  0.5629
  684TIP3    H123543   4.661   5.221  12.294 -2.5365 -0.5643  0.4395
  684TIP3    H223544   4.562   5.243  12.407 -0.0358  2.7066  2.1945
  685TIP3   OH223545   2.242   1.876  12.827  0.1440  0.4761  0.4278
  685TIP3    H123546   2.184   1.939  12.872 -1.2422  0.6441 -1.4512
  685TIP3    H223547   2.219   1.792  12.865 -1.2780  0.5670 -0.1286
  686TIP3   OH223548   6.350   1.454  12.591  0.1186  0.1839 -0.5987
  686TIP3    H123549   6.301   1.479  12.669 -0.9030 -0.8798 -0.8721
  686TIP3    H223550   6.344   1.530  12.533 -0.5892  0.3324 -0.3342
  687TIP3   OH223551   4.125   3.872  13.616 -0.0009  0.7558 -0.1192
  687TIP3    H123552   4.075   3.807  13.567  1.0952  0.6504 -1.1436
  687TIP3    H223553   4.168   3.925  13.548  2.7102 -0.2762  0.6585
  688TIP3   OH223554   3.599   5.392  15.727 -0.2645  0.2767  0.4385
  688TIP3    H123555   3.506   5.411  15.730 -0.2904  0.1926  0.1999
  688TIP3    H223556   3.639   5.472  15.693 -0.3517 -0.0087 -0.3641
  689TIP3   OH223557   5.425   0.845  12.706 -0.3696  0.7589 -0.4762
  689TIP3    H123558   5.495   0.783  12.684 -0.9807  0.4846 -1.7347
  689TIP3    H223559   5.386   0.809  12.786 -0.4252 -0.2468 -0.9417
  690TIP3   OH223560   6.358   2.103  13.826  0.1528  0.2581  0.3006
  690TIP3    H123561   6.441   2.130  13.865  0.0027 -0.5707  1.2225
  690TIP3    H223562   6.304   2.076  13.900 -0.0924 -1.5122 -0.4801
  691TIP3   OH223563   4.188   4.941   1.630  0.4590 -0.5882  0.1348
  691TIP3    H123564   4.166   4.858   1.589 -0.1366 -0.8402  0.9297
  691TIP3    H223565   4.104   4.985   1.642  0.6382 -0.4256  0.8685
  692TIP3   OH223566   0.343   6.110  12.155 -0.5305 -0.3443 -0.0414
  692TIP3    H123567   0.330   6.205  12.156 -0.3724 -0.2411 -2.6883
  692TIP3    H223568   0.269   6.076  12.105  1.7290 -1.0833 -3.1889
  693TIP3   OH223569   0.959   3.288  16.183  0.1018  0.1102  0.4498
  693TIP3    H123570   1.000   3.214  16.138  0.2835 -0.4621  1.5278
  693TIP3    H223571   0.993   3.284  16.272  1.4639  2.5264  0.1196
  694TIP3   OH223572   4.590   4.390   4.204 -1.1206  0.0181  0.7007
  694TIP3    H123573   4.519   4.332   4.232 -0.9837 -0.3813  0.2385
  694TIP3    H223574   4.669   4.338   4.220 -1.0951 -0.8094 -1.7457
  695TIP3   OH223575   1.595   5.944   0.644  0.4533 -0.1185 -0.4112
  695TIP3    H123576   1.539   5.868   0.665  1.5909 -0.9877 -0.4124
  695TIP3    H223577   1.567   5.970   0.557 -0.4169 -0.1034 -0.1399
  696TIP3   OH223578   2.152   5.099   0.038 -0.9598  0.4702  0.0980
  696TIP3    H123579   2.204   5.041  -0.018 -1.5475 -0.4775  0.5173
  696TIP3    H223580   2.090   5.142  -0.022  0.3310  1.6835 -0.4207
  697TIP3   OH223581   5.202   1.318   5.706  0.0999 -0.0908 -0.2131
  697TIP3    H123582   5.223   1.351   5.619  1.0111  1.7945  0.6564
  697TIP3    H223583   5.267   1.359   5.764  0.0083 -1.8902  1.2739
  698TIP3   OH223584   0.560   0.098  12.721  0.0473  0.4340 -0.1936
  698TIP3    H123585   0.483   0.153  12.707  0.2053  1.3300  2.0506
  698TIP3    H223586   0.526   0.009  12.723 -0.9239  0.8049  0.5224
  699TIP3   OH223587   0.870   1.870  12.278  0.5304  0.0150  0.2787
  699TIP3    H123588   0.891   1.798  12.337 -0.1937 -0.4087  0.0320
  699TIP3    H223589   0.954   1.914  12.262  1.0032 -0.8737  0.2914
  700TIP3   OH223590   3.464   3.570   4.357  0.0572 -0.1269 -0.5305
  700TIP3    H123591   3.456   3.639   4.422 -1.1692  0.7001 -1.5224
  700TIP3    H223592   3.549   3.586   4.315 -0.7507  1.5968 -1.6141
  701TIP3   OH223593   6.551   0.299   1.263 -0.0896  0.0026 -0.1245
  701TIP3    H123594   6.593   0.385   1.265  1.1054 -0.5042 -1.6438
  701TIP3    H223595   6.466   0.314   1.221 -0.2168  0.5392  0.3101
  702TIP3   OH223596   3.103   5.493  11.566 -0.5941 -0.4333  0.0172
  702TIP3    H123597   3.143   5.516  11.482  0.1552 -1.6976  0.0134
  702TIP3    H223598   3.074   5.402  11.554 -2.9329  0.2257  0.2297
  703TIP3   OH223599   3.519   2.210  12.825  0.4827  0.0441 -0.5591
  703TIP3    H123600   3.567   2.196  12.743 -0.2791 -3.2331 -0.5807
  703TIP3    H223601   3.429   2.225  12.798  0.4247  0.1011 -0.3398
  704TIP3   OH223602   5.549   0.612  16.375  0.9085 -0.4782  0.2419
  704TIP3    H123603   5.542   0.640  16.284 -3.8507  2.2430  1.1197
  704TIP3    H223604   5.485   0.542  16.384 -0.6916  1.0708  1.8967
  705TIP3   OH223605   4.092   5.612  12.864  0.1158  0.3071  0.2005
  705TIP3    H123606   4.140   5.639  12.786 -1.2015 -0.8628 -1.0843
  705TIP3    H223607   4.043   5.690  12.891  0.4523  0.6749 -0.2452
  706TIP3   OH223608   1.535   5.941   0.048  0.0135  0.4858  0.4501
  706TIP3    H123609   1.466   5.978  -0.006 -0.8838 -2.2100 -0.3823
  706TIP3    H223610   1.610   5.933  -0.010 -0.0317  0.2870  0.4198
  707TIP3   OH223611   5.304   4.565   0.300 -0.4138  0.0770 -0.4564
  707TIP3    H123612   5.223   4.559   0.249 -1.6286  1.0850  1.2642
  707TIP3    H223613   5.300   4.651   0.342  1.6119  0.1838 -0.3973
  708TIP3   OH223614   6.424   6.091   1.440  0.1837  0.6727 -0.6742
  708TIP3    H123615   6.372   6.033   1.385  1.3393 -0.6468 -0.4270
  708TIP3    H223616   6.454   6.035   1.512  1.9223  1.3868 -0.8119
  709TIP3   OH223617   1.801   3.557  14.629 -0.4720 -0.1738  0.3511
  709TIP3    H123618   1.837   3.634  14.673  1.8553 -0.7092 -0.4769
  709TIP3    H223619   1.761   3.505  14.699 -0.9873  1.1782  1.0857
  710TIP3   OH223620   3.631   5.279   5.408  0.0806  0.2754  0.1490
  710TIP3    H123621   3.696   5.229   5.359  0.1824 -0.2223  0.7768
  710TIP3    H223622   3.652   5.262   5.500 -1.6304 -0.8034  0.3767
  711TIP3   OH223623   5.407   0.790  13.759  0.1842  0.2678 -0.0084
  711TIP3    H123624   5.486   0.835  13.730  0.3398 -0.7818 -1.3240
  711TIP3    H223625   5.437   0.732  13.829  0.7316 -0.5602 -0.8952
  712TIP3   OH223626   4.294   0.093   2.759 -0.5039 -0.1968 -0.6553
  712TIP3    H123627   4.232   0.026   2.729  1.2170 -1.6565 -1.1024
  712TIP3    H223628   4.263   0.174   2.719 -3.1222 -0.4853  0.5370
  713TIP3   OH223629   1.254   1.446   2.388 -0.0875 -0.2476 -0.4066
  713TIP3    H123630   1.329   1.430   2.445  0.3358  0.5892 -0.7066
  713TIP3    H223631   1.269   1.533   2.352 -0.9950 -0.2371 -0.8044
  714TIP3   OH223632   4.505   5.948  15.396 -0.2028 -0.3439 -0.0348
  714TIP3    H123633   4.598   5.947  15.375 -0.4005 -1.9951 -0.9265
  714TIP3    H223634   4.484   5.859  15.422 -1.4233  0.1360  0.7456
  715TIP3   OH223635   0.567   1.305  12.069 -0.6476  0.3037  0.3497
  715TIP3    H123636   0.487   1.303  12.121 -0.4213  1.1959  0.7631
  715TIP3    H223637   0.537   1.310  11.978 -1.0531 -2.2332  0.2837
  716TIP3   OH223638   2.545   0.897   1.307 -0.5128 -0.4669 -0.1917
  716TIP3    H123639   2.478   0.838   1.272 -1.2279 -0.5218  1.2000
  716TIP3    H223640   2.583   0.938   1.230 -1.1355 -1.5312 -1.1006
  717TIP3   OH223641   1.126   1.568   1.457  0.3172  0.0384 -0.3891
  717TIP3    H123642   1.134   1.587   1.550 -0.0565 -0.5462 -0.2345
  717TIP3    H223643   1.151   1.477   1.448 -1.2451 -0.4052 -0.6004
  718TIP3   OH223644   6.758   4.945  13.359  0.6403 -0.0990  0.9600
  718TIP3    H123645   6.751   5.006  13.432  0.5014  1.7567 -0.5369
  718TIP3    H223646   6.851   4.945  13.337  0.5466  0.0585  0.5610
  719TIP3   OH223647   4.410   0.643  10.440 -0.2106  0.1174  0.0271
  719TIP3    H123648   4.447   0.732  10.440 -0.9600  0.4389 -0.2414
  719TIP3    H223649   4.469   0.592  10.496  0.4098  0.7091 -0.0805
  720TIP3   OH223650   5.933   2.529  14.394 -0.1501  0.1410  0.2234
  720TIP3    H123651   5.963   2.577  14.316 -0.3085  0.7587  0.5321
  720TIP3    H223652   5.938   2.437  14.369 -2.4104  0.3762 -1.3513
  721TIP3   OH223653   2.230   2.510   4.475  0.0359  0.2882 -0.3608
  721TIP3    H123654   2.302   2.571   4.458 -0.6064  1.2282  0.2335
  721TIP3    H223655   2.152   2.555   4.441 -0.4306 -0.2467 -0.0114
  722TIP3   OH223656   3.296   3.701  14.655  0.3505 -0.0221  0.5598
  722TIP3    H123657   3.378   3.744  14.628  1.3534 -1.3633  1.3801
  722TIP3    H223658   3.309   3.609  14.632 -0.5447 -0.4138  1.5728
  723TIP3   OH223659   4.318   0.439  12.417 -0.6479 -0.3085 -0.4964
  723TIP3    H123660   4.280   0.429  12.329  0.0058  0.5917 -0.8976
  723TIP3    H223661   4.412   0.429  12.404 -0.5586 -0.3422  0.1327
  724TIP3   OH223662   0.775   3.213   5.866 -0.4126 -0.0981 -0.1036
  724TIP3    H123663   0.834   3.288   5.879 -0.1523 -0.3968  0.4416
  724TIP3    H223664   0.725   3.208   5.947 -0.6675 -0.3054 -0.2754
  725TIP3   OH223665   0.157   1.015   1.741  0.0797 -0.2756 -0.0250
  725TIP3    H123666   0.119   0.976   1.821 -1.1611 -0.9276 -0.8998
  725TIP3    H223667   0.228   1.070   1.773 -1.0640  0.3194  1.6289
  726TIP3   OH223668   0.098   5.008   2.490  0.5381  0.0380 -0.2552
  726TIP3    H123669   0.155   4.973   2.558 -0.2107 -0.4164  0.1469
  726TIP3    H223670   0.037   4.936   2.470  2.0942 -0.6649 -2.9729
  727TIP3   OH223671   3.784   1.511   1.756 -0.2789  0.6860  0.6663
  727TIP3    H123672   3.822   1.514   1.844 -0.3924  1.2773  0.6969
  727TIP3    H223673   3.704   1.562   1.762 -1.7596 -1.5122  0.9057
  728TIP3   OH223674   4.456   0.012  11.961 -0.5939  0.1507 -0.1581
  728TIP3    H123675   4.437   0.105  11.971 -0.1791  0.2279 -0.0824
  728TIP3    H223676   4.416  -0.029  12.037 -0.5238  0.3024 -0.0405
  729TIP3   OH223677   3.489   1.090   5.080 -0.1507  0.1153  0.2514
  729TIP3    H123678   3.568   1.141   5.097 -0.3105  0.5684 -0.3116
  729TIP3    H223679   3.459   1.062   5.166  1.8371 -1.9803  0.3312
  730TIP3   OH223680   2.444   3.968  14.233 -0.1089  0.4389  0.4806
  730TIP3    H123681   2.503   4.043  14.227  1.1200 -0.6100 -2.4980
  730TIP3    H223682   2.419   3.951  14.142 -0.4411 -2.6483  1.0698
  731TIP3   OH223683   0.850   1.010  12.089  0.3669  0.0352  0.3674
  731TIP3    H123684   0.930   1.057  12.064 -0.5770  0.8920 -1.2296
  731TIP3    H223685   0.856   0.927  12.042 -0.1675  0.5663 -0.6940
  732TIP3   OH223686   2.367   2.705   3.172 -0.0801 -0.4653 -0.1004
  732TIP3    H123687   2.387   2.612   3.186 -0.5105 -0.3188  1.7091
  732TIP3    H223688   2.301   2.725   3.239 -0.8432  0.8712 -1.2055
  733TIP3   OH223689   3.442   4.408   2.933  0.2846  0.3189  0.3323
  733TIP3    H123690   3.447   4.370   3.021  2.3195  0.4656  0.3288
  733TIP3    H223691   3.454   4.334   2.874 -2.0211  0.0692  0.0892
  734TIP3   OH223692   1.342   0.453   2.218 -0.3370 -0.3610 -0.3537
  734TIP3    H123693   1.289   0.452   2.139  0.3706  0.2776 -0.8547
  734TIP3    H223694   1.337   0.544   2.249  0.3534 -0.3187 -0.3415
  735TIP3   OH223695   3.972   2.247   2.122 -0.1292 -0.1339  0.0329
  735TIP3    H123696   4.047   2.235   2.063 -0.8137  0.9858 -1.0985
  735TIP3    H223697   4.012   2.253   2.209  1.1301  0.5803 -0.5606
  736TIP3   OH223698   6.485   5.844   3.144 -0.2907 -0.1040  0.3769
  736TIP3    H123699   6.442   5.766   3.109  2.3558 -1.2742 -0.5038
  736TIP3    H223700   6.456   5.915   3.087  1.3490 -1.4108 -2.2821
  737TIP3   OH223701   6.485   1.092  16.130 -0.0633  0.4069 -0.0151
  737TIP3    H123702   6.438   1.134  16.058 -0.7633 -1.2996 -0.6094
  737TIP3    H223703   6.532   1.163  16.173  0.2033  1.5026 -2.0159
  738TIP3   OH223704   6.357   2.909  15.543 -0.0660 -0.5959  0.0217
  738TIP3    H123705   6.380   2.870  15.458 -1.1432 -0.5943 -0.2899
  738TIP3    H223706   6.348   2.835  15.602  0.8734 -0.5854  0.1973
  739TIP3   OH223707   0.984   4.188   3.780  0.2535  0.2774  0.1918
  739TIP3    H123708   0.943   4.254   3.836 -0.8862 -1.3746  1.3973
  739TIP3    H223709   1.067   4.168   3.824  0.1837  0.2613  0.3166
  740TIP3   OH223710   4.714   0.720  14.827  0.4822 -0.1153  0.4924
  740TIP3    H123711   4.655   0.745  14.755  1.3218  0.9340  0.1490
  740TIP3    H223712   4.681   0.767  14.903  0.0320 -0.6578  0.6440
  741TIP3   OH223713   0.123   1.256  14.263 -0.3537  0.2456 -0.5895
  741TIP3    H123714   0.082   1.205  14.193  0.0241 -0.6647 -0.1600
  741TIP3    H223715   0.141   1.341  14.223  0.8628 -0.6059 -1.9458
  742TIP3   OH223716   4.486   1.114   5.066 -0.4032 -0.4064  0.3565
  742TIP3    H123717   4.405   1.164   5.056  0.1957  0.6457  0.7002
  742TIP3    H223718   4.556   1.177   5.051  0.3695 -1.1103  0.9102
  743TIP3   OH223719   6.648   0.803  15.487 -0.4118 -0.0977  0.2810
  743TIP3    H123720   6.603   0.754  15.556  1.8627 -2.0039  0.5346
  743TIP3    H223721   6.730   0.830  15.527  1.0022 -1.2912 -1.6137
  744TIP3   OH223722   0.314   2.075   1.742  0.3381  0.3376 -0.3043
  744TIP3    H123723   0.401   2.037   1.755  0.0925 -0.0516  0.2877
  744TIP3    H223724   0.329   2.150   1.684  0.9966 -0.0010 -0.5846
  745TIP3   OH223725   1.986   1.848   1.237  0.3630 -0.3341  0.2887
  745TIP3    H123726   2.076   1.817   1.236 -0.3535 -2.5688 -0.0315
  745TIP3    H223727   1.933   1.769   1.232 -1.6221  0.9599 -0.5409
  746TIP3   OH223728   0.636   6.812   2.427  0.2673 -0.3878 -0.7603
  746TIP3    H123729   0.589   6.762   2.493 -0.5785  1.6221  0.2428
  746TIP3    H223730   0.679   6.883   2.475  1.3520 -0.0798 -2.1138
  747TIP3   OH223731   4.893   5.662   1.326 -0.1630  0.3407  0.2169
  747TIP3    H123732   4.988   5.654   1.328 -0.1174  0.8674  1.9678
  747TIP3    H223733   4.861   5.577   1.357 -0.1907  0.6635  1.1204
  748TIP3   OH223734   4.062   5.834   5.524 -0.5123  0.0241 -0.5944
  748TIP3    H123735   4.088   5.878   5.443 -1.3114  0.4448 -0.6278
  748TIP3    H223736   3.969   5.856   5.534 -1.1747 -2.3051 -1.0476
  749TIP3   OH223737   6.629   3.321  11.032 -0.3195  0.1948 -0.0931
  749TIP3    H123738   6.681   3.401  11.043 -1.2360  0.6388  1.3457
  749TIP3    H223739   6.686   3.252  11.065  1.0581 -0.0348 -2.7073
  750TIP3   OH223740   3.168   6.403   0.201 -0.0776  0.1703  0.3939
  750TIP3    H123741   3.087   6.453   0.211 -1.3244 -1.3162 -1.6451
  750TIP3    H223742   3.237   6.469   0.196 -1.4185  1.5805 -0.0690
  751TIP3   OH223743   1.520   4.029   0.001 -0.0304  0.1244 -0.1560
  751TIP3    H123744   1.542   4.062   0.088 -1.4786 -1.0201  0.6982
  751TIP3    H223745   1.479   3.944   0.018  0.3753 -0.4743 -2.0237
  752TIP3   OH223746   2.034   1.796   0.100 -0.1437 -0.0231  0.7895
  752TIP3    H123747   1.939   1.792   0.109 -0.4051  0.5520 -1.2014
  752TIP3    H223748   2.053   1.889   0.092  0.4713 -0.1760  0.3690
  753TIP3   OH223749   4.616   3.739  10.996  0.1875  0.6077  0.0759
  753TIP3    H123750   4.588   3.676  10.930 -0.1555 -0.2002  0.9767
  753TIP3    H223751   4.686   3.695  11.044  0.3985  1.1698  0.2921
  754TIP3   OH223752   0.696   3.418  16.600  0.0954  0.3837  0.2470
  754TIP3    H123753   0.735   3.429  16.513  0.4535 -0.6145  0.2726
  754TIP3    H223754   0.608   3.383  16.583 -0.6092  2.0650  0.2166
  755TIP3   OH223755   1.624   3.623   0.590  0.0329  0.6898 -0.3295
  755TIP3    H123756   1.711   3.599   0.560  0.3099  1.1201  0.1208
  755TIP3    H223757   1.583   3.540   0.615  0.2041  0.4558 -0.8113
  756TIP3   OH223758   0.571   0.395   6.146  0.1433  0.2355 -0.5827
  756TIP3    H123759   0.648   0.407   6.201 -1.7471  0.3421  2.2338
  756TIP3    H223760   0.570   0.302   6.126  0.1411 -0.0810  0.7981
  757TIP3   OH223761   1.019   5.253  11.767 -0.2383  0.5099 -0.5008
  757TIP3    H123762   0.952   5.317  11.745 -0.4184 -0.0209 -1.5277
  757TIP3    H223763   1.079   5.300  11.826 -0.3550  1.6221 -1.2464
  758TIP3   OH223764   6.044   6.416  12.338  0.1721  0.2099  0.1287
  758TIP3    H123765   6.086   6.352  12.396  2.4476 -0.6854 -2.2981
  758TIP3    H223766   6.084   6.500  12.363 -0.7198  0.2780  1.4345
  759TIP3   OH223767   0.099   4.927   3.272 -0.2113  0.7876  0.2730
  759TIP3    H123768   0.053   4.878   3.340  0.8526 -0.1693  0.3187
  759TIP3    H223769   0.189   4.933   3.303  0.7186 -1.1774 -1.7988
  760TIP3   OH223770   4.933   2.732  15.690 -0.3033  0.2126 -0.2012
  760TIP3    H123771   4.883   2.653  15.666 -0.8728  0.3066  0.6159
  760TIP3    H223772   4.957   2.772  15.607 -0.4962 -0.5270 -0.6211
  761TIP3   OH223773   3.775   4.537  13.189 -0.1902  0.1528  0.1314
  761TIP3    H123774   3.865   4.569  13.197  0.1222 -1.0795  2.3986
  761TIP3    H223775   3.724   4.593  13.246 -0.7034  0.2368 -0.3960
  762TIP3   OH223776   0.573   6.713   4.246 -0.1505 -0.7661  0.0805
  762TIP3    H123777   0.524   6.659   4.308 -1.6592 -1.2212 -1.4246
  762TIP3    H223778   0.508   6.741   4.181  1.2256  0.2158 -0.9557
  763TIP3   OH223779   5.885   3.378  11.915 -0.3043 -0.6738  0.6963
  763TIP3    H123780   5.927   3.451  11.960 -0.1827  0.9034 -1.8102
  763TIP3    H223781   5.798   3.372  11.956  0.1631 -0.0297  1.8389
  764TIP3   OH223782   4.300   0.355   2.494  0.1778 -0.2181 -0.5645
  764TIP3    H123783   4.382   0.385   2.533  0.5729 -1.5420 -0.3264
  764TIP3    H223784   4.254   0.435   2.470  1.0652  0.5673  0.2769
  765TIP3   OH223785   3.916   3.222   0.228  0.1365  0.3471  0.1294
  765TIP3    H123786   3.910   3.127   0.227  1.8548  0.2079 -0.0554
  765TIP3    H223787   3.943   3.244   0.317 -1.7690  0.8225  0.6409
  766TIP3   OH223788   5.570   5.951   1.984  0.0030 -0.5263 -0.0748
  766TIP3    H123789   5.516   5.907   1.918 -0.2963  1.8776 -1.5422
  766TIP3    H223790   5.647   5.981   1.937  0.2489  0.4234  0.8871
  767TIP3   OH223791   3.759   2.841   1.115  0.6826 -0.1102 -0.3708
  767TIP3    H123792   3.815   2.903   1.163  0.2318  1.5086 -1.8430
  767TIP3    H223793   3.671   2.859   1.149  0.8230 -1.7591  1.0090
  768TIP3   OH223794   6.509   3.334  12.098 -0.3091  0.4240 -0.1219
  768TIP3    H123795   6.453   3.267  12.137 -0.3393  0.5195 -0.0009
  768TIP3    H223796   6.470   3.417  12.125 -0.9480  0.5062 -1.2353
  769TIP3   OH223797   6.501   2.532   3.466 -0.2593  0.0875  0.2210
  769TIP3    H123798   6.421   2.561   3.421  0.6335  0.0850 -1.4566
  769TIP3    H223799   6.542   2.613   3.496 -0.1508  0.2145 -0.2550
  770TIP3   OH223800   2.125   2.080   2.261 -0.1878 -0.2151 -0.6228
  770TIP3    H123801   2.164   2.153   2.309  0.5986 -1.3161  0.4847
  770TIP3    H223802   2.198   2.043   2.211 -0.2578 -1.0615 -0.1103
  771TIP3   OH223803   4.331   5.998   3.379  0.2272 -0.2653 -0.0589
  771TIP3    H123804   4.378   6.078   3.353 -1.4580  0.9673  0.4993
  771TIP3    H223805   4.345   5.938   3.307  0.5548  0.9637 -1.0623
  772TIP3   OH223806   5.811   2.244   2.763  0.3174 -0.3099 -0.1165
  772TIP3    H123807   5.753   2.223   2.690 -0.5744  1.6327 -0.0272
  772TIP3    H223808   5.872   2.308   2.727 -0.0072  0.5191  0.7559
  773TIP3   OH223809   1.586   5.451  13.480 -0.8954 -0.6877 -0.2662
  773TIP3    H123810   1.645   5.444  13.406 -0.9259  0.2194 -0.3799
  773TIP3    H223811   1.500   5.432  13.444 -1.1395  1.2641 -0.8197
  774TIP3   OH223812   0.310   3.182   4.060 -0.2119  1.3639 -0.2027
  774TIP3    H123813   0.278   3.262   4.103 -1.8946 -0.9341  3.2481
  774TIP3    H223814   0.359   3.136   4.128 -0.4061 -1.1302 -1.6490
  775TIP3   OH223815   5.714   2.329  11.559 -0.1096 -0.4664  0.2636
  775TIP3    H123816   5.690   2.270  11.488  0.5452 -0.6472  0.1826
  775TIP3    H223817   5.747   2.271  11.628 -3.2052 -0.5528  1.8188
  776TIP3   OH223818   5.649   3.061   4.769  0.2450  0.1182 -0.2979
  776TIP3    H123819   5.617   3.006   4.841  3.1876  0.6796  1.6118
  776TIP3    H223820   5.656   3.002   4.694 -1.3855 -0.8677  0.2617
  777TIP3   OH223821   4.136   0.264  16.418 -0.4371  0.4161  0.8180
  777TIP3    H123822   4.161   0.284  16.328 -1.0002  0.7551  0.7308
  777TIP3    H223823   4.076   0.334  16.442 -0.4623  0.2028  1.3791
  778TIP3   OH223824   4.623   6.239  12.622  0.7408 -0.1964 -0.0608
  778TIP3    H123825   4.581   6.304  12.677  1.4648  0.4604 -0.2569
  778TIP3    H223826   4.707   6.222  12.665  1.1809  0.0966 -0.7834
  779TIP3   OH223827   0.397   4.343  13.600 -0.1667  0.1350 -0.1009
  779TIP3    H123828   0.466   4.276  13.604 -0.5237 -0.2146  0.2419
  779TIP3    H223829   0.322   4.298  13.561 -0.8401 -0.0483  1.3535
  780TIP3   OH223830   2.455   6.749  15.558  0.0952  0.1362 -0.8190
  780TIP3    H123831   2.360   6.753  15.574  0.2929  0.6848  0.2626
  780TIP3    H223832   2.467   6.796  15.476 -0.4325  1.1517 -0.3303
  781TIP3   OH223833   4.099   5.381  11.302  0.1907 -0.0425 -0.0808
  781TIP3    H123834   4.105   5.289  11.276  0.2080  0.1740 -0.8650
  781TIP3    H223835   4.101   5.429  11.220 -1.1633  0.6013  0.2266
  782TIP3   OH223836   6.273   0.486  12.095  0.1290  0.2697  0.2074
  782TIP3    H123837   6.246   0.576  12.115 -1.1753  0.0337 -0.3967
  782TIP3    H223838   6.341   0.466  12.160 -1.7582  0.5923  2.4066
  783TIP3   OH223839   5.102   2.980   3.544  0.2951 -0.0536  0.2584
  783TIP3    H123840   5.154   2.919   3.597 -1.0849 -1.4252  0.1113
  783TIP3    H223841   5.111   2.948   3.455 -1.1348 -0.6047  0.2855
  784TIP3   OH223842   4.374   5.802  16.559 -0.0608  0.0878 -0.0395
  784TIP3    H123843   4.411   5.751  16.631 -0.4762 -0.1350  0.0188
  784TIP3    H223844   4.419   5.886  16.563  0.6506 -0.2755 -0.1479
  785TIP3   OH223845   4.002   2.918  13.874 -0.5381  0.3976  0.2479
  785TIP3    H123846   3.919   2.894  13.833  1.4086 -1.0053 -3.3995
  785TIP3    H223847   4.034   2.836  13.912 -0.2763  0.6043  0.4744
  786TIP3   OH223848   6.244   5.725   3.423  0.0114  0.0025  0.0782
  786TIP3    H123849   6.330   5.684   3.421  1.4047  2.6401 -2.6666
  786TIP3    H223850   6.233   5.756   3.513  2.7569  1.0525  0.1390
  787TIP3   OH223851   0.303   4.559  16.644 -0.5558  0.4496  0.3570
  787TIP3    H123852   0.384   4.589  16.604  0.0149  0.8925  1.7717
  787TIP3    H223853   0.234   4.608  16.599 -0.1436 -0.5486 -1.4399
  788TIP3   OH223854   6.752   1.413  16.956  0.1029  0.1690  0.1306
  788TIP3    H123855   6.775   1.331  16.999  1.3237  0.3689 -0.0916
  788TIP3    H223856   6.667   1.397  16.914  0.1402 -0.8371  0.4381
  789TIP3   OH223857   4.957   2.522  16.666  0.4324 -0.0633  0.1275
  789TIP3    H123858   4.955   2.566  16.750 -1.3181  1.8897 -0.8630
  789TIP3    H223859   5.012   2.578  16.611  0.0083 -0.3133 -0.5536
  790TIP3   OH223860   3.014   2.783   3.864  0.5583 -0.5289 -0.1623
  790TIP3    H123861   3.042   2.692   3.866  1.8304 -0.1644 -0.5192
  790TIP3    H223862   2.974   2.794   3.777  0.7906 -0.6290 -0.2801
  791TIP3   OH223863   5.649   1.385   4.889 -0.5474  0.0520 -0.0521
  791TIP3    H123864   5.709   1.311   4.894 -0.4866  0.1983  1.9181
  791TIP3    H223865   5.689   1.444   4.824  1.4885  0.1782  1.2325
  792TIP3   OH223866   4.562   3.852   3.491  0.4052 -0.3267 -0.0004
  792TIP3    H123867   4.616   3.804   3.429  0.8836  0.1451  0.0405
  792TIP3    H223868   4.481   3.870   3.443  0.4473 -0.6800 -0.2036
  793TIP3   OH223869   3.943   1.456  10.857  0.1238  0.2760 -0.1151
  793TIP3    H123870   4.020   1.440  10.911 -1.1036 -1.1176  1.3420
  793TIP3    H223871   3.940   1.381  10.797 -0.2792  0.1236  0.0889
  794TIP3   OH223872   2.032   4.000  13.591  0.2118  0.5725  0.3521
  794TIP3    H123873   1.988   3.937  13.533  0.4924  1.6325 -1.0661
  794TIP3    H223874   1.961   4.037  13.644 -0.1319 -0.0540  0.3317
  795TIP3   OH223875   0.298   3.993   0.298 -0.3407 -0.1227 -0.1664
  795TIP3    H123876   0.337   4.081   0.296  0.9587 -0.6853 -2.1556
  795TIP3    H223877   0.216   4.004   0.346  0.2620  1.9749  0.4723
  796TIP3   OH223878   1.106   6.348  11.126 -0.5825 -0.1097  0.4645
  796TIP3    H123879   1.017   6.360  11.094  0.5344 -1.2704 -3.5351
  796TIP3    H223880   1.162   6.365  11.050  2.6593  0.1704  2.6920
  797TIP3   OH223881   4.330   4.261  12.784  0.2197  0.2059  0.2381
  797TIP3    H123882   4.299   4.250  12.874 -0.2455  1.5791  0.2608
  797TIP3    H223883   4.423   4.282  12.793 -0.3765  3.0716  0.6124
  798TIP3   OH223884   5.345   0.675  15.473 -0.5137 -0.0954 -0.0065
  798TIP3    H123885   5.301   0.652  15.392 -0.0160 -0.8910 -0.0612
  798TIP3    H223886   5.376   0.592  15.508  0.6768  0.4032  0.1840
  799TIP3   OH223887   5.159   2.769   2.211 -0.4639  0.1242 -0.3643
  799TIP3    H123888   5.234   2.828   2.220  1.3110 -2.0628  0.3283
  799TIP3    H223889   5.091   2.808   2.265  0.7191  1.3876  0.2862
  800TIP3   OH223890   3.506   3.683  17.068  0.1338 -0.5463 -0.4272
  800TIP3    H123891   3.497   3.773  17.037 -0.6177  0.2345  1.8929
  800TIP3    H223892   3.582   3.649  17.021  0.0878  1.0758 -1.7795
  801TIP3   OH223893   3.650   4.845   1.143 -0.4687  0.5583 -0.1415
  801TIP3    H123894   3.682   4.776   1.202 -1.5099  0.6287  0.5205
  801TIP3    H223895   3.609   4.797   1.071 -0.5331  0.4798 -0.0538
  802TIP3   OH223896   4.480   3.244  13.696 -0.8437  0.0918  0.2966
  802TIP3    H123897   4.507   3.334  13.710 -1.4042  0.3627 -0.3165
  802TIP3    H223898   4.452   3.213  13.782 -1.1450  0.6686  0.4066
  803TIP3   OH223899   6.089   5.763   4.041  0.3690  0.1311  0.4065
  803TIP3    H123900   6.180   5.778   4.016  0.2254  0.9450  0.3658
  803TIP3    H223901   6.095   5.708   4.119  0.9145  0.8277  0.8664
  804TIP3   OH223902   5.145   0.908   2.776  0.0924  0.5963  1.0975
  804TIP3    H123903   5.208   0.885   2.708  0.2751 -0.5685  1.6453
  804TIP3    H223904   5.126   0.826   2.821 -3.9481  0.2837 -0.7712
  805TIP3   OH223905   5.539   6.821   3.032 -0.2640  0.1899  0.3730
  805TIP3    H123906   5.615   6.866   3.069  0.5458 -0.7191 -0.1539
  805TIP3    H223907   5.575   6.743   2.990 -1.4617 -0.1244 -0.1098
  806TIP3   OH223908   2.469   4.629  14.936 -0.4237  0.2833 -0.0612
  806TIP3    H123909   2.403   4.595  14.995  0.2866  2.0021  1.8630
  806TIP3    H223910   2.499   4.710  14.978 -0.0579  1.7717 -2.9276
  807TIP3   OH223911   4.485   4.743  16.800 -0.1172  0.4082  0.4296
  807TIP3    H123912   4.539   4.817  16.827  0.5587  0.1458 -0.1503
  807TIP3    H223913   4.419   4.781  16.742  0.2845  0.5496  0.0579
  808TIP3   OH223914   1.647   5.663   5.040 -0.0524 -0.0529  0.2351
  808TIP3    H123915   1.631   5.657   4.946 -2.4321  1.3091  0.4696
  808TIP3    H223916   1.591   5.735   5.069 -0.0349 -0.9975  2.8322
  809TIP3   OH223917   5.160   4.032  10.971 -0.5972 -0.6742 -0.6686
  809TIP3    H123918   5.233   4.081  10.934 -0.3039  0.1982  0.9781
  809TIP3    H223919   5.105   4.098  11.012 -1.0240 -1.5493  0.2283
  810TIP3   OH223920   1.818   2.419  12.821 -0.2101  0.1777  0.0095
  810TIP3    H123921   1.791   2.407  12.912 -0.1460  0.9428  0.1424
  810TIP3    H223922   1.747   2.469  12.782 -0.2941 -0.2551 -0.3988
  811TIP3   OH223923   5.489   3.856  16.629 -0.5064 -0.2702  0.1965
  811TIP3    H123924   5.460   3.780  16.578 -2.5624 -0.5372  1.6557
  811TIP3    H223925   5.475   3.831  16.720  0.5211  1.2028  0.8022
  812TIP3   OH223926   4.411   2.964  16.635  0.6807 -0.0654 -0.3777
  812TIP3    H123927   4.406   3.046  16.585  0.9713  1.2304  1.5703
  812TIP3    H223928   4.496   2.969  16.679  0.2806 -0.9434  0.5234
  813TIP3   OH223929   3.421   6.456   3.373  0.1047 -0.2523 -0.0594
  813TIP3    H123930   3.451   6.452   3.283 -2.5880  1.1833 -1.1259
  813TIP3    H223931   3.479   6.520   3.415  0.5694  0.0209 -1.0987
  814TIP3   OH223932   4.427   5.634   2.538 -0.0685 -0.1076 -0.3158
  814TIP3    H123933   4.495   5.701   2.535 -0.2428  0.0880  0.0124
  814TIP3    H223934   4.475   5.552   2.547  0.1817 -0.1312 -1.7318
  815TIP3   OH223935   3.213   0.439   1.178 -0.7589 -0.2738  0.3719
  815TIP3    H123936   3.122   0.454   1.206 -0.4528  1.9762  0.4131
  815TIP3    H223937   3.228   0.504   1.110  1.3515  0.7251  1.6691
  816TIP3   OH223938   6.340   5.681  17.137 -0.5081  0.1108  0.2466
  816TIP3    H123939   6.337   5.590  17.106  1.0030 -0.3492  1.3288
  816TIP3    H223940   6.419   5.718  17.096 -1.2448  1.0240 -0.3781
  817TIP3   OH223941   3.061   5.608  16.780  0.0218 -0.2485 -0.1513
  817TIP3    H123942   3.109   5.586  16.701  1.4297 -0.2827  0.6848
  817TIP3    H223943   2.994   5.670  16.751  0.4111 -0.3879 -1.3905
  818TIP3   OH223944   1.154   3.502   1.176  0.8895  0.0548 -0.5307
  818TIP3    H123945   1.195   3.587   1.156 -2.2925  1.8889  0.0099
  818TIP3    H223946   1.187   3.479   1.262  1.5081  0.9405 -0.5205
  819TIP3   OH223947   5.726   4.810  14.423 -0.1937  0.6124 -0.1865
  819TIP3    H123948   5.727   4.764  14.507  1.2283 -1.2256 -1.1476
  819TIP3    H223949   5.704   4.900  14.446 -1.5459 -0.1884  1.9435
  820TIP3   OH223950   6.288   3.476  13.984  0.0610 -0.4856  0.0347
  820TIP3    H123951   6.309   3.453  13.894  4.3189  1.1502  0.3977
  820TIP3    H223952   6.251   3.564  13.978  0.8522 -0.1554 -0.1174
  821TIP3   OH223953   5.501   6.578   0.385  0.6219 -1.0293  0.3336
  821TIP3    H123954   5.574   6.520   0.364  0.7511 -0.2698 -1.4838
  821TIP3    H223955   5.519   6.608   0.474  2.6280 -0.7208 -0.1288
  822TIP3   OH223956   5.325   0.052   3.609  0.0367  0.8042 -0.2224
  822TIP3    H123957   5.344   0.146   3.606  0.7690  0.7131  1.0225
  822TIP3    H223958   5.402   0.013   3.649 -0.6130 -0.2312  0.0460
  823TIP3   OH223959   6.834   0.283   1.381  0.5377 -0.2068 -0.2314
  823TIP3    H123960   6.755   0.258   1.333  0.1143 -0.7218  0.7090
  823TIP3    H223961   6.883   0.337   1.319  0.5119 -1.6867 -1.6334
  824TIP3   OH223962   5.581   1.913   4.117  0.1936  0.1276 -0.2823
  824TIP3    H123963   5.612   1.980   4.177  0.7144 -0.5916  0.2719
  824TIP3    H223964   5.605   1.944   4.030 -0.1850  0.9743 -0.0923
  825TIP3   OH223965   6.164   2.552   0.449  0.0045 -0.1609 -0.3027
  825TIP3    H123966   6.226   2.479   0.448  0.8185  0.5128  0.0103
  825TIP3    H223967   6.200   2.615   0.388 -1.6574 -0.7578 -1.9866
  826TIP3   OH223968   1.490   1.675  14.875  0.8442 -0.1321  0.0901
  826TIP3    H123969   1.507   1.601  14.934 -0.7653 -1.7462 -1.3479
  826TIP3    H223970   1.540   1.656  14.796 -0.7750 -0.5514 -0.8858
  827TIP3   OH223971   2.880   5.804  16.702  0.4035  0.0003  0.1573
  827TIP3    H123972   2.921   5.889  16.691  1.6592 -0.1875  2.7114
  827TIP3    H223973   2.811   5.818  16.767  1.4041 -1.1086  1.5148
  828TIP3   OH223974   2.118   4.558   4.343  0.3902  0.5302  0.6827
  828TIP3    H123975   2.122   4.572   4.438 -2.0506  2.3835  0.6230
  828TIP3    H223976   2.046   4.497   4.330  1.4989 -0.6783  0.0557
  829TIP3   OH223977   6.715   2.531   5.880  0.1008 -0.1231  0.3837
  829TIP3    H123978   6.742   2.622   5.892  0.2056 -0.2661  1.2965
  829TIP3    H223979   6.795   2.480   5.889 -0.1503 -0.3975  1.1795
  830TIP3   OH223980   4.964   5.824  12.912  0.6945  0.0513 -0.8181
  830TIP3    H123981   5.045   5.774  12.904 -0.1178 -1.6543  0.7846
  830TIP3    H223982   4.902   5.779  12.855  0.1663 -0.2912  0.0173
  831TIP3   OH223983   2.992   1.878  12.880  0.6052 -0.1465 -0.1367
  831TIP3    H123984   2.947   1.956  12.846 -0.2328 -0.1262  0.9778
  831TIP3    H223985   2.988   1.815  12.808  0.4553  0.5074 -0.7149
  832TIP3   OH223986   0.597   3.836  12.909 -0.0202 -0.5104  0.0472
  832TIP3    H123987   0.564   3.924  12.893 -1.1384 -0.8940  0.2151
  832TIP3    H223988   0.588   3.791  12.825  1.8767 -0.0854 -0.4512
  833TIP3   OH223989   4.542   0.243  16.962  0.0145 -0.4442 -0.1276
  833TIP3    H123990   4.507   0.298  16.892  1.5111 -0.6269 -1.0463
  833TIP3    H223991   4.637   0.249  16.954  0.2265 -1.2919  1.2480
  834TIP3   OH223992   1.526   5.676  15.510  0.0490 -0.2846  0.1182
  834TIP3    H123993   1.442   5.629  15.508 -0.0438 -0.1058 -0.1883
  834TIP3    H223994   1.508   5.757  15.558 -0.1560  0.1374 -0.6536
  835TIP3   OH223995   5.964   0.184   3.799 -0.4782 -0.1530  0.0560
  835TIP3    H123996   5.974   0.153   3.889  0.3710  3.2489  1.2834
  835TIP3    H223997   5.888   0.242   3.802 -1.2121 -0.9339 -1.7879
  836TIP3   OH223998   0.132   3.115  14.811  0.0451  0.5891 -0.1533
  836TIP3    H123999   0.087   3.169  14.745 -4.4620 -1.3900  0.9041
  836TIP3    H224000   0.151   3.033  14.766 -1.2424 -0.0428  0.3942
  837TIP3   OH224001   3.217   1.447   4.863  0.2900  0.3289  0.0856
  837TIP3    H124002   3.163   1.369   4.851  1.5399 -0.2831 -2.1752
  837TIP3    H224003   3.166   1.518   4.826 -0.6458  0.5600  1.7117
  838TIP3   OH224004   5.968   1.333  11.130 -0.3523 -0.6183 -0.6949
  838TIP3    H124005   5.962   1.311  11.223 -1.8709  0.9498 -0.3775
  838TIP3    H224006   6.057   1.308  11.105 -0.1778 -1.7954  0.9713
  839TIP3   OH224007   5.087   4.551  11.418  0.5922 -0.0337  0.7850
  839TIP3    H124008   5.098   4.457  11.432  0.2931 -0.0921  0.6318
  839TIP3    H224009   5.091   4.589  11.505 -0.5975 -0.3198  0.9832
  840TIP3   OH224010   5.708   6.603  12.222  0.3449  0.6780  0.1061
  840TIP3    H124011   5.793   6.560  12.212  0.0708  0.5952 -2.3993
  840TIP3    H224012   5.648   6.552  12.169 -0.9571  1.5935  0.6461
  841TIP3   OH224013   6.028   1.855  16.623 -0.2570  0.7226  0.4259
  841TIP3    H124014   6.048   1.861  16.530  1.6357  0.5489  0.7673
  841TIP3    H224015   5.945   1.902  16.634  0.5793  2.6599 -1.0034
  842TIP3   OH224016   0.086   6.254  12.426 -0.0585 -0.2025  1.1104
  842TIP3    H124017   0.087   6.325  12.362  0.2027 -0.4054  0.8858
  842TIP3    H224018   0.021   6.281  12.491  0.5161  0.5410  1.3815
  843TIP3   OH224019   2.868   1.923  12.179 -0.0168 -0.3622  0.1699
  843TIP3    H124020   2.807   1.971  12.122 -0.6903 -0.7575  0.5358
  843TIP3    H224021   2.934   1.889  12.119  0.1803  0.5713 -0.1605
  844TIP3   OH224022   6.528   1.564   0.980 -0.0165 -0.1077  0.3937
  844TIP3    H124023   6.449   1.566   0.926  0.8608  1.5745 -0.9233
  844TIP3    H224024   6.512   1.494   1.044 -2.6292  0.3197  0.3065
  845TIP3   OH224025   1.212   6.746   0.657 -0.1204 -0.7676  0.5031
  845TIP3    H124026   1.270   6.822   0.669  1.2271 -1.8271  0.9646
  845TIP3    H224027   1.222   6.696   0.738  1.0800 -2.7652 -0.7888
  846TIP3   OH224028   4.626   5.505   3.334 -0.9702  0.1575 -0.6383
  846TIP3    H124029   4.538   5.543   3.334 -0.6638  0.9087 -1.6109
  846TIP3    H224030   4.671   5.549   3.262 -0.1519 -1.0521 -0.8908
  847TIP3   OH224031   5.170   5.118   1.423 -0.3259 -0.5718  0.4581
  847TIP3    H124032   5.153   5.106   1.516  1.3007  2.1590  1.2272
  847TIP3    H224033   5.112   5.190   1.397  0.0757 -0.5298 -0.3665
  848TIP3   OH224034   6.005   1.897  16.323 -0.1929  0.3648 -0.0366
  848TIP3    H124035   6.027   1.916  16.232 -1.2245 -1.0429 -0.6101
  848TIP3    H224036   5.952   1.972  16.351 -1.1104  0.1196 -1.0726
  849TIP3   OH224037   1.210   0.352  10.657 -0.1526 -0.0819  0.2228
  849TIP3    H124038   1.258   0.321  10.734 -1.1209 -2.7523 -0.1339
  849TIP3    H224039   1.137   0.402  10.694 -0.6338 -1.3665  1.1122
  850TIP3   OH224040   1.108   3.904   0.537  0.0155  0.3251 -0.1991
  850TIP3    H124041   1.168   3.845   0.492 -0.8462 -0.4517 -0.3674
  850TIP3    H224042   1.022   3.862   0.528 -0.2065  0.1819  2.0907
  851TIP3   OH224043   0.561   2.823   2.524 -0.7592 -0.2648 -0.2980
  851TIP3    H124044   0.525   2.776   2.600  1.5404 -0.5905  0.6521
  851TIP3    H224045   0.649   2.788   2.513 -0.0893  1.6520 -1.5057
  852TIP3   OH224046   1.241   6.388  16.900  0.2729  0.3878 -0.3214
  852TIP3    H124047   1.268   6.350  16.816  2.6523  1.0653  0.0846
  852TIP3    H224048   1.165   6.442  16.878 -0.5403 -1.1973 -1.6206
  853TIP3   OH224049   6.625   0.964  10.562  0.0914 -0.0755 -0.2409
  853TIP3    H124050   6.555   1.013  10.519  0.7991  0.0729 -1.2638
  853TIP3    H224051   6.591   0.874  10.569 -0.4816  0.1494 -0.0459
  854TIP3   OH224052   0.496   2.050  14.284 -0.0765 -0.6660  0.6758
  854TIP3    H124053   0.511   2.109  14.357  0.6344 -1.1820  0.9623
  854TIP3    H224054   0.497   1.962  14.323  0.4784 -0.9575  0.0383
  855TIP3   OH224055   0.209   0.135  12.109 -0.4550 -0.4592  0.1129
  855TIP3    H124056   0.223   0.077  12.184 -2.0735 -0.5667  0.3709
  855TIP3    H224057   0.237   0.083  12.034  1.5367 -0.2128  0.6406
  856TIP3   OH224058   2.359   3.544  12.092 -0.5072  1.0696 -0.0310
  856TIP3    H124059   2.378   3.601  12.167 -0.7627  1.0821  0.0263
  856TIP3    H224060   2.270   3.512  12.109 -0.4346  0.7985 -0.1561
  857TIP3   OH224061   3.683   0.628  13.555 -0.4508 -0.2621  0.5109
  857TIP3    H124062   3.620   0.626  13.483 -0.6373 -0.6844  0.6829
  857TIP3    H224063   3.753   0.684  13.524 -0.7234 -0.1140  0.1583
  858TIP3   OH224064   6.621   4.569   4.667  0.0240  0.0079  0.4946
  858TIP3    H124065   6.593   4.595   4.578  1.4716  0.1385  0.0624
  858TIP3    H224066   6.652   4.650   4.707  0.9896 -0.3582  0.4997
  859TIP3   OH224067   2.738   5.981   1.166  0.4194  0.7055  0.7173
  859TIP3    H124068   2.783   5.941   1.090 -0.9285  0.7691 -0.1441
  859TIP3    H224069   2.707   6.065   1.134  0.0377  0.8399  1.4212
  860TIP3   OH224070   6.727   1.874   4.170  0.3336 -0.2257  0.3694
  860TIP3    H124071   6.725   1.794   4.118 -0.0169 -0.7333  1.1390
  860TIP3    H224072   6.799   1.861   4.232 -0.2266 -0.3012  1.0221
  861TIP3   OH224073   0.459   4.625  15.088 -0.4678 -0.3516  0.5801
  861TIP3    H124074   0.377   4.676  15.084 -0.2489 -0.0400 -0.0973
  861TIP3    H224075   0.526   4.685  15.055  0.7373  0.6952  4.4111
  862TIP3   OH224076   3.502   6.172  14.111 -0.4104 -0.1889 -0.5139
  862TIP3    H124077   3.534   6.100  14.056 -1.3386  0.0230 -1.3499
  862TIP3    H224078   3.507   6.249  14.054  0.2297  0.3542  0.2600
  863TIP3   OH224079   2.888   4.781  14.296 -0.0977  0.0869  0.5432
  863TIP3    H124080   2.805   4.738  14.315 -0.1000  0.3375  1.1140
  863TIP3    H224081   2.953   4.711  14.300 -0.3989 -0.3152 -0.9498
  864TIP3   OH224082   6.198   1.686  14.336  0.1725  0.2367 -0.0205
  864TIP3    H124083   6.135   1.744  14.379 -1.0780 -0.0071 -1.4585
  864TIP3    H224084   6.147   1.611  14.307  0.8131  0.6050 -2.3550
  865TIP3   OH224085   4.490   5.823  14.379  0.5832 -0.1881  0.2800
  865TIP3    H124086   4.531   5.901  14.341  1.4045 -1.0901 -0.7235
  865TIP3    H224087   4.396   5.840  14.374  0.5857 -0.5498 -2.8738
  866TIP3   OH224088   4.118   5.867  15.423 -0.7315  0.0891  0.4171
  866TIP3    H124089   4.161   5.818  15.353 -1.1468 -1.7798  1.4068
  866TIP3    H224090   4.185   5.928  15.453 -0.0542 -0.1121 -0.6084
  867TIP3   OH224091   2.261   0.017  12.999  0.7352 -0.2215  0.2026
  867TIP3    H124092   2.258  -0.073  12.967  0.7695  0.2534 -1.2110
  867TIP3    H224093   2.200   0.019  13.073 -0.2141 -1.0996 -0.5354
  868TIP3   OH224094   5.882   2.580  14.900 -0.4559  0.2961 -0.0873
  868TIP3    H124095   5.886   2.674  14.918 -0.2031  0.1476  0.6882
  868TIP3    H224096   5.880   2.574  14.805  2.5683  1.0153 -0.3160
  869TIP3   OH224097   5.686   3.668   0.553 -0.5602  0.3576  0.3712
  869TIP3    H124098   5.777   3.693   0.570  0.2189 -1.2565 -1.0912
  869TIP3    H224099   5.651   3.737   0.498  0.1372  0.4371  0.0231
  870TIP3   OH224100   0.364   4.936  13.105  0.4613  0.2621 -0.1780
  870TIP3    H124101   0.456   4.910  13.103  0.5243  0.5247 -0.9147
  870TIP3    H224102   0.340   4.932  13.198  0.9714 -0.6412 -0.0758
  871TIP3   OH224103   5.061   0.018  14.427  0.2269 -0.1792  0.2768
  871TIP3    H124104   5.102   0.076  14.491 -1.3172 -0.7576  1.8614
  871TIP3    H224105   5.032   0.077  14.357  1.9482  0.4644  0.0749
  872TIP3   OH224106   4.791   2.406  16.990 -0.6968  0.7589 -0.0121
  872TIP3    H124107   4.759   2.488  17.027 -2.1561 -1.2349  3.6354
  872TIP3    H224108   4.885   2.419  16.978 -0.1289  1.8734  4.1668
  873TIP3   OH224109   3.602   3.568  14.542  0.8562 -0.3628  0.4987
  873TIP3    H124110   3.559   3.649  14.571  2.1362  0.4811  0.0772
  873TIP3    H224111   3.534   3.501  14.553 -0.4070  0.8372  0.3420
  874TIP3   OH224112   5.425   0.662  14.763 -0.1562 -0.4429 -0.2377
  874TIP3    H124113   5.373   0.686  14.840 -1.0010 -1.4765 -0.4579
  874TIP3    H224114   5.438   0.568  14.771  1.5050 -0.2483 -0.3237
  875TIP3   OH224115   5.989   2.357   2.424  0.5201  0.5172  0.3270
  875TIP3    H124116   5.959   2.419   2.490  1.7068  1.9356 -0.3911
  875TIP3    H224117   5.928   2.367   2.351 -0.7493 -0.9995  1.1250
  876TIP3   OH224118   3.189   3.123  15.765  0.3711 -0.1912  0.0902
  876TIP3    H124119   3.220   3.139  15.853 -0.6438 -0.9418  0.6048
  876TIP3    H224120   3.222   3.036  15.742  2.3195  0.7748 -1.0781
  877TIP3   OH224121   2.452   2.276  16.524 -0.6625  0.2556  0.3207
  877TIP3    H124122   2.381   2.274  16.588  0.1703 -0.5251  1.2444
  877TIP3    H224123   2.519   2.217  16.560  0.2713  0.6378 -0.7365
  878TIP3   OH224124   1.950   6.814  12.829 -0.0210  0.1011  0.2991
  878TIP3    H124125   1.894   6.737  12.815  0.4253 -0.0206 -0.8981
  878TIP3    H224126   2.039   6.779  12.827  0.1893  0.6649 -0.3285
  879TIP3   OH224127   0.200   2.305  12.641  0.2334 -0.4107  0.0744
  879TIP3    H124128   0.171   2.346  12.722 -0.8448  1.1313 -1.0437
  879TIP3    H224129   0.292   2.283  12.657 -0.4014 -1.8048  2.3041
  880TIP3   OH224130   2.673   0.927   4.466 -0.5064  0.0244  0.0485
  880TIP3    H124131   2.637   0.859   4.524  0.0121 -1.0091 -0.7998
  880TIP3    H224132   2.700   0.997   4.525 -2.8084  0.3622  0.8039
  881TIP3   OH224133   5.662   5.876  16.593 -0.4933  0.0633 -0.4608
  881TIP3    H124134   5.686   5.834  16.675 -1.1805  1.2930  0.3943
  881TIP3    H224135   5.574   5.909  16.607 -0.5159  0.5379 -1.6010
  882TIP3   OH224136   4.570   3.020  13.268 -0.2438  0.0659 -0.3413
  882TIP3    H124137   4.655   2.977  13.279  0.2357  0.2547 -2.6821
  882TIP3    H224138   4.576   3.099  13.320  1.3731  0.4891 -1.1022
  883TIP3   OH224139   1.613   6.136   0.842 -0.0842 -0.4617 -0.3336
  883TIP3    H124140   1.618   6.054   0.793  0.9542 -0.7725  0.2657
  883TIP3    H224141   1.679   6.127   0.911 -0.4240  0.6069  0.1547
  884TIP3   OH224142   4.166   0.318  10.625  0.1009  0.0295 -0.3943
  884TIP3    H124143   4.158   0.396  10.570 -0.3531  0.1978 -0.0930
  884TIP3    H224144   4.159   0.245  10.564 -0.3818  0.2140 -0.5643
  885TIP3   OH224145   0.572   2.327  12.029 -0.2683  0.2094  0.2397
  885TIP3    H124146   0.664   2.338  12.004 -0.3724  0.5261 -0.0132
  885TIP3    H224147   0.570   2.246  12.080  0.2829  0.6013  0.9065
  886TIP3   OH224148   5.490   4.969   2.867 -0.7694 -0.8846  0.1556
  886TIP3    H124149   5.578   4.971   2.830 -0.6123 -0.6654  0.5338
  886TIP3    H224150   5.503   4.975   2.962 -1.1860 -0.9642  0.2230
  887TIP3   OH224151   2.277   6.470   0.343  0.2198 -0.2620  0.3332
  887TIP3    H124152   2.214   6.416   0.296  0.7736 -1.1776  0.6169
  887TIP3    H224153   2.355   6.415   0.350  0.9268  0.7129  0.3138
  888TIP3   OH224154   6.163   5.424   5.057 -0.0437 -0.6514  0.3383
  888TIP3    H124155   6.161   5.384   5.144  1.9968 -0.7903  0.3663
  888TIP3    H224156   6.253   5.413   5.027 -0.6153 -0.2969 -1.6692
  889TIP3   OH224157   6.354   4.165  13.023  0.1431  0.4374 -0.0584
  889TIP3    H124158   6.379   4.159  12.930  1.9467  0.8433  0.3563
  889TIP3    H224159   6.417   4.110  13.068 -0.4196  0.6279  0.9883
  890TIP3   OH224160   1.734   4.084  12.622 -0.3200  0.0549  0.6400
  890TIP3    H124161   1.767   4.000  12.656  2.0295  1.4463  2.0978
  890TIP3    H224162   1.654   4.100  12.673 -1.1970 -1.5487 -0.1314
  891TIP3   OH224163   6.080   0.646   2.699  0.3851 -0.4346 -0.4802
  891TIP3    H124164   6.093   0.738   2.720  2.8569 -0.7593 -0.3220
  891TIP3    H224165   6.132   0.631   2.621 -0.7800 -1.5157 -1.0942
  892TIP3   OH224166   5.429   0.675   4.608 -0.4815  0.1439 -0.3549
  892TIP3    H124167   5.367   0.693   4.678 -0.4272  0.1159 -0.2988
  892TIP3    H224168   5.380   0.625   4.543 -0.9440  1.4680 -1.0453
  893TIP3   OH224169   3.764   0.844   0.218 -0.2883 -0.2232 -0.4673
  893TIP3    H124170   3.845   0.893   0.201 -0.4818  0.0267 -0.6732
  893TIP3    H224171   3.783   0.755   0.189  0.6879 -0.7487  1.5344
  894TIP3   OH224172   2.037   0.270  12.523  0.0545  0.2086  0.1876
  894TIP3    H124173   1.971   0.325  12.483 -0.4686 -0.6995 -0.2244
  894TIP3    H224174   2.068   0.213  12.452 -1.1692 -1.6960  1.0847
  895TIP3   OH224175   2.611   3.282  16.202  0.1331 -0.2601  0.2771
  895TIP3    H124176   2.518   3.272  16.182  0.3079  0.4529 -1.0166
  895TIP3    H224177   2.646   3.193  16.197 -0.3236 -0.4214 -0.1107
  896TIP3   OH224178   4.803   3.599  14.976  0.2765 -0.4108 -0.0403
  896TIP3    H124179   4.839   3.516  14.945  0.4564  0.3200 -1.9161
  896TIP3    H224180   4.713   3.579  15.000  0.5076 -1.2625  0.1679
  897TIP3   OH224181   2.658   2.522   4.533 -0.2739  0.3023  0.0027
  897TIP3    H124182   2.602   2.465   4.586  1.1235 -1.4864 -0.3164
  897TIP3    H224183   2.622   2.515   4.444 -0.8248  0.9008  0.1740
  898TIP3   OH224184   2.143   3.815  12.814  0.2174 -0.1665 -0.1574
  898TIP3    H124185   2.151   3.725  12.782  0.5122  0.7103 -2.7924
  898TIP3    H224186   2.225   3.832  12.860  0.2987 -1.1236  0.0705
  899TIP3   OH224187   4.979   6.716   5.828  0.4202  0.0237  0.2725
  899TIP3    H124188   5.061   6.683   5.863  1.0256  0.7888 -0.3719
  899TIP3    H224189   4.937   6.761   5.902  0.9674  0.3183  0.4105
  900TIP3   OH224190   6.522   6.754   1.737  0.0720  0.5059 -0.0396
  900TIP3    H124191   6.428   6.772   1.740  0.0515  0.7798 -1.6045
  900TIP3    H224192   6.531   6.682   1.675  0.9852  1.2154 -0.7646
  901TIP3   OH224193   6.245   4.233   3.478  0.0547 -0.4893 -0.3335
  901TIP3    H124194   6.274   4.321   3.453  0.3157  0.4997  2.9853
  901TIP3    H224195   6.163   4.221   3.429  0.6801  1.0069 -1.8682
  902TIP3   OH224196   5.904   2.858  11.537 -0.5530 -0.2127  0.8036
  902TIP3    H124197   5.866   2.938  11.501 -1.7937 -0.6839  1.0234
  902TIP3    H224198   5.889   2.791  11.471 -1.4743 -0.7397  1.5282
  903TIP3   OH224199   5.298   4.707  12.969 -0.0558  0.2326  0.2950
  903TIP3    H124200   5.216   4.747  12.939  1.5031  2.3351 -1.4472
  903TIP3    H224201   5.345   4.687  12.888  1.4319 -0.3611  1.2774
  904TIP3   OH224202   2.219   4.393   5.463 -0.2312 -0.2695 -0.6043
  904TIP3    H124203   2.167   4.390   5.544  0.4727 -1.3094 -0.1547
  904TIP3    H224204   2.299   4.440   5.488 -0.8280  1.0992 -1.2234
  905TIP3   OH224205   6.131   3.188  15.088  0.6666  0.6129 -0.0262
  905TIP3    H124206   6.136   3.249  15.015  1.3181 -0.6146 -1.0522
  905TIP3    H224207   6.050   3.211  15.133  0.3996  1.5865 -0.9465
  906TIP3   OH224208   1.729   5.054  13.443  0.0150  0.4910  0.2574
  906TIP3    H124209   1.719   5.117  13.371  1.4905 -0.7726 -1.1458
  906TIP3    H224210   1.820   5.025  13.437 -0.1359 -0.4730  1.9827
  907TIP3   OH224211   5.278   0.230  13.812 -0.1505 -0.5967  0.0904
  907TIP3    H124212   5.192   0.213  13.851 -0.5619 -1.6859 -1.2216
  907TIP3    H224213   5.279   0.324  13.795  0.3795  0.1316  3.3782
  908TIP3   OH224214   4.211   2.855  13.177 -0.3861 -0.1089  0.1260
  908TIP3    H124215   4.206   2.945  13.145  0.7353 -0.2259 -0.4188
  908TIP3    H224216   4.231   2.803  13.099  0.2522 -0.6743  0.6587
  909TIP3   OH224217   1.471   2.406  16.059 -0.0375 -0.1418  0.1970
  909TIP3    H124218   1.381   2.390  16.028  0.8135 -1.3053 -1.8764
  909TIP3    H224219   1.505   2.319  16.077  1.1989  0.1356 -0.6838
  910TIP3   OH224220   4.167   6.560  13.453 -0.3350 -0.3747  0.0148
  910TIP3    H124221   4.088   6.613  13.459 -1.8180 -2.5434  0.7744
  910TIP3    H224222   4.223   6.592  13.524 -1.7128 -0.5862  1.2389
  911TIP3   OH224223   4.758   1.785  15.169  0.1587  0.2651  0.8065
  911TIP3    H124224   4.701   1.726  15.119  0.0239 -0.6977  2.0322
  911TIP3    H224225   4.699   1.852  15.204  0.1136  0.4525  0.3658
  912TIP3   OH224226   1.817   3.448  16.305  0.4415  0.6329 -0.7427
  912TIP3    H124227   1.813   3.531  16.258 -0.1708  0.3229 -1.2577
  912TIP3    H224228   1.910   3.426  16.307  0.6557  1.5406 -0.2093
  913TIP3   OH224229   1.595   4.615   2.767  0.0347  0.1354  0.4159
  913TIP3    H124230   1.658   4.543   2.765 -1.6601 -1.4341 -2.2786
  913TIP3    H224231   1.625   4.674   2.698 -0.7826 -0.0561 -0.1173
  914TIP3   OH224232   0.810   3.327  13.695 -0.1789  0.0074 -0.0017
  914TIP3    H124233   0.878   3.362  13.637 -1.6280  0.6835 -1.3409
  914TIP3    H224234   0.771   3.404  13.736  0.1178 -0.4078  1.1092
  915TIP3   OH224235   3.297   3.344   3.935 -0.1861  0.4182 -0.2420
  915TIP3    H124236   3.327   3.279   3.999  0.3156  0.3423 -0.5512
  915TIP3    H224237   3.326   3.428   3.972  3.1105  0.1824 -1.9175
  916TIP3   OH224238   5.791   5.842   0.679 -0.5250  0.1132  0.1566
  916TIP3    H124239   5.755   5.848   0.590  1.1514  2.4455 -0.4626
  916TIP3    H224240   5.863   5.780   0.672  0.0188  0.7810 -0.3037
  917TIP3   OH224241   0.266   6.119  16.577  0.5706  0.3038  0.1681
  917TIP3    H124242   0.298   6.075  16.498 -0.7536  0.0420 -0.2412
  917TIP3    H224243   0.275   6.212  16.558  0.5829  0.2383 -0.1531
  918TIP3   OH224244   5.639   1.150   1.752  0.3176  0.3150 -0.6319
  918TIP3    H124245   5.688   1.068   1.745  0.3059  0.4323 -3.1126
  918TIP3    H224246   5.639   1.185   1.663 -1.2938  2.0859  0.0007
  919TIP3   OH224247   0.506   5.939  15.632 -0.0647 -1.4132 -0.0198
  919TIP3    H124248   0.548   6.006  15.686  1.5999 -2.0571 -0.4797
  919TIP3    H224249   0.457   5.886  15.695 -1.4888  0.2204  0.3516
  920TIP3   OH224250   0.479   2.299   2.891  0.2907 -0.2351 -0.0973
  920TIP3    H124251   0.475   2.219   2.943 -0.4795 -0.6209 -0.7361
  920TIP3    H224252   0.509   2.270   2.805  0.8931  0.3010 -0.0778
  921TIP3   OH224253   0.203   5.049   2.211  0.2377 -0.5750 -0.0230
  921TIP3    H124254   0.227   4.957   2.220  0.9660 -0.3065  0.9398
  921TIP3    H224255   0.155   5.069   2.292  1.9409  0.4253  0.7965
  922TIP3   OH224256   0.109   4.512  15.149 -0.3151  1.1381  0.1972
  922TIP3    H124257   0.158   4.430  15.154 -1.4012  0.4498 -0.0100
  922TIP3    H224258   0.024   4.490  15.188 -0.5927  2.1854  0.1925
  923TIP3   OH224259   6.767   0.647   0.584 -0.0137 -0.2273  0.1014
  923TIP3    H124260   6.719   0.668   0.504  1.1155  2.2959 -0.0043
  923TIP3    H224261   6.818   0.726   0.602  0.7617 -1.2298  2.5974
  924TIP3   OH224262   6.096   6.546  13.335 -0.9794  0.2067 -0.0253
  924TIP3    H124263   6.131   6.457  13.330  1.6731  0.8904  3.3334
  924TIP3    H224264   6.156   6.598  13.281 -1.8376  0.2109 -1.0159
  925TIP3   OH224265   4.954   1.895  17.071  0.6221  0.4665  0.4956
  925TIP3    H124266   4.900   1.887  16.992  1.3488 -1.4969  0.1317
  925TIP3    H224267   4.922   1.974  17.115 -2.3409 -0.4559  0.1576
  926TIP3   OH224268   4.112   2.624   1.247 -0.1074  0.0618  0.3193
  926TIP3    H124269   4.059   2.659   1.318 -0.7867  0.1594 -0.2280
  926TIP3    H224270   4.064   2.647   1.168  1.9277  2.3206 -0.3710
  927TIP3   OH224271   3.854   0.054   3.063 -0.3032 -0.7913  0.0286
  927TIP3    H124272   3.893   0.089   2.983 -2.7379  0.1976 -0.8029
  927TIP3    H224273   3.917   0.077   3.132  0.9459  0.0019 -1.3145
  928TIP3   OH224274   2.207   1.819   1.896  0.0507  0.8272 -0.4095
  928TIP3    H124275   2.122   1.831   1.938 -0.2026  1.4979 -1.0845
  928TIP3    H224276   2.238   1.908   1.878 -1.0546  0.6450 -3.9326
  929TIP3   OH224277   3.210   5.864  14.962 -0.0181 -0.1196  0.1465
  929TIP3    H124278   3.219   5.798  15.031  1.2542 -1.7759 -1.5045
  929TIP3    H224279   3.121   5.852  14.929  0.7222 -2.2956 -1.2742
  930TIP3   OH224280   2.763   0.717  12.047  0.4234  0.2485 -0.2554
  930TIP3    H124281   2.681   0.750  12.011 -0.2012  0.3516  1.1691
  930TIP3    H224282   2.805   0.794  12.086  0.1088 -0.1643  0.9696
  931TIP3   OH224283   5.961   4.429   4.002  0.1435  0.3477  0.3028
  931TIP3    H124284   5.945   4.447   3.910 -1.2250 -1.3471  0.1586
  931TIP3    H224285   6.054   4.406   4.006  0.2897  0.7506 -0.6018
  932TIP3   OH224286   2.160   1.817  16.738 -0.1752  0.1622  0.1414
  932TIP3    H124287   2.071   1.783  16.736  0.4388 -1.5120 -0.7861
  932TIP3    H224288   2.187   1.822  16.646  0.9896 -0.2641  0.4352
  933TIP3   OH224289   4.126   1.831   0.600 -0.2450 -0.5938  0.0415
  933TIP3    H124290   4.146   1.916   0.640 -0.2949 -0.9199  0.7824
  933TIP3    H224291   4.124   1.771   0.674 -1.8927 -0.9440 -0.2708
  934TIP3   OH224292   2.749   4.233  12.061  0.1293  0.1351 -0.2983
  934TIP3    H124293   2.663   4.275  12.062 -0.1549 -0.4407  0.0859
  934TIP3    H224294   2.811   4.305  12.053 -0.3717  0.5891 -0.1459
  935TIP3   OH224295   1.913   1.148   1.914  0.7349 -0.3886  0.8004
  935TIP3    H124296   2.004   1.175   1.899  0.6145  0.2993  1.2879
  935TIP3    H224297   1.878   1.213   1.976  0.9481 -2.5460  3.3919
  936TIP3   OH224298   5.632   1.257  12.698  0.7632 -0.2754  0.2443
  936TIP3    H124299   5.696   1.293  12.759  0.9392  2.0395 -1.1925
  936TIP3    H224300   5.677   1.257  12.613 -0.8372  0.6058 -0.6405
  937TIP3   OH224301   3.483   3.204  14.694  0.4557  0.0634 -0.2824
  937TIP3    H124302   3.422   3.148  14.741 -1.2090 -0.9459 -3.3358
  937TIP3    H224303   3.566   3.156  14.694  0.2874 -0.2464  0.9024
  938TIP3   OH224304   1.323   0.243  10.895 -0.4195  0.1286  0.3636
  938TIP3    H124305   1.258   0.204  10.955 -1.6434  0.3646 -0.7614
  938TIP3    H224306   1.390   0.176  10.887 -1.6030 -1.0496 -0.1270
  939TIP3   OH224307   1.695   2.653   1.881 -0.5974  0.3837 -0.1085
  939TIP3    H124308   1.742   2.724   1.924  1.3529 -0.1037 -1.3075
  939TIP3    H224309   1.613   2.693   1.852 -1.0374  1.2500  2.1264
  940TIP3   OH224310   0.089   2.122   5.097 -0.2493  0.2454  0.1542
  940TIP3    H124311   0.048   2.060   5.157 -0.3037  0.2885  0.1604
  940TIP3    H224312   0.182   2.098   5.100 -0.4546 -0.7427 -0.9077
  941TIP3   OH224313   6.724   4.492  13.171  0.2550 -0.0955 -0.2606
  941TIP3    H124314   6.686   4.470  13.255 -1.7226 -0.3242 -1.1695
  941TIP3    H224315   6.758   4.410  13.137  1.1616  0.0176  0.3229
  942TIP3   OH224316   5.219   6.745   1.513  0.2221 -0.6222 -0.2345
  942TIP3    H124317   5.271   6.670   1.541  2.5053  0.6610 -0.8252
  942TIP3    H224318   5.246   6.816   1.570 -1.2558  0.0076 -0.2674
  943TIP3   OH224319   6.009   3.978   0.094 -1.0629  0.6991 -0.4997
  943TIP3    H124320   6.093   4.024   0.101  1.2585 -3.2805  0.9677
  943TIP3    H224321   6.009   3.943   0.005 -0.6342 -0.1377 -0.1794
  944TIP3   OH224322   4.730   2.393   2.395  0.3783  0.2023  0.5630
  944TIP3    H124323   4.700   2.347   2.473  0.7544  0.9829  1.1780
  944TIP3    H224324   4.685   2.477   2.397 -0.1548 -0.0472 -0.4476
  945TIP3   OH224325   6.087   3.991  14.149 -0.7558 -0.3951  0.1264
  945TIP3    H124326   6.102   4.031  14.235  1.1554  0.7328 -0.6896
  945TIP3    H224327   6.024   3.920  14.167 -0.7303  0.0742  2.3672
  946TIP3   OH224328   3.793   1.984   2.925  0.1470 -0.1652 -0.1225
  946TIP3    H124329   3.750   1.984   2.839 -1.4530 -2.3433  0.5942
  946TIP3    H224330   3.886   1.994   2.904 -0.2205 -0.4236 -2.1002
  947TIP3   OH224331   5.002   3.009  12.040 -0.0991  0.9834  0.0304
  947TIP3    H124332   4.967   2.929  12.003  2.7553  0.0313 -0.9040
  947TIP3    H224333   4.992   2.998  12.135 -0.2511 -0.2226 -0.1144
  948TIP3   OH224334   3.855   1.887  15.585 -0.1957 -0.1524 -0.3118
  948TIP3    H124335   3.763   1.913  15.593 -0.3759 -0.8944  0.1144
  948TIP3    H224336   3.901   1.940  15.649 -0.3927 -0.0806 -0.2296
  949TIP3   OH224337   1.341   6.212  13.590  0.1934 -0.2054  0.1569
  949TIP3    H124338   1.346   6.245  13.679 -1.0226  1.5882 -0.3670
  949TIP3    H224339   1.248   6.193  13.577  0.3624 -0.4795 -0.7062
  950TIP3   OH224340   5.409   5.872   3.971 -0.3702  0.0839  0.3853
  950TIP3    H124341   5.378   5.912   3.889 -3.3513  0.1485  1.4196
  950TIP3    H224342   5.451   5.943   4.018  0.1222  0.3859 -0.4854
  951TIP3   OH224343   1.888   1.286   4.006  0.3074  0.1926  0.0902
  951TIP3    H124344   1.824   1.252   3.943 -0.7403 -1.6423  2.0041
  951TIP3    H224345   1.973   1.270   3.967 -0.3221  0.8787 -1.6556
  952TIP3   OH224346   5.502   5.544  16.023  0.1841  0.0477  0.1948
  952TIP3    H124347   5.515   5.633  15.990 -1.5165  0.1425 -0.3163
  952TIP3    H224348   5.438   5.554  16.094  1.7229 -0.5103  1.7513
  953TIP3   OH224349   3.094   1.075  15.485 -0.2160 -0.2832  0.0294
  953TIP3    H124350   3.024   1.135  15.512  0.5522  0.0282  1.4090
  953TIP3    H224351   3.114   1.024  15.563  1.5373  0.0831 -0.1416
  954TIP3   OH224352   5.312   1.973  13.111 -0.1312  0.4434  0.0223
  954TIP3    H124353   5.353   2.011  13.033 -0.3752  0.9279  0.1238
  954TIP3    H224354   5.313   2.044  13.175 -0.4292  0.2186  0.2799
  955TIP3   OH224355   1.651   3.898  15.478 -0.3962  0.5311  0.4177
  955TIP3    H124356   1.586   3.934  15.417  0.2049  1.8446  0.5303
  955TIP3    H224357   1.703   3.837  15.424 -1.7225 -0.5781  0.3421
  956TIP3   OH224358   1.992   3.761  13.836 -0.1459  0.0187 -0.5414
  956TIP3    H124359   1.980   3.798  13.923  1.5887  1.3276 -0.7969
  956TIP3    H224360   2.087   3.759  13.824 -0.3515  0.1333 -2.5092
  957TIP3   OH224361   5.629   6.539   4.527  0.1966  0.3814  0.7488
  957TIP3    H124362   5.559   6.476   4.543  0.4640 -0.9932 -2.5237
  957TIP3    H224363   5.687   6.532   4.602 -0.9830 -1.5967  1.5278
  958TIP3   OH224364   5.626   0.421   1.623 -0.6823 -0.1989  0.3042
  958TIP3    H124365   5.566   0.355   1.657 -0.2034 -0.3004  0.9777
  958TIP3    H224366   5.712   0.396   1.658 -0.2813  0.0715 -0.4529
  959TIP3   OH224367   6.228   3.274   5.216 -0.4049  0.0492  0.2545
  959TIP3    H124368   6.276   3.229   5.285  1.3372  0.1560 -0.8340
  959TIP3    H224369   6.195   3.204   5.160  0.5624  0.0425 -0.3187
  960TIP3   OH224370   1.973   2.165   0.435 -0.5204 -0.2085  0.2111
  960TIP3    H124371   2.004   2.144   0.347  0.6270 -2.9261  1.1545
  960TIP3    H224372   2.043   2.217   0.473  0.2653 -1.3434  0.3719
  961TIP3   OH224373   2.101   2.778   2.408 -0.2772 -0.5026  0.1887
  961TIP3    H124374   2.099   2.684   2.429 -1.5822 -0.5549 -0.0850
  961TIP3    H224375   2.141   2.783   2.322 -0.0655 -0.7889  0.2679
  962TIP3   OH224376   4.017   1.909  16.983 -0.2043 -0.0364  0.7428
  962TIP3    H124377   4.015   1.822  17.022 -0.0480 -0.2468  0.2784
  962TIP3    H224378   4.099   1.947  17.014 -0.8493  0.4277  1.9673
  963TIP3   OH224379   2.073   0.783   6.405  0.6312 -0.5502  0.4164
  963TIP3    H124380   2.122   0.862   6.383  1.8143 -0.8465  1.8709
  963TIP3    H224381   2.128   0.711   6.373  0.2203 -0.8309  0.3360
  964TIP3   OH224382   4.513   6.322   1.410 -0.2033 -0.6449 -0.0594
  964TIP3    H124383   4.549   6.391   1.466 -1.0431 -0.9789  0.9166
  964TIP3    H224384   4.447   6.365   1.357 -1.3585 -0.8270  1.1728
  965TIP3   OH224385   0.858   6.578   3.974 -0.1375  0.3446  0.3485
  965TIP3    H124386   0.792   6.544   4.033  0.4024  0.1248  0.8386
  965TIP3    H224387   0.938   6.581   4.027  0.2618  0.5277 -0.2528
  966TIP3   OH224388   0.637   4.501   0.545 -0.5259 -0.6670  0.5324
  966TIP3    H124389   0.651   4.412   0.514  0.6486 -0.1904 -0.3701
  966TIP3    H224390   0.574   4.538   0.483 -1.1251 -0.9039  0.9922
  967TIP3   OH224391   4.197   5.937   4.148  0.5038  0.2399  0.0468
  967TIP3    H124392   4.175   5.945   4.055  0.9814  1.7236  0.0205
  967TIP3    H224393   4.287   5.903   4.148  0.2922 -0.3201 -0.0163
  968TIP3   OH224394   2.915   5.575  13.619  0.5203  0.1769  0.1820
  968TIP3    H124395   2.877   5.656  13.587  2.0806 -0.3809 -3.6552
  968TIP3    H224396   2.943   5.529  13.540  1.3487 -3.3010  2.2802
  969TIP3   OH224397   3.793   5.885   3.641  0.2432  0.2085 -0.2614
  969TIP3    H124398   3.845   5.830   3.582 -1.1640  1.0344 -2.4176
  969TIP3    H224399   3.841   5.967   3.647  0.8777 -0.2159  0.5603
  970TIP3   OH224400   4.597   3.261  12.978 -0.0323 -0.2566  0.6183
  970TIP3    H124401   4.644   3.215  13.048  1.6330 -0.9297 -0.8711
  970TIP3    H224402   4.556   3.191  12.927 -3.9027  0.3311  2.5577
  971TIP3   OH224403   0.850   5.002   1.314 -0.1276  0.2743  0.0512
  971TIP3    H124404   0.860   5.036   1.402  0.2313  0.1803  0.0466
  971TIP3    H224405   0.933   4.958   1.295 -0.4924 -0.3890 -0.0332
  972TIP3   OH224406   4.448   2.075   2.075 -0.6435 -0.3706 -0.1837
  972TIP3    H124407   4.518   2.069   2.010  0.7949 -0.7320  1.3201
  972TIP3    H224408   4.415   1.985   2.082 -2.7203  0.1276 -2.3290
  973TIP3   OH224409   4.858   5.308  14.869 -0.5577  0.8095 -0.3154
  973TIP3    H124410   4.848   5.309  14.964 -1.4798  0.3660 -0.3905
  973TIP3    H224411   4.777   5.348  14.837  0.2103  1.9494 -0.8997
  974TIP3   OH224412   0.854   4.155   6.171 -0.1115 -0.3283 -0.5408
  974TIP3    H124413   0.768   4.142   6.132  0.0363 -0.6916 -0.7638
  974TIP3    H224414   0.892   4.067   6.174  0.8526  0.0095 -1.8729
  975TIP3   OH224415   4.046   4.591  11.045  0.0943 -0.0982 -0.6827
  975TIP3    H124416   4.018   4.670  10.999  0.2672  1.4502  1.7422
  975TIP3    H224417   4.093   4.540  10.978 -0.7363  1.4115 -2.5088
  976TIP3   OH224418   2.120   4.854   6.905 -0.5812 -0.2564 -0.4335
  976TIP3    H124419   2.179   4.917   6.865 -1.1203  0.1649 -0.5889
  976TIP3    H224420   2.080   4.807   6.832  1.8846 -2.8096 -0.3033
  977TIP3   OH224421   1.901   4.655   0.264 -0.4074  0.0684 -0.1139
  977TIP3    H124422   1.818   4.608   0.258 -0.1944 -0.1663 -1.7092
  977TIP3    H224423   1.881   4.745   0.239 -0.7708  0.8624  2.7286
  978TIP3   OH224424   2.376   6.704  15.028  0.0543  0.0236  0.2920
  978TIP3    H124425   2.320   6.750  15.091  0.0469  0.8682 -0.3163
  978TIP3    H224426   2.462   6.745  15.039 -0.5206  2.1312 -2.0981
  979TIP3   OH224427   5.057   2.970  12.810 -0.1198 -0.1755 -0.3163
  979TIP3    H124428   5.089   3.055  12.780 -0.3438  0.4212  1.0648
  979TIP3    H224429   5.093   2.960  12.898 -1.3000 -0.8270  0.1245
  980TIP3   OH224430   5.898   3.579  16.483  0.3364 -0.5750  0.0140
  980TIP3    H124431   5.879   3.668  16.456  0.1783 -1.2149 -2.1616
  980TIP3    H224432   5.821   3.529  16.457 -0.2097 -1.1738  2.5044
  981TIP3   OH224433   4.789   3.483  16.085 -0.5191  0.7162  0.1849
  981TIP3    H124434   4.833   3.538  16.021  0.4355  0.5450  0.6784
  981TIP3    H224435   4.784   3.397  16.044  1.7206  0.1358  0.9958
  982TIP3   OH224436   1.257   6.206   0.364  0.2923  0.1567 -0.0357
  982TIP3    H124437   1.202   6.206   0.286 -0.9821  0.9799  0.8386
  982TIP3    H224438   1.220   6.273   0.420  2.5536  1.1755  0.3616
  983TIP3   OH224439   1.577   2.995   2.758  0.5040  0.3203  0.1760
  983TIP3    H124440   1.536   2.948   2.831 -0.4326  0.2926 -0.3473
  983TIP3    H224441   1.625   3.067   2.800  1.6419 -0.8545  0.9581
  984TIP3   OH224442   6.802   5.038   0.543  0.3958 -0.2580 -0.0441
  984TIP3    H124443   6.788   4.972   0.475 -0.0580  1.7728 -2.0785
  984TIP3    H224444   6.896   5.039   0.557  0.6367 -0.0574 -1.4528
  985TIP3   OH224445   0.829   0.011   4.243 -0.3316 -0.0518  0.1732
  985TIP3    H124446   0.747  -0.035   4.227 -0.3718  0.2249 -0.4423
  985TIP3    H224447   0.886  -0.055   4.283 -0.8031 -0.2851  0.4619
  986TIP3   OH224448   0.057   6.775   2.727  0.2559  0.1086  0.0925
  986TIP3    H124449   0.054   6.706   2.662 -0.0577  1.1447 -1.0180
  986TIP3    H224450   0.146   6.809   2.723 -0.1513  1.1162 -0.8269
  987TIP3   OH224451   6.005   6.197  12.591 -0.4175  0.1856 -0.3532
  987TIP3    H124452   5.932   6.253  12.566 -1.8314 -1.9172 -1.2298
  987TIP3    H224453   5.967   6.130  12.648  0.3310 -2.0767 -2.3221
  988TIP3   OH224454   5.016   3.432   0.565 -0.2117 -0.1824 -0.3746
  988TIP3    H124455   4.994   3.475   0.648  0.5511  1.4226 -0.9614
  988TIP3    H224456   5.109   3.411   0.573 -0.3493 -0.8457 -0.4826
  989TIP3   OH224457   1.006   3.914   2.399 -0.5304  0.0718  0.2028
  989TIP3    H124458   0.996   3.848   2.331  0.2209 -1.8914  1.9178
  989TIP3    H224459   0.923   3.911   2.447 -0.9762  1.3008 -0.4425
  990TIP3   OH224460   0.366   0.112  17.000 -0.4788 -0.2263  0.2585
  990TIP3    H124461   0.355   0.039  17.062  0.6683  0.1795  0.9862
  990TIP3    H224462   0.365   0.190  17.055  1.5366  0.0910 -0.0499
  991TIP3   OH224463   2.792   2.525  12.379  0.1945 -0.2034 -0.2156
  991TIP3    H124464   2.769   2.592  12.443  0.3235 -0.7586  0.4164
  991TIP3    H224465   2.816   2.574  12.301  0.3587  0.4876  0.2640
  992TIP3   OH224466   1.657   0.264  11.418 -0.5634  0.1839  0.0618
  992TIP3    H124467   1.635   0.339  11.363  0.6987  0.5152 -0.0180
  992TIP3    H224468   1.691   0.199  11.357 -0.6859 -0.0626  0.2556
  993TIP3   OH224469   5.079   6.786   3.010 -0.5210  0.4803  0.6834
  993TIP3    H124470   5.079   6.780   2.914  0.4351  2.3010  0.5162
  993TIP3    H224471   5.038   6.705   3.039 -1.3024  0.1079 -1.2796
  994TIP3   OH224472   0.589   4.010  12.394 -0.1810  0.8375 -0.5180
  994TIP3    H124473   0.561   4.099  12.376 -1.3454  0.6480  0.2964
  994TIP3    H224474   0.650   4.018  12.468 -0.9681  0.8784  0.1355
  995TIP3   OH224475   5.522   1.285  15.427 -0.3055 -0.2061  0.0098
  995TIP3    H124476   5.498   1.195  15.406  1.3972 -0.4841 -0.9571
  995TIP3    H224477   5.568   1.279  15.511 -2.8856  0.2519  1.5759
  996TIP3   OH224478   6.259   3.046   3.981  0.2059  0.3734  0.3510
  996TIP3    H124479   6.283   2.954   3.988 -1.1822 -0.1323 -1.0403
  996TIP3    H224480   6.164   3.048   3.995  0.4206  1.8390  2.0815
  997TIP3   OH224481   2.595   4.176  13.450 -0.1150 -0.5907 -0.2869
  997TIP3    H124482   2.568   4.255  13.496  0.4328 -0.8216  0.4341
  997TIP3    H224483   2.556   4.185  13.363  0.2675  0.6459 -0.3385
  998TIP3   OH224484   3.048   1.567   0.046  0.1512 -0.1814  0.1326
  998TIP3    H124485   3.116   1.548  -0.018 -1.4726 -1.8925 -1.2248
  998TIP3    H224486   2.966   1.565  -0.005 -0.9977  1.0098  1.8098
  999TIP3   OH224487   5.457   1.401  12.903  0.0522  0.1879  0.6163
  999TIP3    H124488   5.373   1.360  12.921  0.1729 -0.5524 -0.3907
  999TIP3    H224489   5.513   1.329  12.875  0.5866  0.8854 -0.1567
 1000TIP3   OH224490   5.389   6.068  11.198 -0.5149  0.2063  0.2968
 1000TIP3    H124491   5.460   6.092  11.258 -0.7603 -0.5357  0.9107
 1000TIP3    H224492   5.381   5.973  11.208 -0.4328  0.0439 -1.0839
 1001TIP3   OH224493   2.968   3.640  11.750  0.0200  0.1640 -0.2942
 1001TIP3    H124494   2.962   3.653  11.655 -0.3570  0.9772 -0.1620
 1001TIP3    H224495   2.939   3.550  11.763  0.5581 -0.1264 -1.0002
 1002TIP3   OH224496   0.788   4.388  14.944 -0.0737  0.4140  0.4308
 1002TIP3    H124497   0.778   4.452  15.014 -0.1739  1.4236 -0.4792
 1002TIP3    H224498   0.821   4.439  14.870 -2.5271 -0.0316 -1.0899
 1003TIP3   OH224499   4.791   5.430   3.576  0.8450 -0.2237 -0.4931
 1003TIP3    H124500   4.868   5.443   3.519 -0.1548  0.8217 -1.6732
 1003TIP3    H224501   4.716   5.449   3.519 -0.2976 -1.1940  0.6436
 1004TIP3   OH224502   1.185   0.836  14.008  0.7916  0.0364 -0.4939
 1004TIP3    H124503   1.117   0.886  14.054  0.6127 -0.3162 -0.3639
 1004TIP3    H224504   1.216   0.773  14.073 -0.8236 -1.7735 -1.3732
 1005TIP3   OH224505   2.196   5.020  12.280  0.3583  0.2821  0.7307
 1005TIP3    H124506   2.235   5.080  12.343  1.9488  1.0960 -0.9378
 1005TIP3    H224507   2.141   5.076  12.225  3.2033  0.6713 -1.9406
 1006TIP3   OH224508   1.656   0.703   4.643  0.1978 -0.1828  0.2433
 1006TIP3    H124509   1.670   0.666   4.730  0.2431  0.9786  0.7564
 1006TIP3    H224510   1.597   0.777   4.658 -0.3243 -0.3630 -0.8144
 1007TIP3   OH224511   6.177   5.192  15.526 -0.0505  0.5499 -0.0830
 1007TIP3    H124512   6.172   5.107  15.569  0.7058  0.8415  0.6016
 1007TIP3    H224513   6.209   5.171  15.438  0.9276  0.1942  0.3415
 1008TIP3   OH224514   2.407   2.348  13.497  0.2454 -0.1155 -0.3168
 1008TIP3    H124515   2.329   2.326  13.446  0.2494 -3.2616  0.8250
 1008TIP3    H224516   2.462   2.397  13.435 -2.0531  1.1682 -1.5019
 1009TIP3   OH224517   3.620   5.657  16.756  0.4865 -0.1180 -0.0210
 1009TIP3    H124518   3.640   5.693  16.842 -0.0734 -0.8408  0.4191
 1009TIP3    H224519   3.675   5.580  16.748 -0.2210 -0.6573  0.1424
 1010TIP3   OH224520   6.583   4.938   3.403  0.2573  0.3864  0.3028
 1010TIP3    H124521   6.645   4.872   3.431  0.7602  0.3262 -0.8744
 1010TIP3    H224522   6.580   4.929   3.307  0.0113  1.7696  0.1540
 1011TIP3   OH224523   2.001   1.969  16.176 -0.3557  0.5141  0.1100
 1011TIP3    H124524   2.041   2.049  16.142  0.1618  0.6670  1.0520
 1011TIP3    H224525   1.950   1.997  16.251 -0.2834 -0.0185  0.3623
 1012TIP3   OH224526   6.234   2.176   4.158  0.4686  0.2192 -0.1907
 1012TIP3    H124527   6.310   2.217   4.116 -1.1696  3.1266 -0.6504
 1012TIP3    H224528   6.198   2.245   4.214 -2.2959 -0.7025 -0.6601
 1013TIP3   OH224529   0.224   2.076  14.210 -0.0311  0.0741  0.3347
 1013TIP3    H124530   0.215   2.164  14.247 -0.4122 -0.0803  0.6111
 1013TIP3    H224531   0.300   2.039  14.256  0.6881  0.5681 -0.4121
 1014TIP3   OH224532   0.704   2.224   4.821  0.5966  0.2656  0.5326
 1014TIP3    H124533   0.653   2.144   4.810  2.2883 -0.6877 -1.0923
 1014TIP3    H224534   0.794   2.194   4.834  1.1760  1.8929  0.5866
 1015TIP3   OH224535   1.891   5.012   4.029 -0.3023  0.3759 -0.4015
 1015TIP3    H124536   1.892   5.025   4.124 -0.8892  1.2814 -0.5020
 1015TIP3    H224537   1.875   4.919   4.017 -0.8828  0.3688  0.3929
 1016TIP3   OH224538   4.416   3.007  15.605 -0.0461  0.6397 -0.8276
 1016TIP3    H124539   4.421   2.971  15.694 -1.2295 -0.5869 -1.2287
 1016TIP3    H224540   4.381   2.935  15.552  0.1762  1.5135 -2.1961
 1017TIP3   OH224541   3.553   4.864  14.003  0.8363  0.4721  0.3130
 1017TIP3    H124542   3.527   4.951  14.034 -1.8877  0.6685 -2.1104
 1017TIP3    H224543   3.548   4.809  14.081  0.6275  2.0927  1.5072
 1018TIP3   OH224544   4.643   5.016  10.255 -0.4224 -0.3467 -0.2017
 1018TIP3    H124545   4.705   4.968  10.309  1.4064  0.7156 -1.2232
 1018TIP3    H224546   4.586   4.949  10.217 -0.0594 -1.3417  0.9550
 1019TIP3   OH224547   2.934   4.091   4.312 -0.4269 -0.5640 -0.0841
 1019TIP3    H124548   2.852   4.046   4.336 -0.7403 -0.0324 -0.1598
 1019TIP3    H224549   2.999   4.054   4.373 -1.4916  1.8417  2.7412
 1020TIP3   OH224550   2.650   5.332  11.961  0.0178  0.2175 -0.3639
 1020TIP3    H124551   2.576   5.272  11.950 -0.3474  0.6665 -0.3810
 1020TIP3    H224552   2.614   5.419  11.942  0.4302  0.4951  0.0858
 1021TIP3   OH224553   4.992   2.386  12.696  0.2439  0.3203 -0.9190
 1021TIP3    H124554   4.954   2.375  12.783 -0.4631  0.1498 -1.2403
 1021TIP3    H224555   5.002   2.480  12.685 -0.3900  0.3858 -0.9516
 1022TIP3   OH224556   0.001   6.344   0.356 -0.0482 -0.1084 -0.0657
 1022TIP3    H124557  -0.041   6.280   0.299  0.7488 -1.3808  0.7349
 1022TIP3    H224558   0.026   6.295   0.434  1.3227  0.9874  0.2266
 1023TIP3   OH224559   3.449   6.169   0.853  0.1903 -0.3717 -0.6458
 1023TIP3    H124560   3.388   6.191   0.923  1.0054  0.0070 -0.0306
 1023TIP3    H224561   3.510   6.243   0.851 -0.5092  0.1982 -2.5620
 1024TIP3   OH224562   6.168   3.170   0.139  0.0914 -0.2759  0.2538
 1024TIP3    H124563   6.112   3.146   0.065 -1.1719 -1.9194  1.6466
 1024TIP3    H224564   6.218   3.245   0.109  1.1701 -2.1147 -3.0015
 1025TIP3   OH224565   5.208   4.859  15.926 -0.0310  0.1322  0.5316
 1025TIP3    H124566   5.176   4.886  16.012  0.6190  1.0702  0.4940
 1025TIP3    H224567   5.162   4.916  15.864  0.3357  0.2224  0.3423
 1026TIP3   OH224568   6.148   6.188   2.259 -0.1481  0.5307 -0.2790
 1026TIP3    H124569   6.135   6.145   2.174 -0.3979 -0.7776  0.4100
 1026TIP3    H224570   6.060   6.216   2.285 -0.2937 -0.3222  0.1871
 1027TIP3   OH224571   6.531   3.929   2.387 -0.0467  0.5379 -0.0360
 1027TIP3    H124572   6.508   4.009   2.434 -1.2717 -0.4677  1.1653
 1027TIP3    H224573   6.623   3.941   2.364  0.6748  1.0840  2.7115
 1028TIP3   OH224574   0.231   0.108  14.038  0.0871  0.2430  0.6227
 1028TIP3    H124575   0.262   0.098  14.128  0.8548 -0.8992  0.2491
 1028TIP3    H224576   0.311   0.122  13.986 -0.4060  1.7109  0.2008
 1029TIP3   OH224577   3.673   2.729  11.562  0.0325 -0.2268 -0.4604
 1029TIP3    H124578   3.655   2.668  11.490  0.3459 -0.5559 -0.2677
 1029TIP3    H224579   3.602   2.713  11.624 -0.5989  0.5116 -0.9745
 1030TIP3   OH224580   2.555   4.770  11.908  0.0581  0.0481  0.1703
 1030TIP3    H124581   2.575   4.860  11.882  0.4089 -0.0694  0.0147
 1030TIP3    H224582   2.469   4.775  11.948 -0.3561  0.3004 -0.7080
 1031TIP3   OH224583   1.890   5.992  11.907  0.0693  0.1695  0.2792
 1031TIP3    H124584   1.962   5.953  11.857  1.2162  1.2492  1.0026
 1031TIP3    H224585   1.926   6.076  11.937 -1.9861  1.3884 -0.4995
 1032TIP3   OH224586   1.810   3.039  15.908 -0.1841  0.1269 -0.0479
 1032TIP3    H124587   1.885   2.995  15.869  1.0499  0.0075  2.2916
 1032TIP3    H224588   1.837   3.131  15.914 -0.8107  0.3475 -0.4609
 1033TIP3   OH224589   4.540   4.008  10.955  0.0470 -0.3156  0.8728
 1033TIP3    H124590   4.555   3.913  10.959 -1.8939 -0.6297  1.6419
 1033TIP3    H224591   4.457   4.017  10.909  0.1000  1.0136  1.0053
 1034TIP3   OH224592   5.016   4.615  15.353 -0.6156  0.6398 -0.0201
 1034TIP3    H124593   5.001   4.526  15.322 -0.8859  1.2101 -1.6282
 1034TIP3    H224594   4.998   4.670  15.277  0.1926  2.0286  0.7523
 1035TIP3   OH224595   4.349   3.129  10.795 -0.0839  0.4572  0.1445
 1035TIP3    H124596   4.315   3.087  10.716  1.7303  0.1786 -0.5116
 1035TIP3    H224597   4.433   3.165  10.770  1.4564 -1.2887  2.3755
 1036TIP3   OH224598   4.053   1.968  11.861  0.0203  0.6616 -0.3756
 1036TIP3    H124599   4.107   1.894  11.887 -0.1627  1.5848  3.1338
 1036TIP3    H224600   3.986   1.974  11.929 -0.4352  3.5484 -0.9543
 1037TIP3   OH224601   3.744   4.945  14.554  0.2720  0.2697 -0.2177
 1037TIP3    H124602   3.677   4.924  14.488 -0.7999  0.6975  0.6969
 1037TIP3    H224603   3.827   4.937  14.507 -0.5076  2.6763 -2.2599
 1038TIP3   OH224604   4.569   0.274  15.893 -0.4788 -0.0476  0.1382
 1038TIP3    H124605   4.477   0.251  15.885  0.1065 -2.2330 -1.3028
 1038TIP3    H224606   4.609   0.242  15.812  1.5327  0.9426  0.6628
 1039TIP3   OH224607   3.648   3.477   0.311  0.3969 -0.0072  0.4771
 1039TIP3    H124608   3.605   3.424   0.378  0.4128  0.2546  0.6959
 1039TIP3    H224609   3.603   3.454   0.229 -0.9168  1.0623  0.8547
 1040TIP3   OH224610   3.428   1.230   4.031 -0.0989 -0.4333  0.3206
 1040TIP3    H124611   3.400   1.167   3.965 -0.9935  0.1178  0.1695
 1040TIP3    H224612   3.374   1.211   4.108 -0.0228 -0.1689  0.4409
 1041TIP3   OH224613   6.644   0.554  15.837 -0.7227 -0.4030  0.0394
 1041TIP3    H124614   6.674   0.484  15.896 -1.2795 -0.0596  0.7478
 1041TIP3    H224615   6.720   0.612  15.827  0.0688 -1.6007 -1.3514
 1042TIP3   OH224616   1.377   6.503   1.221  0.0425  0.1295  0.5330
 1042TIP3    H124617   1.331   6.587   1.219 -0.1271  0.0394  0.6336
 1042TIP3    H224618   1.469   6.526   1.207 -0.2958  0.0799 -2.1164
 1043TIP3   OH224619   1.014   3.685   6.063 -0.0747  0.6383 -0.4724
 1043TIP3    H124620   1.086   3.625   6.051 -1.0818 -0.9075  0.7805
 1043TIP3    H224621   0.940   3.644   6.018 -0.3163  1.9415 -1.3121
 1044TIP3   OH224622   4.748   5.391   0.810  0.2197  0.0143  0.3199
 1044TIP3    H124623   4.708   5.341   0.882  0.6000 -0.1125  0.4439
 1044TIP3    H224624   4.712   5.479   0.819 -0.6018 -0.2748 -0.0071
 1045TIP3   OH224625   1.248   0.074  14.474  0.0891  0.1953 -0.7097
 1045TIP3    H124626   1.278  -0.011  14.507 -0.3767  0.0452 -0.6665
 1045TIP3    H224627   1.324   0.109  14.427  1.0177  0.7418  1.1012
 1046TIP3   OH224628   3.883   5.218   4.925  0.2081  0.6694  0.3936
 1046TIP3    H124629   3.790   5.204   4.942  0.1419  1.0478  0.3649
 1046TIP3    H224630   3.896   5.187   4.835 -0.0853  1.4302  0.0763
 1047TIP3   OH224631   2.368   4.253  11.152 -0.4128 -1.2961  0.9237
 1047TIP3    H124632   2.307   4.274  11.081  0.5539 -2.9449 -0.4990
 1047TIP3    H224633   2.402   4.337  11.180 -0.2141 -0.6057 -1.1806
 1048TIP3   OH224634   4.107   4.853  13.946 -0.0547 -0.4398 -0.3027
 1048TIP3    H124635   4.014   4.877  13.946  0.0901  0.8453 -4.3024
 1048TIP3    H224636   4.154   4.936  13.957  0.6832 -1.0514  1.4813
 1049TIP3   OH224637   3.148   4.230  16.782  0.5975  0.3862  0.3491
 1049TIP3    H124638   3.118   4.314  16.818 -0.1692 -0.6024  2.1672
 1049TIP3    H224639   3.238   4.221  16.813  0.4271  0.2071  0.8017
 1050TIP3   OH224640   0.589   5.744   4.186  0.2166 -0.6313 -0.1448
 1050TIP3    H124641   0.629   5.823   4.151  0.2297 -1.2119 -1.4922
 1050TIP3    H224642   0.506   5.736   4.138 -0.0011 -1.1775  0.3108
 1051TIP3   OH224643   6.601   3.217   5.109  0.1723  0.6073 -0.1843
 1051TIP3    H124644   6.553   3.262   5.040  0.2888 -1.3420 -1.6158
 1051TIP3    H224645   6.593   3.124   5.088  1.2157  0.0034  1.7787
 1052TIP3   OH224646   4.922   3.698   2.790  0.1879 -0.3957 -0.1722
 1052TIP3    H124647   4.869   3.626   2.756 -1.8257  0.4436  1.0390
 1052TIP3    H224648   5.013   3.667   2.781 -0.5805 -2.8645 -0.1270
 1053TIP3   OH224649   5.279   6.562  14.596 -0.3929  0.2532 -0.4581
 1053TIP3    H124650   5.192   6.523  14.585  0.1954 -0.4920 -3.4911
 1053TIP3    H224651   5.262   6.655  14.605 -1.5415  0.0348 -0.1746
 1054TIP3   OH224652   6.354   1.080  12.781  0.3323  0.2260  0.0313
 1054TIP3    H124653   6.313   1.135  12.848 -0.6529  0.7998 -1.0038
 1054TIP3    H224654   6.353   1.134  12.702 -0.3156 -1.1256 -0.9238
 1055TIP3   OH224655   0.287   3.365  15.792 -0.6451 -0.0332  0.4977
 1055TIP3    H124656   0.294   3.337  15.701  0.2072 -2.0565  1.1251
 1055TIP3    H224657   0.271   3.459  15.787 -0.5397 -0.0771 -1.7267
 1056TIP3   OH224658   5.722   3.169  15.025 -0.3855 -0.1080  0.1040
 1056TIP3    H124659   5.764   3.134  14.947 -0.0117  1.6080 -0.5079
 1056TIP3    H224660   5.633   3.134  15.022 -0.7685  0.9110 -1.7845
 1057TIP3   OH224661   1.037   3.525   1.834  0.2487  0.1121 -0.1639
 1057TIP3    H124662   1.039   3.620   1.825 -0.9019  0.3085  1.3459
 1057TIP3    H224663   0.969   3.508   1.899 -0.6017 -1.8403 -1.4660
 1058TIP3   OH224664   4.855   1.161   5.895  0.2100 -0.4846  0.1860
 1058TIP3    H124665   4.788   1.228   5.907  0.4281  0.1681 -1.9691
 1058TIP3    H224666   4.807   1.078   5.903 -0.7866 -0.0325 -0.7753
 1059TIP3   OH224667   4.634   3.519  14.142  0.0368 -0.3886  0.0461
 1059TIP3    H124668   4.690   3.596  14.131  2.2667 -1.9480 -0.0934
 1059TIP3    H224669   4.611   3.493  14.053 -1.5331  0.5823  0.1085
 1060TIP3   OH224670   6.219   3.797  16.336 -0.1975  0.0476 -0.2994
 1060TIP3    H124671   6.151   3.856  16.369  0.6777  0.7284  0.3343
 1060TIP3    H224672   6.172   3.736  16.278 -1.4215  0.1843  0.5096
 1061TIP3   OH224673   3.856   2.542   5.912  0.1135 -0.6154 -0.0263
 1061TIP3    H124674   3.852   2.589   5.829  1.6581  0.2567  0.3554
 1061TIP3    H224675   3.886   2.454   5.887  1.1599 -0.1846 -0.3617
 1062TIP3   OH224676   3.178   4.576   2.661  0.7575  0.1156 -0.7360
 1062TIP3    H124677   3.117   4.597   2.591  0.8120  0.2943 -0.7313
 1062TIP3    H224678   3.124   4.536   2.729  0.5528  0.7665 -0.5055
 1063TIP3   OH224679   4.131   1.070   3.087 -0.0922 -0.3502 -0.9140
 1063TIP3    H124680   4.225   1.059   3.102 -0.0440 -1.1731 -1.7490
 1063TIP3    H224681   4.107   1.147   3.140  0.7877 -0.8982  0.3361
 1064TIP3   OH224682   4.840   2.142   2.513 -0.1013 -0.0091  0.0189
 1064TIP3    H124683   4.860   2.057   2.551  0.9099 -0.4923 -1.4849
 1064TIP3    H224684   4.913   2.198   2.540 -1.3155  0.7524  1.9417
 1065TIP3   OH224685   5.299   0.806  11.101 -0.0363  0.0985 -0.4723
 1065TIP3    H124686   5.362   0.818  11.173  1.7206  0.4032 -1.9809
 1065TIP3    H224687   5.350   0.767  11.031 -1.5163  0.5244 -1.8426
 1066TIP3   OH224688   0.160   6.220   2.341 -0.0917  0.5026  0.3766
 1066TIP3    H124689   0.223   6.149   2.333  0.0126  0.6021  0.3084
 1066TIP3    H224690   0.087   6.183   2.391 -0.3670  0.1226 -0.2941
 1067TIP3   OH224691   5.898   5.798   3.395  0.4946 -1.1679 -0.1027
 1067TIP3    H124692   5.920   5.883   3.357  1.7123 -1.4056  0.0260
 1067TIP3    H224693   5.962   5.738   3.357  0.0677 -1.8999  0.3220
 1068TIP3   OH224694   3.280   2.273  10.540  0.3925  0.4064 -0.0272
 1068TIP3    H124695   3.354   2.215  10.557 -0.7304 -1.0838 -0.0374
 1068TIP3    H224696   3.234   2.277  10.624  0.2453  0.9787 -0.1350
 1069TIP3   OH224697   0.829   0.814  16.571  0.2010  0.4440  0.0051
 1069TIP3    H124698   0.805   0.887  16.629  1.3135 -0.1886  1.3362
 1069TIP3    H224699   0.925   0.815  16.570  0.2256  0.5438 -2.0329
 1070TIP3   OH224700   0.641   4.703  15.354  1.1423  0.6102  0.2487
 1070TIP3    H124701   0.559   4.698  15.403  0.9506 -0.0370 -0.1212
 1070TIP3    H224702   0.691   4.771  15.398  0.3183  1.1701  0.3459
 1071TIP3   OH224703   6.626   2.591  14.226 -0.3170 -0.2578 -0.7944
 1071TIP3    H124704   6.577   2.651  14.170 -0.9380  0.3440  0.3693
 1071TIP3    H224705   6.716   2.622  14.222 -0.8466  1.7609  0.9822
 1072TIP3   OH224706   5.777   6.359  15.032 -0.7827 -0.3561  0.6600
 1072TIP3    H124707   5.746   6.313  15.110  0.2170  1.8499  2.4585
 1072TIP3    H224708   5.857   6.403  15.060  0.3706 -0.5963 -2.0269
 1073TIP3   OH224709   5.725   5.961   2.227 -0.5560  0.5302 -0.7713
 1073TIP3    H124710   5.648   5.945   2.283 -0.5156  1.0858 -0.5544
 1073TIP3    H224711   5.695   5.939   2.139 -1.0305  0.9371 -0.7169
 1074TIP3   OH224712   2.869   2.946   1.880  0.0898 -0.0822  0.5835
 1074TIP3    H124713   2.789   2.920   1.834 -0.7681  2.2061  0.6248
 1074TIP3    H224714   2.915   3.002   1.817  0.2878  0.8204  1.5069
 1075TIP3   OH224715   1.127   5.938  15.962 -0.0695  0.5745 -0.1984
 1075TIP3    H124716   1.162   5.868  16.018  0.6209  1.2797  0.2580
 1075TIP3    H224717   1.188   6.011  15.972 -1.5566  1.7891  0.5149
 1076TIP3   OH224718   3.348   3.223   6.647 -0.2758  0.7202  0.7209
 1076TIP3    H124719   3.343   3.142   6.697  0.2333  0.5937  0.5773
 1076TIP3    H224720   3.265   3.227   6.599 -0.8871  0.9847  1.7750
 1077TIP3   OH224721   1.189   6.013   2.840  0.2002  1.0150  0.3500
 1077TIP3    H124722   1.235   6.075   2.896 -0.7635  3.0820 -1.0060
 1077TIP3    H224723   1.100   6.047   2.834 -0.8836 -1.5048  0.9170
 1078TIP3   OH224724   0.321   4.732  11.941  0.2276  0.0424 -0.4301
 1078TIP3    H124725   0.302   4.718  12.033  2.4618 -1.6006 -0.1508
 1078TIP3    H224726   0.370   4.814  11.938 -0.1269  0.2632 -0.2076
 1079TIP3   OH224727   1.959   5.418   3.531 -0.6151  0.4169 -0.7241
 1079TIP3    H124728   1.888   5.419   3.595 -0.8443  1.1146 -0.9864
 1079TIP3    H224729   1.969   5.509   3.504 -0.6891  0.1050 -1.8685
 1080TIP3   OH224730   6.128   3.050   5.114 -0.2022  0.6738 -0.4939
 1080TIP3    H124731   6.044   3.021   5.077  0.3437 -0.3114 -1.0038
 1080TIP3    H224732   6.184   2.972   5.111  0.8423  1.3974 -0.4708
 1081TIP3   OH224733   1.583   1.315   5.217 -0.1509 -0.5150 -0.2339
 1081TIP3    H124734   1.624   1.378   5.276 -1.7127 -0.8100  1.2380
 1081TIP3    H224735   1.541   1.368   5.150 -0.0529 -0.0655  0.0574
 1082TIP3   OH224736   1.712   6.281   5.324  0.2333  0.4455 -0.6738
 1082TIP3    H124737   1.732   6.234   5.243  0.7200  0.5459 -0.6158
 1082TIP3    H224738   1.795   6.321   5.349  0.2678 -0.1667  0.2479
 1083TIP3   OH224739   3.357   5.508  15.646  0.0746  0.2039  0.3199
 1083TIP3    H124740   3.402   5.587  15.617 -1.2881  0.2694 -1.7390
 1083TIP3    H224741   3.278   5.539  15.690 -0.4686  0.0105 -0.4999
 1084TIP3   OH224742   6.537   4.291  16.181 -0.0720 -0.5344 -0.1462
 1084TIP3    H124743   6.470   4.225  16.202 -0.1816 -0.5986 -0.6839
 1084TIP3    H224744   6.538   4.294  16.085  0.3709 -0.1994 -0.1324
 1085TIP3   OH224745   2.285   5.822  16.113  0.2812 -0.2456 -0.0855
 1085TIP3    H124746   2.314   5.755  16.051  0.4207  0.3690 -0.6870
 1085TIP3    H224747   2.202   5.788  16.147  1.4446 -1.8266  1.3642
 1086TIP3   OH224748   5.649   2.812   0.074 -0.3231 -0.0574 -0.5121
 1086TIP3    H124749   5.581   2.877   0.095 -0.9875 -0.8356 -0.1935
 1086TIP3    H224750   5.629   2.785  -0.015 -0.9643 -0.8989 -0.1308
 1087TIP3   OH224751   4.121   6.697   0.168  0.1737  0.2096  0.2294
 1087TIP3    H124752   4.059   6.668   0.101 -0.5487 -0.5123  1.1872
 1087TIP3    H224753   4.183   6.625   0.176  0.5418  0.4973  0.0078
 1088TIP3   OH224754   6.276   2.143   1.527 -0.2024  0.0722 -0.6804
 1088TIP3    H124755   6.330   2.074   1.487 -0.6787  0.4889 -2.1075
 1088TIP3    H224756   6.192   2.101   1.544  0.2408 -0.3238  0.6909
 1089TIP3   OH224757   4.536   3.075  10.345  0.2282  0.3048 -0.6799
 1089TIP3    H124758   4.532   3.171  10.347 -0.9595  0.2710 -0.9392
 1089TIP3    H224759   4.625   3.056  10.315 -0.2100  1.3703 -2.8512
 1090TIP3   OH224760   5.178   1.276   4.449 -0.3129  0.7078  0.0973
 1090TIP3    H124761   5.104   1.252   4.505 -2.8039 -0.8755 -3.5605
 1090TIP3    H224762   5.238   1.201   4.455 -0.1556  0.8986  1.1510
 1091TIP3   OH224763   4.257   1.734   3.762 -0.0990 -0.2808 -0.0441
 1091TIP3    H124764   4.337   1.714   3.811  0.1179  1.3074  0.3017
 1091TIP3    H224765   4.186   1.703   3.818  0.2188 -0.4202  0.2832
 1092TIP3   OH224766   5.261   3.891   4.499  0.1236  0.0158 -0.0900
 1092TIP3    H124767   5.349   3.867   4.531  0.2286  0.7180  0.1547
 1092TIP3    H224768   5.276   3.964   4.440 -0.1794 -0.6530 -1.0238
 1093TIP3   OH224769   1.948   3.596  11.107 -0.3843 -0.2999 -0.1904
 1093TIP3    H124770   1.960   3.685  11.074 -1.0943 -0.2475 -0.3066
 1093TIP3    H224771   1.982   3.540  11.036 -0.7594 -0.1486 -0.4891
 1094TIP3   OH224772   5.314   3.256   4.129 -0.9077 -0.0907 -0.1947
 1094TIP3    H124773   5.314   3.304   4.212  2.6937 -1.7988  1.0155
 1094TIP3    H224774   5.341   3.167   4.153 -2.4776 -1.4439 -2.9261
 1095TIP3   OH224775   2.659   2.467  13.417  0.0069  0.6445  0.2651
 1095TIP3    H124776   2.733   2.528  13.424  0.0438  0.4864  1.5258
 1095TIP3    H224777   2.699   2.384  13.389 -0.2010  1.4419 -2.7309
 1096TIP3   OH224778   0.123   6.411  15.067  0.4395  0.1391 -0.3596
 1096TIP3    H124779   0.042   6.418  15.018  1.0913  2.9525 -1.2444
 1096TIP3    H224780   0.192   6.433  15.004  1.8221 -1.1731  0.6085
 1097TIP3   OH224781   4.325   4.632  14.020 -0.6877  0.3602 -0.1082
 1097TIP3    H124782   4.283   4.718  14.026 -1.1732  0.1027  0.2559
 1097TIP3    H224783   4.403   4.639  14.075 -1.0289  0.3937  0.3761
 1098TIP3   OH224784   4.842   4.810   3.280  0.1609  0.0623 -0.4984
 1098TIP3    H124785   4.931   4.803   3.314 -0.1285  2.0299  0.8128
 1098TIP3    H224786   4.788   4.829   3.357 -1.1856  0.2906 -1.4609
 1099TIP3   OH224787   5.428   4.802  11.801 -0.1541  0.1148  0.0373
 1099TIP3    H124788   5.363   4.756  11.853  0.2550  0.7426  1.1214
 1099TIP3    H224789   5.451   4.740  11.731 -2.3958  0.1480 -0.7900
 1100TIP3   OH224790   0.084   1.871  13.459 -0.1382  0.4435  0.1326
 1100TIP3    H124791   0.003   1.923  13.458  1.6827  3.5022  0.3322
 1100TIP3    H224792   0.141   1.914  13.395  2.5705  0.6340  2.4797
 1101TIP3   OH224793   0.406   1.479  12.890 -0.4132  0.8600  0.4214
 1101TIP3    H124794   0.365   1.565  12.887 -1.7811  0.2256 -0.1289
 1101TIP3    H224795   0.383   1.445  12.977 -1.8422  0.1678 -0.1938
 1102TIP3   OH224796   6.428   4.211  11.890  0.2231  0.5546  0.3503
 1102TIP3    H124797   6.389   4.124  11.893  1.0325  0.2006  1.1254
 1102TIP3    H224798   6.468   4.217  11.803  0.5122 -0.0100  0.4394
 1103TIP3   OH224799   4.214   1.541   3.581 -0.6035  0.5054 -0.3181
 1103TIP3    H124800   4.220   1.606   3.651 -0.0628  0.2345 -0.1027
 1103TIP3    H224801   4.229   1.590   3.501 -0.1583  0.6460 -0.1542
 1104TIP3   OH224802   5.590   3.882  14.974  0.0462 -0.0116  0.2946
 1104TIP3    H124803   5.600   3.872  15.069 -1.1799 -1.5397  0.2962
 1104TIP3    H224804   5.540   3.963  14.964 -0.0821 -0.0014  0.9713
 1105TIP3   OH224805   3.292   2.263  13.443 -0.5529  0.4366 -0.3538
 1105TIP3    H124806   3.352   2.228  13.509  0.8576 -1.7175 -2.5906
 1105TIP3    H224807   3.348   2.286  13.370 -2.3117 -1.3099 -2.3992
 1106TIP3   OH224808   1.683   2.873  16.117  0.0086  0.8030  0.0232
 1106TIP3    H124809   1.734   2.811  16.169 -2.0750  0.7045  2.1422
 1106TIP3    H224810   1.734   2.886  16.038  1.9542 -1.3306  0.8144
 1107TIP3   OH224811   4.959   4.998   6.143  0.1795  0.1205  0.0749
 1107TIP3    H124812   5.012   5.054   6.201  0.4373  2.0150 -1.8567
 1107TIP3    H224813   4.869   5.012   6.171  0.4025 -0.1526  0.9525
 1108TIP3   OH224814   3.380   5.153  13.306 -0.4266  0.1427 -0.9755
 1108TIP3    H124815   3.345   5.075  13.262 -0.3931 -0.7928  0.5950
 1108TIP3    H224816   3.475   5.141  13.305 -0.4626 -0.4517  0.2786
 1109TIP3   OH224817   5.771   5.777  13.985  0.1088 -0.2491  0.2971
 1109TIP3    H124818   5.778   5.685  14.009  1.0498 -0.1288  0.5625
 1109TIP3    H224819   5.781   5.779  13.890  0.7999 -0.3762  0.3591
 1110TIP3   OH224820   4.871   4.754   0.461 -0.1336 -0.2991  0.6147
 1110TIP3    H124821   4.910   4.818   0.521  1.0041  0.8713 -1.2812
 1110TIP3    H224822   4.822   4.695   0.518  1.2727  0.4653  2.7386
 1111TIP3   OH224823   4.306   1.827  12.707 -0.4773 -0.4813 -0.0515
 1111TIP3    H124824   4.312   1.826  12.611  1.5449  0.8991  0.0081
 1111TIP3    H224825   4.271   1.913  12.728 -0.6309 -0.6701  0.4744
 1112TIP3   OH224826   2.656   5.063   2.152 -0.2539 -0.4826 -0.3817
 1112TIP3    H124827   2.690   5.141   2.195 -1.8937 -0.6499  1.3232
 1112TIP3    H224828   2.604   5.097   2.079 -1.9005  0.1238  1.0287
 1113TIP3   OH224829   1.283   5.268  15.807  0.5696  0.5801 -0.2124
 1113TIP3    H124830   1.356   5.243  15.751  0.1362 -0.3390 -0.3794
 1113TIP3    H224831   1.276   5.196  15.870  2.3960  2.5118  2.4186
 1114TIP3   OH224832   4.272   5.712  12.019 -0.0742 -0.4057 -0.4923
 1114TIP3    H124833   4.319   5.684  12.097 -0.2387 -1.4362 -0.7466
 1114TIP3    H224834   4.337   5.704  11.948  0.0794  0.5342 -0.4654
 1115TIP3   OH224835   2.728   1.661  15.489  0.3849 -0.7443  0.1815
 1115TIP3    H124836   2.668   1.726  15.452  0.9396  0.1244  0.7556
 1115TIP3    H224837   2.729   1.590  15.425  0.3434  0.1522 -0.8502
 1116TIP3   OH224838   5.277   1.450   5.099  0.3520  0.0307  0.0201
 1116TIP3    H124839   5.320   1.450   5.013 -0.6427 -0.1970 -0.4906
 1116TIP3    H224840   5.332   1.395   5.154 -0.1972 -1.6820 -1.0953
 1117TIP3   OH224841   5.874   2.523   1.124 -0.5631  0.3556  0.2773
 1117TIP3    H124842   5.952   2.467   1.124 -1.1584 -0.4927  0.3668
 1117TIP3    H224843   5.868   2.557   1.213 -0.7150 -0.1833  0.4736
 1118TIP3   OH224844   3.857   3.005   1.322 -0.2424  0.5901  0.2786
 1118TIP3    H124845   3.940   3.031   1.362 -0.4365  1.3514  0.2148
 1118TIP3    H224846   3.790   3.029   1.387 -0.5183  1.3862 -0.2784
 1119TIP3   OH224847   2.893   6.243  14.579 -0.3173 -0.6188 -0.5176
 1119TIP3    H124848   2.964   6.284  14.530  0.5887  1.7740  2.5295
 1119TIP3    H224849   2.937   6.194  14.649 -1.4934  2.3438  2.5219
 1120TIP3   OH224850   0.726   6.835  14.824 -0.4390 -0.5199 -0.2262
 1120TIP3    H124851   0.713   6.788  14.906  0.1281 -1.3537 -0.5984
 1120TIP3    H224852   0.655   6.806  14.767 -0.5711 -0.2879 -0.1807
 1121TIP3   OH224853   5.355   0.426   1.997  0.8983 -0.3643 -0.1606
 1121TIP3    H124854   5.388   0.351   2.046 -1.1180 -0.4483  1.1531
 1121TIP3    H224855   5.416   0.497   2.017  0.6872 -0.6677  1.6619
 1122TIP3   OH224856   2.777   3.641   1.671 -0.0028  0.1570 -1.0481
 1122TIP3    H124857   2.817   3.709   1.726 -1.3550  0.1250  0.0268
 1122TIP3    H224858   2.691   3.675   1.649 -1.3449 -1.7704  0.7918
 1123TIP3   OH224859   5.064   4.874  13.016 -0.5902 -0.3234 -0.8808
 1123TIP3    H124860   5.048   4.906  13.104  0.4546 -0.9714 -0.4455
 1123TIP3    H224861   4.995   4.915  12.963 -0.5960  0.8883  0.0319
 1124TIP3   OH224862   2.295   5.982  14.760 -0.3372 -0.7588 -0.1288
 1124TIP3    H124863   2.248   6.045  14.706 -0.6835  0.4058  1.4535
 1124TIP3    H224864   2.357   5.941  14.700  0.7278  1.9264 -1.0382
 1125TIP3   OH224865   2.063   5.669  14.632  0.4011 -1.0167 -0.2591
 1125TIP3    H124866   2.119   5.595  14.658  0.7733 -0.3292  1.0138
 1125TIP3    H224867   1.979   5.652  14.676  0.1202 -1.2388 -0.8714
 1126TIP3   OH224868   6.206   4.271   6.154  0.5476 -0.4391  0.2326
 1126TIP3    H124869   6.221   4.177   6.153  0.3435 -0.5622  2.6132
 1126TIP3    H224870   6.187   4.291   6.246 -0.9194  1.6884 -0.4511
 1127TIP3   OH224871   2.511   5.456   4.602 -0.2645 -0.2669  0.5895
 1127TIP3    H124872   2.523   5.548   4.580 -0.8471 -0.1627  0.6749
 1127TIP3    H224873   2.541   5.408   4.524  1.2618 -0.0737  1.0394
 1128TIP3   OH224874   6.397   1.904   0.715  0.0127 -0.0066  0.6042
 1128TIP3    H124875   6.479   1.871   0.752 -0.0472  0.8297  1.5010
 1128TIP3    H224876   6.353   1.825   0.682  1.4991 -0.3808 -0.5734
 1129TIP3   OH224877   5.378   2.546   6.036 -0.9063  0.0540 -0.6994
 1129TIP3    H124878   5.423   2.461   6.032  1.8144  1.2029  1.9442
 1129TIP3    H224879   5.306   2.532   6.098 -0.2747 -0.2539 -0.0282
 1130TIP3   OH224880   6.785   5.254   0.390  1.2854 -0.1987  0.6020
 1130TIP3    H124881   6.775   5.169   0.433 -0.9038 -0.3878 -0.1631
 1130TIP3    H224882   6.803   5.315   0.462  0.0471 -0.8828  1.5450
 1131TIP3   OH224883   3.618   1.409   1.260  0.0735  0.1647 -0.3724
 1131TIP3    H124884   3.644   1.416   1.352 -0.8629  1.1998 -0.1607
 1131TIP3    H224885   3.534   1.364   1.263 -0.4334  1.0598 -0.6117
 1132TIP3   OH224886   2.877   3.120  16.357  0.0547 -0.3562  0.1042
 1132TIP3    H124887   2.803   3.097  16.413 -1.0101 -1.2894 -1.5786
 1132TIP3    H224888   2.909   3.203  16.391 -1.6427 -0.0367  1.0069
 1133TIP3   OH224889   2.082   0.355  11.090 -0.1179  0.2762  0.0670
 1133TIP3    H124890   2.058   0.346  10.997  1.3592 -0.6532 -0.2567
 1133TIP3    H224891   2.172   0.324  11.094  0.2969  1.5919  1.6005
 1134TIP3   OH224892   2.356   4.038   2.140 -0.1380 -0.0832 -0.1784
 1134TIP3    H124893   2.268   4.067   2.164  0.1041 -0.8351  1.8315
 1134TIP3    H224894   2.410   4.117   2.149 -0.2430 -0.1117  0.8711
 1135TIP3   OH224895   3.361   3.657   5.117  0.3698  0.3576  0.3731
 1135TIP3    H124896   3.275   3.684   5.151  1.1185 -0.3976  3.1172
 1135TIP3    H224897   3.382   3.577   5.165  1.7827 -0.5724 -1.6645
 1136TIP3   OH224898   4.700   3.002   3.814 -0.2201 -0.0489  0.2762
 1136TIP3    H124899   4.693   3.015   3.719  0.1602  1.0550  0.3959
 1136TIP3    H224900   4.644   2.925   3.831  0.5751 -0.9500 -0.9802
 1137TIP3   OH224901   0.873   2.321  11.665  0.4042  0.7362 -0.0345
 1137TIP3    H124902   0.791   2.280  11.693  1.1208  0.5753  1.9326
 1137TIP3    H224903   0.927   2.248  11.633  1.5750  0.0198  3.2105
 1138TIP3   OH224904   2.027   0.607  15.886 -0.1176 -0.2685  0.3905
 1138TIP3    H124905   2.015   0.539  15.820 -2.0460 -0.5572  0.9734
 1138TIP3    H224906   1.952   0.666  15.874  0.3187  0.5150  1.3536
 1139TIP3   OH224907   1.398   0.598  11.132 -0.1599 -0.6032 -1.0520
 1139TIP3    H124908   1.349   0.610  11.051 -0.2243 -2.3349 -1.3160
 1139TIP3    H224909   1.340   0.545  11.188 -1.5261  3.1991  1.5132
 1140TIP3   OH224910   2.457   1.544   3.765  0.5416  0.0679  0.0629
 1140TIP3    H124911   2.467   1.589   3.681  0.0667 -1.7439 -1.0118
 1140TIP3    H224912   2.488   1.607   3.829  0.5768  1.6530 -1.4275
 1141TIP3   OH224913   6.286   1.515   1.792 -0.0414 -0.1462  0.1445
 1141TIP3    H124914   6.247   1.458   1.725 -0.3032 -1.7449  1.5852
 1141TIP3    H224915   6.220   1.518   1.861  0.3151  1.3169  0.4422
 1142TIP3   OH224916   5.460   0.353  16.880 -0.3513  0.4919  0.0554
 1142TIP3    H124917   5.411   0.281  16.840  0.8625 -0.2706 -0.1191
 1142TIP3    H224918   5.547   0.316  16.897 -0.2429  1.3784  1.6324
 1143TIP3   OH224919   6.673   5.903   3.717  0.2324 -0.7168  0.1631
 1143TIP3    H124920   6.627   5.916   3.634  2.3533  0.4512 -0.8975
 1143TIP3    H224921   6.620   5.950   3.781 -0.6165 -0.3207 -0.7957
 1144TIP3   OH224922   2.252   3.709  14.992  0.4486  0.0680  0.0343
 1144TIP3    H124923   2.251   3.804  15.003  2.2418  0.2272 -0.8100
 1144TIP3    H224924   2.313   3.678  15.059 -0.2434 -0.5276  0.4085
 1145TIP3   OH224925   5.759   4.268   6.463 -0.0087 -0.1648 -0.0673
 1145TIP3    H124926   5.816   4.200   6.497 -1.4950 -0.2097  2.6728
 1145TIP3    H224927   5.805   4.304   6.388  2.7545 -1.3570  0.9414
 1146TIP3   OH224928   4.738   0.553  17.172 -0.9836  0.0629 -0.2919
 1146TIP3    H124929   4.751   0.536  17.265  0.5806 -0.2572 -0.5570
 1146TIP3    H224930   4.647   0.584  17.167 -0.6174  1.6465  1.5429
 1147TIP3   OH224931   0.793   4.942  12.425  0.2636  0.8338  0.2372
 1147TIP3    H124932   0.872   4.929  12.372 -1.4817  0.8097 -2.5696
 1147TIP3    H224933   0.754   4.855  12.432 -1.0633  1.2854 -1.1169
 1148TIP3   OH224934   4.445   6.246  13.392  0.4883 -0.3409 -0.0013
 1148TIP3    H124935   4.425   6.158  13.424  2.0765 -0.9451 -0.5942
 1148TIP3    H224936   4.387   6.257  13.317 -0.9617 -0.1704  1.0975
 1149TIP3   OH224937   5.096   1.206   3.730  0.0654 -0.0450 -0.0923
 1149TIP3    H124938   5.133   1.278   3.782 -0.6150  0.6900 -0.5904
 1149TIP3    H224939   5.039   1.160   3.791 -0.1310  0.3470  0.0292
 1150TIP3   OH224940   5.727   5.229  16.180 -0.2886 -0.0828 -0.2400
 1150TIP3    H124941   5.697   5.142  16.154 -1.5765  0.6885 -1.5570
 1150TIP3    H224942   5.821   5.218  16.198 -0.1388 -1.4844 -1.6295
 1151TIP3   OH224943   1.376   6.703   3.697 -0.1501  0.0232  0.1092
 1151TIP3    H124944   1.462   6.741   3.675 -0.4655 -0.3681 -2.0010
 1151TIP3    H224945   1.388   6.609   3.684 -1.5055  0.1407 -2.8470
 1152TIP3   OH224946   4.246   6.168  13.668  0.6238 -0.4180  0.3085
 1152TIP3    H124947   4.282   6.228  13.733 -0.1433  0.7628 -0.3289
 1152TIP3    H224948   4.307   6.094  13.668  2.0231  0.6953  0.5551
 1153TIP3   OH224949   1.416   3.635  12.953  0.2379 -0.1502  0.3812
 1153TIP3    H124950   1.436   3.725  12.925  0.4620 -0.7396 -1.4036
 1153TIP3    H224951   1.501   3.593  12.962  0.0683 -0.9134 -1.3144
 1154TIP3   OH224952   0.231   0.578  14.521  0.3114  0.2484  0.3130
 1154TIP3    H124953   0.223   0.497  14.471  0.1412  0.2287  0.3723
 1154TIP3    H224954   0.142   0.600  14.547  0.2723  0.8241 -0.2791
 1155TIP3   OH224955   1.731   6.274  11.774  0.2032 -0.2006  0.0106
 1155TIP3    H124956   1.657   6.230  11.817 -1.2140  0.9333 -1.1727
 1155TIP3    H224957   1.717   6.367  11.792  0.8945  0.0961 -0.9065
 1156TIP3   OH224958   4.490   1.343  17.084 -0.2929 -0.5574  0.0710
 1156TIP3    H124959   4.429   1.289  17.034  1.4755 -2.8086  0.2011
 1156TIP3    H224960   4.486   1.429  17.042 -1.1024 -1.5476 -2.0026
 1157TIP3   OH224961   6.120   2.445   2.747 -0.0332  0.4886 -0.1459
 1157TIP3    H124962   6.121   2.518   2.685 -0.3402  3.2842  2.8514
 1157TIP3    H224963   6.212   2.424   2.761  0.0362 -0.3456 -1.6198
 1158TIP3   OH224964   2.098   5.410   1.236  0.5054  0.3895 -0.3207
 1158TIP3    H124965   2.040   5.485   1.228  0.9609  0.6346 -1.6221
 1158TIP3    H224966   2.081   5.357   1.158  0.1794 -0.8858  0.5837
 1159TIP3   OH224967   2.208   6.298  16.118  0.2240 -0.5580  0.3079
 1159TIP3    H124968   2.297   6.277  16.145  0.2419  0.7357  1.3844
 1159TIP3    H224969   2.218   6.371  16.057 -0.0011 -1.7360 -1.2085
 1160TIP3   OH224970   5.236   1.269  10.239  0.3936  0.3674 -0.1726
 1160TIP3    H124971   5.282   1.333  10.185 -0.7341 -0.4165 -2.1951
 1160TIP3    H224972   5.292   1.191  10.235 -0.3287 -0.1181 -1.4037
 1161TIP3   OH224973   0.578   0.679   1.003 -0.5905  0.0445 -0.0901
 1161TIP3    H124974   0.639   0.647   1.070  1.0832  0.6260 -1.2497
 1161TIP3    H224975   0.524   0.744   1.049 -2.1001 -2.2312  1.5701
 1162TIP3   OH224976   6.513   0.853   5.397  0.4248  0.0476 -0.3854
 1162TIP3    H124977   6.463   0.905   5.334 -1.3827 -1.2133 -0.0821
 1162TIP3    H224978   6.583   0.814   5.346 -0.7920 -0.6599 -1.5919
 1163TIP3   OH224979   3.609   2.743  15.920  0.0734 -0.1715 -0.2179
 1163TIP3    H124980   3.631   2.805  15.850  1.6498 -0.5112 -0.0612
 1163TIP3    H224981   3.514   2.750  15.929  0.2315  2.4353  0.0083
 1164TIP3   OH224982   3.788   0.778   6.037  0.3601 -0.1502  0.0712
 1164TIP3    H124983   3.826   0.865   6.051  1.4461 -0.8603  1.9515
 1164TIP3    H224984   3.864   0.721   6.023 -0.2403 -1.0364  0.3300
 1165TIP3   OH224985   0.810   3.869  12.624  0.5226 -0.4193  0.2336
 1165TIP3    H124986   0.736   3.826  12.665 -0.1462 -0.2303 -0.7504
 1165TIP3    H224987   0.782   3.960  12.613  2.1009  0.4812  2.7655
 1166TIP3   OH224988   3.489   1.667   0.213 -0.0729 -0.0196  0.0610
 1166TIP3    H124989   3.433   1.691   0.287 -0.6968  1.3338 -0.8227
 1166TIP3    H224990   3.451   1.585   0.180  0.6027 -0.9979  1.5999
 1167TIP3   OH224991   0.099   2.685   3.372  0.2395  0.4510 -0.0017
 1167TIP3    H124992   0.074   2.777   3.374 -0.6209  0.2517 -0.7082
 1167TIP3    H224993   0.072   2.651   3.458 -1.6402  0.3428 -0.5835
 1168TIP3   OH224994   4.064   5.589  14.321  0.2794 -0.1255  0.1502
 1168TIP3    H124995   4.112   5.635  14.253  0.8017 -0.0369  0.5775
 1168TIP3    H224996   4.118   5.513  14.342 -0.6152 -1.0234 -0.6140
 1169TIP3   OH224997   4.371   4.671   1.970 -0.1779  0.3018 -0.3121
 1169TIP3    H124998   4.350   4.748   1.918 -0.8168 -0.0733 -0.6090
 1169TIP3    H224999   4.380   4.600   1.906  1.4071  0.3192 -0.1505
 1170TIP3   OH225000   2.416   5.569   5.416 -0.4746  0.5529 -0.6270
 1170TIP3    H125001   2.387   5.500   5.477  0.0885  0.8659  0.0041
 1170TIP3    H225002   2.480   5.526   5.359 -1.4513  0.1019 -1.4103
 1171TIP3   OH225003   0.036   2.971   5.125  0.1648  0.0259  0.0205
 1171TIP3    H125004   0.051   2.974   5.220  2.1653 -0.1367 -0.2504
 1171TIP3    H225005  -0.053   2.935   5.116 -0.2586  0.5030  1.8223
 1172TIP3   OH225006   4.366   6.564  15.454  0.1256 -0.3426  0.5409
 1172TIP3    H125007   4.445   6.609  15.423  1.1586 -1.8213  0.9530
 1172TIP3    H225008   4.368   6.574  15.549  1.2190 -2.5177  0.8000
 1173TIP3   OH225009   3.410   0.015   5.260 -0.0354 -0.8615 -0.2335
 1173TIP3    H125010   3.372   0.052   5.339 -2.0062  1.2630 -2.0043
 1173TIP3    H225011   3.499   0.048   5.257 -0.4272  0.2787  0.3537
 1174TIP3   OH225012   2.572   0.773   3.290 -0.5626 -0.2690  0.2286
 1174TIP3    H125013   2.563   0.681   3.266  0.1822 -0.8413  1.9499
 1174TIP3    H225014   2.581   0.773   3.385 -1.6878  1.6970  0.3964
 1175TIP3   OH225015   5.763   5.977   5.105  0.4485  0.9548  0.1326
 1175TIP3    H125016   5.692   6.009   5.051 -0.1090  4.1727  2.4734
 1175TIP3    H225017   5.840   5.981   5.048 -0.7219  0.1314 -1.5925
 1176TIP3   OH225018   4.853   3.598  11.065 -0.5496 -0.2189  0.2216
 1176TIP3    H125019   4.892   3.538  11.128 -0.4534  1.2019  1.5732
 1176TIP3    H225020   4.920   3.664  11.049 -1.8000  1.4783  1.5185
 1177TIP3   OH225021   1.354   5.221   2.422  0.6416 -0.3691  0.6278
 1177TIP3    H125022   1.387   5.172   2.497 -0.2438 -2.6217 -0.3820
 1177TIP3    H225023   1.412   5.196   2.350 -0.0385 -0.2214  0.0167
 1178TIP3   OH225024   4.500   1.929  16.323 -0.1541 -0.2925  0.2543
 1178TIP3    H125025   4.411   1.895  16.320 -0.2935  0.1426 -1.3015
 1178TIP3    H225026   4.512   1.958  16.414 -1.3185 -1.0441  0.6610
 1179TIP3   OH225027   3.995   1.158   3.326 -0.4029  0.3133 -0.0814
 1179TIP3    H125028   4.009   1.230   3.387  1.8423  0.9206 -1.2150
 1179TIP3    H225029   3.953   1.198   3.250  0.5356  0.3895 -0.5738
 1180TIP3   OH225030   5.285   6.194  15.748 -0.2088  0.0374 -0.2737
 1180TIP3    H125031   5.229   6.119  15.729  0.4948 -0.3614 -0.8393
 1180TIP3    H225032   5.269   6.255  15.676  1.2549 -0.7788 -1.3639
 1181TIP3   OH225033   2.396   5.581   1.166  0.1109  0.0866 -0.1923
 1181TIP3    H125034   2.464   5.639   1.201 -0.3251  0.0404  0.7600
 1181TIP3    H225035   2.388   5.512   1.231 -0.4308 -0.2306 -0.5904
 1182TIP3   OH225036   5.837   1.113   4.989  0.3643  0.0065  0.0482
 1182TIP3    H125037   5.824   1.174   5.062 -0.5251  1.2577 -1.1021
 1182TIP3    H225038   5.929   1.088   4.994  1.6731  3.9275 -1.2325
 1183TIP3   OH225039   5.272   6.520   4.955  0.0037 -0.3159  0.2250
 1183TIP3    H125040   5.286   6.598   4.900  0.3304 -0.9782 -0.6555
 1183TIP3    H225041   5.177   6.509   4.958 -0.0166 -0.2765 -0.2195
 1184TIP3   OH225042   1.748   1.482   4.122 -0.0859  0.5842  0.7313
 1184TIP3    H125043   1.800   1.561   4.130  0.5802  0.4530 -1.5587
 1184TIP3    H225044   1.802   1.423   4.069 -1.7749 -0.2460 -0.1497
 1185TIP3   OH225045   0.063   2.327   2.539 -0.2182 -0.5041 -0.4086
 1185TIP3    H125046   0.140   2.291   2.494  0.0788  0.6921 -0.9094
 1185TIP3    H225047   0.069   2.422   2.523 -0.6653 -0.1561  1.3108
 1186TIP3   OH225048   5.181   0.829   2.157  0.2080 -0.3997 -0.0033
 1186TIP3    H125049   5.206   0.791   2.241 -1.7015  0.3283  0.9502
 1186TIP3    H225050   5.086   0.820   2.153  0.1163  0.7706 -1.4925
 1187TIP3   OH225051   4.220   2.928   4.321 -0.5285 -0.3781  0.3270
 1187TIP3    H125052   4.257   3.013   4.294 -1.3417 -0.9202 -2.8628
 1187TIP3    H225053   4.265   2.908   4.403  1.0383  2.2719  0.2425
 1188TIP3   OH225054   6.139   1.500  13.706 -0.1042 -0.6735  0.5280
 1188TIP3    H125055   6.103   1.584  13.735  0.3442 -0.8690  1.7139
 1188TIP3    H225056   6.217   1.487  13.760  1.4643 -0.5415 -1.5586
 1189TIP3   OH225057   2.549   4.962   5.945 -0.7189  0.2479 -0.2823
 1189TIP3    H125058   2.570   4.991   6.033  1.3434 -0.7830 -0.3616
 1189TIP3    H225059   2.571   5.036   5.888 -1.4544  0.6907  0.0047
 1190TIP3   OH225060   4.805   0.338  17.039 -0.6316 -0.0148 -0.4382
 1190TIP3    H125061   4.798   0.425  17.081 -0.0889 -0.5827  0.8932
 1190TIP3    H225062   4.849   0.284  17.104 -1.9188 -1.5938 -0.8041
 1191TIP3   OH225063   1.270   4.470  13.671 -0.3572  0.3023  0.0032
 1191TIP3    H125064   1.331   4.544  13.677  0.3051 -0.2164 -0.2206
 1191TIP3    H225065   1.280   4.425  13.755 -1.2994  0.8624  0.4375
 1192TIP3   OH225066   6.100   3.293  12.816  0.5341  0.1365 -0.0454
 1192TIP3    H125067   6.047   3.214  12.811 -0.0518  0.3275  2.2546
 1192TIP3    H225068   6.062   3.344  12.887  1.3907  2.1353 -0.9425
 1193TIP3   OH225069   0.497   2.887   6.017 -0.3699 -0.3928  0.2321
 1193TIP3    H125070   0.513   2.817   6.081 -0.5467  0.0502  0.7653
 1193TIP3    H225071   0.409   2.918   6.037 -0.4395 -0.2697 -0.2514
 1194TIP3   OH225072   0.891   2.976  16.266  0.6494 -0.2308  0.5843
 1194TIP3    H125073   0.951   3.005  16.197  1.7380 -1.2506  1.0595
 1194TIP3    H225074   0.849   2.898  16.229  0.4346 -0.1584  0.6736
 1195TIP3   OH225075   1.275   1.385   5.306 -0.3659 -0.0718 -0.2558
 1195TIP3    H125076   1.306   1.410   5.393 -0.0898 -0.1991 -0.3178
 1195TIP3    H225077   1.328   1.437   5.246  1.1038 -1.7299 -0.4382
 1196TIP3   OH225078   5.122   3.699  10.947  0.0323 -0.0160  0.1814
 1196TIP3    H125079   5.170   3.683  11.028 -0.9645 -1.6063  0.5186
 1196TIP3    H225080   5.105   3.611  10.912 -3.2935  0.3484  0.5444
 1197TIP3   OH225081   2.299   5.734   2.001 -0.2339  0.4602 -0.8411
 1197TIP3    H125082   2.237   5.664   2.020 -0.3958  0.9959  0.7690
 1197TIP3    H225083   2.289   5.750   1.907 -1.3595 -0.5619 -0.9196
 1198TIP3   OH225084   1.263   5.549   6.204 -0.1047  0.0712  0.5978
 1198TIP3    H125085   1.269   5.455   6.189 -1.7249  0.1509 -0.8864
 1198TIP3    H225086   1.290   5.588   6.121  0.5857  0.9425  1.2062
 1199TIP3   OH225087   2.303   5.758   1.410  0.8127  0.2970 -0.6290
 1199TIP3    H125088   2.325   5.705   1.333  2.0628 -0.1912  0.0477
 1199TIP3    H225089   2.213   5.733   1.431  1.7245 -2.4785  0.3517
 1200TIP3   OH225090   0.574   3.599   0.702 -0.3408 -0.1837  0.2015
 1200TIP3    H125091   0.594   3.649   0.623  0.7005 -0.9976 -0.0731
 1200TIP3    H225092   0.654   3.602   0.754 -0.0506 -2.0104 -0.0785
 1201TIP3   OH225093   0.252   2.823   4.847  0.3172 -0.4307 -0.0165
 1201TIP3    H125094   0.204   2.891   4.801  0.9127  1.8998  2.4902
 1201TIP3    H225095   0.341   2.828   4.812  1.0889  2.1855  1.9780
 1202TIP3   OH225096   0.259   6.455   2.515 -0.3650 -0.2092 -0.0479
 1202TIP3    H125097   0.320   6.411   2.456 -0.2917  0.3219 -0.3711
 1202TIP3    H225098   0.198   6.502   2.457 -0.2079  0.4267  0.2939
 1203TIP3   OH225099   0.720   3.814   1.333 -0.4881 -0.5218 -0.1165
 1203TIP3    H125100   0.705   3.738   1.278  1.9911 -0.0176 -1.6575
 1203TIP3    H225101   0.635   3.857   1.339 -1.3850 -2.0437 -1.3069
 1204TIP3   OH225102   6.028   0.641  13.267  0.2126  0.3821  0.2139
 1204TIP3    H125103   6.123   0.632  13.257  0.5669  3.4957 -0.2484
 1204TIP3    H225104   5.993   0.620  13.180  0.6509  0.6599 -0.0393
 1205TIP3   OH225105   0.118   3.661   3.750 -0.2444  0.1568  0.1826
 1205TIP3    H125106   0.137   3.598   3.680 -0.0336 -1.2110  1.4289
 1205TIP3    H225107   0.147   3.746   3.715  2.3660 -0.8867 -0.4000
 1206TIP3   OH225108   3.439   3.042  14.962  0.1501 -0.0716  0.7957
 1206TIP3    H125109   3.473   3.024  15.050  0.7024 -0.2870  0.5434
 1206TIP3    H225110   3.452   2.959  14.915  1.7424  0.6363 -0.0807
 1207TIP3   OH225111   1.680   4.505  12.404  0.8001 -0.5360 -0.0413
 1207TIP3    H125112   1.607   4.453  12.439 -0.6036  0.9166 -0.6865
 1207TIP3    H225113   1.673   4.495  12.309  1.1235  0.0223 -0.1265
 1208TIP3   OH225114   0.671   1.036   1.689 -0.1933 -0.0152 -0.1248
 1208TIP3    H125115   0.677   1.024   1.783  1.1885 -1.3146 -0.3339
 1208TIP3    H225116   0.672   0.947   1.653 -1.5918  0.4204 -1.3338
 1209TIP3   OH225117   4.167   2.716   6.435  0.1270 -0.4813  0.4143
 1209TIP3    H125118   4.164   2.627   6.398 -2.3858 -0.3058  0.0025
 1209TIP3    H225119   4.163   2.773   6.358 -1.6005 -0.0924  0.7440
 1210TIP3   OH225120   4.686   1.508  12.364 -0.6697 -0.0571  0.0422
 1210TIP3    H125121   4.665   1.580  12.304  2.1711  3.3473  2.7142
 1210TIP3    H225122   4.614   1.507  12.426 -0.4050  1.0632  0.3978
 1211TIP3   OH225123   6.090   5.482  12.053  0.1781  0.2894 -0.2285
 1211TIP3    H125124   6.150   5.423  12.006  1.2811 -0.7823  2.2891
 1211TIP3    H225125   6.015   5.427  12.075 -0.6488  0.9695 -1.2756
 1212TIP3   OH225126   6.484   6.516  11.830 -0.0952 -0.1506 -0.1834
 1212TIP3    H125127   6.543   6.442  11.844  0.5855  0.3286 -0.4366
 1212TIP3    H225128   6.401   6.489  11.870  0.8856 -0.0248  2.0969
 1213TIP3   OH225129   0.435   5.640   0.984 -0.0474  0.5000  0.4819
 1213TIP3    H125130   0.500   5.599   1.042 -0.2689 -2.0161 -0.8885
 1213TIP3    H225131   0.364   5.576   0.979  0.3379  0.1097 -3.1608
 1214TIP3   OH225132   6.485   6.785  16.588  0.3703  0.0125 -0.7098
 1214TIP3    H125133   6.445   6.865  16.553  1.1252  0.5930 -0.2814
 1214TIP3    H225134   6.578   6.793  16.564  0.6647 -0.1674  0.3468
 1215TIP3   OH225135   3.385   5.551  12.623 -0.6859  0.1210  0.2239
 1215TIP3    H125136   3.291   5.532  12.621 -0.9460  1.1672  1.3227
 1215TIP3    H225137   3.395   5.631  12.571  0.0875 -1.6087 -2.5100
 1216TIP3   OH225138   4.736   2.085   5.104  0.5427 -0.2509 -0.5391
 1216TIP3    H125139   4.666   2.019   5.100  1.2873 -1.1078  0.1131
 1216TIP3    H225140   4.741   2.108   5.197  0.9692 -0.0219 -0.6184
 1217TIP3   OH225141   6.315   4.682  14.805  0.6032  0.2477  0.0310
 1217TIP3    H125142   6.288   4.680  14.897 -0.8052  0.6428 -0.3447
 1217TIP3    H225143   6.371   4.759  14.799 -0.2127  0.8873  0.3478
 1218TIP3   OH225144   0.557   4.255   0.377  0.3264  0.4215 -0.3094
 1218TIP3    H125145   0.544   4.336   0.326 -0.5390 -0.8113 -2.1606
 1218TIP3    H225146   0.604   4.197   0.317  0.1619 -0.7472  0.6686
 1219TIP3   OH225147   2.927   4.155  17.149 -0.0872  0.2045  0.4353
 1219TIP3    H125148   2.852   4.099  17.170  1.4472 -1.5751  1.5919
 1219TIP3    H225149   2.956   4.125  17.063 -0.2412  0.3197  0.3446
 1220TIP3   OH225150   4.876   3.193   1.262 -0.6292 -0.1142 -0.4276
 1220TIP3    H125151   4.946   3.235   1.211 -0.7526  0.8111  0.1372
 1220TIP3    H225152   4.890   3.100   1.249  2.3241 -0.1097  1.6635
 1221TIP3   OH225153   4.550   1.514  14.513 -0.7200  0.3818 -0.0095
 1221TIP3    H125154   4.528   1.569  14.438 -1.0011 -0.1682 -0.3361
 1221TIP3    H225155   4.612   1.567  14.564 -0.7339  0.8660 -0.4825
 1222TIP3   OH225156   6.778   3.937  11.257  0.0971  0.0086  0.2263
 1222TIP3    H125157   6.840   3.988  11.309  1.0542  0.0101 -0.8760
 1222TIP3    H225158   6.788   3.847  11.289  1.6552 -0.2279 -0.8007
 1223TIP3   OH225159   2.371   5.640   3.594  0.4663 -0.1189 -0.5467
 1223TIP3    H125160   2.424   5.629   3.516  0.1217  0.1002 -0.8162
 1223TIP3    H225161   2.288   5.675   3.562  0.3645  0.0888 -0.0734
 1224TIP3   OH225162   5.889   2.266  16.001  0.1000  0.1271 -0.0231
 1224TIP3    H125163   5.921   2.233  15.917  0.5978 -0.9893  0.5993
 1224TIP3    H225164   5.798   2.237  16.005  0.1377  0.0017 -0.0805
 1225TIP3   OH225165   1.502   3.248   3.079  0.0470  0.7763 -0.2785
 1225TIP3    H125166   1.432   3.286   3.131 -1.6046 -1.0808 -1.0211
 1225TIP3    H225167   1.462   3.171   3.037  2.2959  0.1311 -1.4011
 1226TIP3   OH225168   4.089   5.480  14.817  0.0513 -0.0855  0.7061
 1226TIP3    H125169   4.094   5.522  14.731  0.5116 -0.7901  0.3873
 1226TIP3    H225170   4.005   5.434  14.816  1.2406 -2.3686 -0.4370
 1227TIP3   OH225171   3.460   6.174  11.760 -0.7502  0.4506 -0.2422
 1227TIP3    H125172   3.550   6.152  11.783 -1.2778 -2.6151 -0.6206
 1227TIP3    H225173   3.413   6.171  11.843 -0.8458 -0.0489 -0.3118
 1228TIP3   OH225174   2.653   6.119   0.619  0.6713  0.0096 -0.6269
 1228TIP3    H125175   2.617   6.031   0.628  0.8982 -0.1267 -1.0336
 1228TIP3    H225176   2.731   6.119   0.675 -0.8647  0.8448  1.6793
 1229TIP3   OH225177   5.028   4.984  14.737  0.1280 -0.8280 -0.2857
 1229TIP3    H125178   4.936   5.006  14.722  0.0930 -1.4095 -0.9536
 1229TIP3    H225179   5.033   4.889  14.727  0.6562 -0.8999  0.5573
 1230TIP3   OH225180   0.423   4.365  15.952 -0.1893 -0.0307 -0.5565
 1230TIP3    H125181   0.356   4.331  16.011  0.9589  1.3859  1.7439
 1230TIP3    H225182   0.438   4.295  15.889 -1.4757 -1.6855  0.8754
 1231TIP3   OH225183   0.220   4.246   0.176 -0.1134 -0.0959 -0.4331
 1231TIP3    H125184   0.248   4.287   0.095  0.3441 -1.5212 -1.0278
 1231TIP3    H225185   0.199   4.155   0.152  0.8550 -0.8022  1.1817
 1232TIP3   OH225186   3.609   5.232   4.919  0.1088  0.7745 -0.1858
 1232TIP3    H125187   3.541   5.252   4.855 -0.3434 -0.5132 -0.1257
 1232TIP3    H225188   3.562   5.222   5.002  0.2642 -0.8372 -0.2755
 1233TIP3   OH225189   2.103   6.048  11.692 -0.3563 -0.2072 -0.2846
 1233TIP3    H125190   2.125   6.012  11.606 -1.2103 -1.2695 -0.0852
 1233TIP3    H225191   2.149   5.992  11.755  1.3898  1.4110 -0.0602
 1234TIP3   OH225192   3.165   3.413  12.348  0.8510 -0.2447 -0.2369
 1234TIP3    H125193   3.247   3.463  12.354 -0.5313  2.3330 -1.5685
 1234TIP3    H225194   3.142   3.416  12.255 -2.3879  1.9384  0.5142
 1235TIP3   OH225195   2.700   1.700  16.109  0.1564  0.4133  0.1099
 1235TIP3    H125196   2.709   1.738  16.022 -1.5367 -0.9862 -0.7400
 1235TIP3    H225197   2.613   1.728  16.138  0.3896  0.2203  1.0276
 1236TIP3   OH225198   2.166   4.901   2.022 -0.0578 -0.3167 -0.1744
 1236TIP3    H125199   2.105   4.830   2.005  1.0427 -1.7874  1.6163
 1236TIP3    H225200   2.111   4.979   2.032 -1.4435 -1.2453 -0.4249
 1237TIP3   OH225201   6.432   0.596   1.075  0.0415  0.2754 -0.3086
 1237TIP3    H125202   6.498   0.613   1.008 -1.1514  0.4528 -1.4744
 1237TIP3    H225203   6.401   0.683   1.100  0.2214  0.1902  0.2395
 1238TIP3   OH225204   6.212   6.154   5.117  0.5490  0.2000 -0.1869
 1238TIP3    H125205   6.291   6.120   5.074  0.7622 -0.1429  0.4530
 1238TIP3    H225206   6.140   6.132   5.058  0.7948 -0.5690 -0.2101
 1239TIP3   OH225207   3.279   1.489  16.295 -0.7059  0.1919 -0.7244
 1239TIP3    H125208   3.291   1.394  16.291 -0.1257  0.1202  1.4809
 1239TIP3    H225209   3.342   1.518  16.362 -0.4842  2.2100 -1.7379
 1240TIP3   OH225210   1.637   3.179  13.714 -0.5271  0.1973 -0.1492
 1240TIP3    H125211   1.670   3.267  13.729 -0.3106  0.1699 -0.4453
 1240TIP3    H225212   1.659   3.160  13.622 -2.0092  0.4537 -0.5847
 1241TIP3   OH225213   1.043   1.895  13.738  0.0933 -0.6669  0.0949
 1241TIP3    H125214   1.124   1.862  13.777  0.5802  1.8072  1.4038
 1241TIP3    H225215   0.973   1.847  13.782  0.7718 -1.2456  0.5579
 1242TIP3   OH225216   5.658   1.829  14.788  0.2521 -0.9401 -0.3376
 1242TIP3    H125217   5.707   1.789  14.717  1.5893 -0.3688  0.2314
 1242TIP3    H225218   5.644   1.920  14.760  2.1384 -0.2592  0.7214
 1243TIP3   OH225219   1.277   4.446  15.391  0.3013  0.3073  0.1865
 1243TIP3    H125220   1.236   4.397  15.462  0.1180  2.0079  1.3120
 1243TIP3    H225221   1.341   4.502  15.435  0.4612  1.1116 -1.0294
 1244TIP3   OH225222   4.912   5.774   6.118 -0.0011 -0.7497  0.1980
 1244TIP3    H125223   4.892   5.820   6.200  0.7439  0.7336 -0.4181
 1244TIP3    H225224   4.843   5.801   6.058 -0.8960 -2.3160  0.4631
 1245TIP3   OH225225   5.485   5.422  15.270 -0.4992  0.0027  0.1469
 1245TIP3    H125226   5.481   5.505  15.222 -2.1767 -0.5343 -0.7260
 1245TIP3    H225227   5.419   5.431  15.339  1.4367  0.5137  2.0092
 1246TIP3   OH225228   0.847   1.712  16.100 -0.1623  0.3518  0.0553
 1246TIP3    H125229   0.872   1.619  16.102  2.0252  0.9036  1.1715
 1246TIP3    H225230   0.805   1.723  16.014  0.7129 -1.3856 -0.6531
 1247TIP3   OH225231   0.354   0.001  14.839 -0.0017 -0.1464 -0.1617
 1247TIP3    H125232   0.389   0.078  14.793  0.0155  0.8734  1.4653
 1247TIP3    H225233   0.371   0.019  14.932 -0.3440 -1.9587  0.2926
 1248TIP3   OH225234   5.678   3.360  12.327  0.3680  0.9106  0.2029
 1248TIP3    H125235   5.583   3.348  12.329  0.5954 -1.1515  1.8811
 1248TIP3    H225236   5.696   3.424  12.396  0.1746  1.7076 -0.4753
 1249TIP3   OH225237   1.814   3.429  15.440  0.1667 -0.0063  0.1561
 1249TIP3    H125238   1.899   3.471  15.431  0.8901 -1.1771  1.2375
 1249TIP3    H225239   1.817   3.355  15.379  0.2385 -0.4978  0.7399
 1250TIP3   OH225240   0.145   4.264  11.879  0.3076 -0.1957  0.3522
 1250TIP3    H125241   0.094   4.331  11.924  1.1167  1.1305 -0.6442
 1250TIP3    H225242   0.236   4.289  11.894  0.6241 -1.0365 -0.1012
 1251TIP3   OH225243   0.852   2.416   3.853  0.7271 -0.3658 -0.3787
 1251TIP3    H125244   0.878   2.446   3.766  0.8222 -1.5865 -0.7920
 1251TIP3    H225245   0.760   2.441   3.860  1.0919  1.0244 -0.2353
 1252TIP3   OH225246   2.805   3.196  17.064  0.0178  0.3023 -0.2406
 1252TIP3    H125247   2.795   3.280  17.020  2.0819  0.1432 -1.1095
 1252TIP3    H225248   2.899   3.178  17.062  0.1394 -0.1819  3.4532
 1253TIP3   OH225249   1.947   0.145   1.029  0.3769 -0.3111  0.5730
 1253TIP3    H125250   1.946   0.191   1.113  1.5395 -0.2147  0.5482
 1253TIP3    H225251   1.921   0.212   0.965  1.7256  0.2377  0.5813
 1254TIP3   OH225252   3.674   2.849  12.851  0.0453 -0.2842  0.0080
 1254TIP3    H125253   3.604   2.884  12.796  1.0443  0.4171 -0.8746
 1254TIP3    H225254   3.731   2.925  12.868  0.9867 -0.9850  0.0499
 1255TIP3   OH225255   4.131   2.850  16.935  0.1760  0.0784 -0.1356
 1255TIP3    H125256   4.154   2.870  16.844 -0.6037 -0.7443 -0.5224
 1255TIP3    H225257   4.193   2.902  16.987 -0.2016  1.5592 -1.1193
 1256TIP3   OH225258   5.735   3.554   3.261 -0.1987 -0.3059  0.0822
 1256TIP3    H125259   5.654   3.525   3.218  0.8090 -1.4793 -1.1004
 1256TIP3    H225260   5.801   3.491   3.232  1.1525  0.6413  1.0188
 1257TIP3   OH225261   4.179   2.508  16.600  0.4148  0.0069  0.2173
 1257TIP3    H125262   4.208   2.443  16.536  0.9359 -0.9696  1.3840
 1257TIP3    H225263   4.260   2.553  16.627  0.3225 -0.1261  0.7334
 1258TIP3   OH225264   2.759   4.264   4.146  0.2168  0.1766  0.5896
 1258TIP3    H125265   2.822   4.332   4.171 -0.7945  0.9567  1.0625
 1258TIP3    H225266   2.700   4.256   4.221 -1.5135  0.9787 -0.6061
 1259TIP3   OH225267   6.051   6.520  16.279 -0.0336  0.5752 -0.0635
 1259TIP3    H125268   6.061   6.445  16.221 -0.7145  0.3357  0.1243
 1259TIP3    H225269   6.134   6.524  16.328 -0.7234 -1.2648  1.3565
 1260TIP3   OH225270   3.950   0.486  14.609  0.6329  0.2592 -0.4061
 1260TIP3    H125271   3.895   0.504  14.684  1.2169  0.1764  0.0497
 1260TIP3    H225272   3.997   0.568  14.592  0.2438  0.3857 -0.9046
 1261TIP3   OH225273   1.776   2.269   1.109 -0.0145  0.1352  0.0030
 1261TIP3    H125274   1.829   2.224   1.174  0.3428 -0.7625 -0.8758
 1261TIP3    H225275   1.697   2.296   1.156  0.7331  0.5270  1.0680
 1262TIP3   OH225276   5.349   4.058   2.088 -0.7343 -0.3439  0.8421
 1262TIP3    H125277   5.347   3.966   2.115 -0.2539 -0.3735  0.8008
 1262TIP3    H225278   5.274   4.068   2.030 -0.9310 -0.6480  1.0390
 1263TIP3   OH225279   6.168   2.045   0.580  0.0565  0.2244  0.2485
 1263TIP3    H125280   6.216   2.025   0.499 -1.3039 -1.5497 -0.1980
 1263TIP3    H225281   6.204   1.984   0.645 -1.5686 -1.2336 -0.1307
 1264TIP3   OH225282   3.298   6.779  15.397 -0.0159  0.0948 -0.6794
 1264TIP3    H125283   3.245   6.842  15.445  1.5137  1.6579 -0.9708
 1264TIP3    H225284   3.330   6.719  15.465  0.8408  1.3524  0.0801
 1265TIP3   OH225285   5.549   4.790   1.928  0.2891 -0.1533  0.1978
 1265TIP3    H125286   5.457   4.776   1.906  0.1449 -0.9958  1.2623
 1265TIP3    H225287   5.579   4.853   1.863 -1.8714  2.7762  1.8236
 1266TIP3   OH225288   1.026   1.256   3.327  0.7244 -0.3948  0.9491
 1266TIP3    H125289   1.046   1.171   3.290 -1.0369 -0.5326  0.1944
 1266TIP3    H225290   1.088   1.267   3.398  1.5947 -1.8819  0.4569
 1267TIP3   OH225291   3.715   3.695  15.627  0.1850 -0.0857 -0.0826
 1267TIP3    H125292   3.693   3.607  15.596  2.4171 -1.2786  1.4275
 1267TIP3    H225293   3.811   3.696  15.632  0.2347  2.4237  0.0479
 1268TIP3   OH225294   4.055   4.846   4.001  0.3350  0.7780  0.7146
 1268TIP3    H125295   4.132   4.841   3.945 -2.2727 -1.0957 -3.1980
 1268TIP3    H225296   4.055   4.764   4.051  0.3967  0.3047 -0.0475
 1269TIP3   OH225297   2.661   4.699  12.512  0.0315  0.2770 -0.1211
 1269TIP3    H125298   2.723   4.770  12.528 -0.6939  0.9480 -0.2566
 1269TIP3    H225299   2.592   4.738  12.459 -0.9439 -0.2354  0.7268
 1270TIP3   OH225300   5.577   1.744   3.240 -0.3800 -0.3586  0.2448
 1270TIP3    H125301   5.555   1.725   3.331  1.7175  1.6528  1.2700
 1270TIP3    H225302   5.642   1.677   3.217 -0.8446 -0.8150  0.2350
 1271TIP3   OH225303   6.146   5.920   0.728 -0.4161 -0.1070 -0.2909
 1271TIP3    H125304   6.112   5.955   0.646 -0.1549  0.4035 -0.1856
 1271TIP3    H225305   6.120   5.985   0.794  1.5806  0.8199 -0.3341
 1272TIP3   OH225306   1.704   0.816  13.575 -0.3137 -0.0877 -0.2032
 1272TIP3    H125307   1.633   0.755  13.593 -0.0452 -0.3992 -0.1970
 1272TIP3    H225308   1.694   0.885  13.641 -1.2454  0.4283 -0.8586
 1273TIP3   OH225309   5.634   5.404   2.448 -0.4085 -0.1646 -0.1515
 1273TIP3    H125310   5.577   5.410   2.371  0.7563 -0.9137 -1.0963
 1273TIP3    H225311   5.643   5.310   2.465 -1.1238 -0.0133  1.3029
 1274TIP3   OH225312   0.355   5.049  14.368  0.2252 -0.4432 -0.0817
 1274TIP3    H125313   0.437   5.092  14.393 -0.3277  0.4080  0.3263
 1274TIP3    H225314   0.314   5.026  14.452 -0.3820 -0.0097 -0.2530
 1275TIP3   OH225315   2.779   3.205   0.382 -0.6071  0.4687  0.1550
 1275TIP3    H125316   2.690   3.227   0.407 -1.3606 -2.1363  0.0308
 1275TIP3    H225317   2.771   3.161   0.298  0.7643  0.1156  0.1791
 1276TIP3   OH225318   5.622   0.448  12.946  0.5349 -0.1990  0.1488
 1276TIP3    H125319   5.543   0.429  12.997 -0.7303  0.5228 -1.4340
 1276TIP3    H225320   5.591   0.502  12.873  2.1273 -1.6424 -1.7141
 1277TIP3   OH225321   6.496   4.841   5.099  0.0705  0.2035 -0.2817
 1277TIP3    H125322   6.520   4.931   5.120 -0.3171 -0.2706  2.6509
 1277TIP3    H225323   6.405   4.834   5.126 -0.5491 -0.5820 -2.3804
 1278TIP3   OH225324   0.007   3.888   2.569  0.2616  0.1406 -0.6932
 1278TIP3    H125325  -0.028   3.936   2.644  1.2493 -0.7835  0.4138
 1278TIP3    H225326  -0.012   3.944   2.494  1.7633  2.5464  0.5670
 1279TIP3   OH225327   0.966   0.369   2.265 -0.0850  0.1690  0.4764
 1279TIP3    H125328   0.980   0.396   2.356  1.6955 -0.8168  0.5462
 1279TIP3    H225329   1.011   0.435   2.213 -1.2509  0.8277  0.2700
 1280TIP3   OH225330   4.119   0.595   0.008 -0.2378  0.1804  0.1883
 1280TIP3    H125331   4.159   0.591  -0.079  0.8637 -0.8837  0.7041
 1280TIP3    H225332   4.130   0.506   0.043 -0.4078  0.6596  1.5087
 1281TIP3   OH225333   1.168   2.797  11.233 -0.5292 -0.2713 -0.0116
 1281TIP3    H125334   1.082   2.826  11.264 -0.3580  0.0349  0.1890
 1281TIP3    H225335   1.189   2.858  11.161  0.1712  0.6139  0.9096
 1282TIP3   OH225336   3.607   5.252   1.970  0.1320  0.2034 -0.4030
 1282TIP3    H125337   3.586   5.191   2.041  0.3412  1.3374  0.6519
 1282TIP3    H225338   3.693   5.222   1.939 -0.1517 -0.5604 -0.4830
 1283TIP3   OH225339   2.206   6.210  14.626 -0.1939 -0.1627  0.0681
 1283TIP3    H125340   2.192   6.157  14.548 -1.0128  0.4867 -0.2409
 1283TIP3    H225341   2.269   6.277  14.599 -1.1248  0.5868 -0.3064
 1284TIP3   OH225342   3.830   2.858  14.926 -0.4306  0.2039  0.0880
 1284TIP3    H125343   3.803   2.770  14.953  2.0896 -0.0538  2.2062
 1284TIP3    H225344   3.885   2.844  14.849  0.6532 -0.2610  0.9031
 1285TIP3   OH225345   6.063   2.858  10.802 -0.5895 -0.6103  0.3432
 1285TIP3    H125346   6.044   2.834  10.892 -0.8348 -0.5788  0.2989
 1285TIP3    H225347   6.149   2.902  10.807  0.3998 -2.4570  0.2676
 1286TIP3   OH225348   1.044   4.819  12.735  0.3691  0.0353  0.3810
 1286TIP3    H125349   0.955   4.847  12.758  0.0183 -1.5833  1.0815
 1286TIP3    H225350   1.032   4.734  12.694  1.6670 -0.5789  1.2471
 1287TIP3   OH225351   3.031   0.855  14.945  0.0722 -0.5195 -0.4637
 1287TIP3    H125352   3.122   0.861  14.916 -0.2666  1.4807 -1.2959
 1287TIP3    H225353   2.990   0.935  14.912 -1.4941 -0.3482  1.6503
 1288TIP3   OH225354   3.826   4.883   4.719 -0.0392 -0.8477  0.2081
 1288TIP3    H125355   3.900   4.823   4.728  1.8216  1.5365  2.7196
 1288TIP3    H225356   3.787   4.886   4.806  0.2530  1.8263  0.3299
 1289TIP3   OH225357   1.417   3.317  16.259 -0.1612 -0.7860 -0.2944
 1289TIP3    H125358   1.370   3.391  16.299  1.2032 -0.8640  1.6067
 1289TIP3    H225359   1.400   3.244  16.319  0.7417 -1.3103 -0.6684
 1290TIP3   OH225360   3.809   2.462   5.530  0.9000 -0.2416 -0.1600
 1290TIP3    H125361   3.729   2.513   5.546  0.6152 -0.8830  0.5061
 1290TIP3    H225362   3.836   2.487   5.442  0.0282  0.0636 -0.3494
 1291TIP3   OH225363   4.944   4.506  12.563 -0.4051  0.5303  0.0872
 1291TIP3    H125364   5.030   4.466  12.574 -0.7954 -0.7840 -1.2027
 1291TIP3    H225365   4.885   4.454  12.618 -0.1824  2.3947  2.2141
 1292TIP3   OH225366   4.608   4.478   1.531 -0.4198 -0.0813  0.5551
 1292TIP3    H125367   4.517   4.460   1.509 -0.1778 -0.2930 -0.2785
 1292TIP3    H225368   4.612   4.469   1.626 -1.2271 -0.2470  0.5748
 1293TIP3   OH225369   0.327   0.008   2.687 -0.8533  0.5792 -0.0845
 1293TIP3    H125370   0.397  -0.057   2.681 -1.9053 -0.6113  0.3754
 1293TIP3    H225371   0.347   0.071   2.617  0.4203  0.0248 -0.2462
 1294TIP3   OH225372   4.512   2.510  14.612 -0.3390  0.8158 -0.1033
 1294TIP3    H125373   4.519   2.471  14.525 -0.5495 -0.5874  0.4943
 1294TIP3    H225374   4.450   2.582  14.600  0.1523  1.0788 -1.2472
 1295TIP3   OH225375   2.107   4.618   2.539 -0.4322  0.2236 -0.7682
 1295TIP3    H125376   2.186   4.572   2.569  0.2639 -0.2014 -3.0589
 1295TIP3    H225377   2.064   4.556   2.480 -1.0606  1.4189 -1.5972
 1296TIP3   OH225378   6.541   3.090  10.749  0.6042 -0.5845 -0.0180
 1296TIP3    H125379   6.500   3.074  10.664 -0.1479 -1.7527  0.5386
 1296TIP3    H225380   6.617   3.031  10.750  1.0822  0.0091 -0.1755
 1297TIP3   OH225381   1.869   0.041  12.225 -0.7030  0.0600 -0.6302
 1297TIP3    H125382   1.783   0.010  12.197 -0.1717 -1.5095 -0.6546
 1297TIP3    H225383   1.868   0.032  12.320 -0.4421 -0.3539 -0.6619
 1298TIP3   OH225384   0.321   0.256  12.663 -0.4394 -0.0032 -0.0351
 1298TIP3    H125385   0.289   0.338  12.701 -0.6457 -0.0643 -0.0755
 1298TIP3    H225386   0.323   0.272  12.569  0.8623  0.4288  0.0477
 1299TIP3   OH225387   4.730   4.988  14.688 -0.0443 -0.3951 -0.7442
 1299TIP3    H125388   4.716   5.079  14.663  0.8900  0.3291  1.1408
 1299TIP3    H225389   4.732   4.940  14.606 -1.7596  1.0900 -1.7122
 1300TIP3   OH225390   2.738   3.683  14.415 -0.3189  0.0851 -0.1168
 1300TIP3    H125391   2.716   3.597  14.451  1.4347 -0.4251 -0.1789
 1300TIP3    H225392   2.656   3.714  14.375 -0.8383 -1.7869 -0.5754
 1301TIP3   OH225393   0.008   4.589   2.265  0.3811  0.0614  0.1034
 1301TIP3    H125394   0.052   4.507   2.288  0.8343  0.5935  1.1964
 1301TIP3    H225395   0.014   4.593   2.170  0.2005 -1.2508  0.0115
 1302TIP3   OH225396   1.328   5.714   5.171 -0.0120 -0.6255  0.1203
 1302TIP3    H125397   1.359   5.804   5.172  2.0301 -1.2924 -0.0349
 1302TIP3    H225398   1.350   5.680   5.257 -0.1233 -1.2017 -0.0760
 1303TIP3   OH225399   6.178   0.296   0.088  0.7623 -0.2210 -0.1148
 1303TIP3    H125400   6.110   0.264   0.146  2.0555 -2.3508  0.3429
 1303TIP3    H225401   6.131   0.330   0.012 -0.8346 -0.4171  0.7524
 1304TIP3   OH225402   0.839   0.378  15.744  0.8068 -0.2208  0.4201
 1304TIP3    H125403   0.795   0.397  15.661 -0.5704 -0.9619  0.9434
 1304TIP3    H225404   0.913   0.322  15.719  0.9219  0.2720 -0.3890
 1305TIP3   OH225405   0.023   5.860  11.206 -0.1835  0.4287  0.3757
 1305TIP3    H125406   0.016   5.811  11.124  1.2221  1.5306 -0.4454
 1305TIP3    H225407   0.108   5.905  11.200  0.4041 -0.2164  2.8634
 1306TIP3   OH225408   6.623   2.676  16.058 -0.4785  0.1251  0.1082
 1306TIP3    H125409   6.670   2.738  16.114 -0.6065  0.8524 -0.5669
 1306TIP3    H225410   6.584   2.614  16.119 -0.2321  0.6260  0.7970
 1307TIP3   OH225411   3.926   6.576   5.035  0.1402  0.1406 -0.0119
 1307TIP3    H125412   3.939   6.508   5.100 -0.0948 -0.6456 -0.7701
 1307TIP3    H225413   4.014   6.608   5.016  0.5560 -1.6833 -1.4446
 1308TIP3   OH225414   1.805   5.264  11.370  0.6481 -0.0425  0.5822
 1308TIP3    H125415   1.769   5.176  11.378 -0.8119  0.4211 -0.5171
 1308TIP3    H225416   1.781   5.291  11.281  2.3048  0.9394  0.3941
 1309TIP3   OH225417   4.945   0.719  11.598  0.0237 -0.0427  0.4168
 1309TIP3    H125418   5.028   0.672  11.584 -0.1807 -0.5724  0.9475
 1309TIP3    H225419   4.908   0.680  11.677 -0.1139  1.0961  0.9296
 1310TIP3   OH225420   3.347   6.026  15.373 -0.1951 -0.2740 -0.4004
 1310TIP3    H125421   3.332   5.992  15.461  0.6077 -1.2135 -0.6037
 1310TIP3    H225422   3.260   6.047  15.339 -0.5785 -0.7314  0.2941
 1311TIP3   OH225423   1.308   4.943   4.887 -0.3705  0.6690  0.6807
 1311TIP3    H125424   1.323   4.928   4.981  0.2973  2.9838  1.0013
 1311TIP3    H225425   1.271   5.031   4.882 -1.8279  0.0134 -1.1599
 1312TIP3   OH225426   0.429   5.585   5.063 -0.2409  0.4586 -0.0724
 1312TIP3    H125427   0.463   5.518   5.004 -1.6622  0.2049 -0.6582
 1312TIP3    H225428   0.382   5.536   5.131 -1.2280  0.8361 -0.4631
 1313TIP3   OH225429   1.242   4.084  15.989 -0.2987 -0.0077  0.3965
 1313TIP3    H125430   1.277   4.020  15.927 -1.9732  0.2178 -0.8366
 1313TIP3    H225431   1.236   4.036  16.072  0.6705 -0.7267  0.0683
 1314TIP3   OH225432   6.497   2.290  11.246 -0.0072  0.3861 -0.0966
 1314TIP3    H125433   6.577   2.297  11.297  0.3134  0.3421 -0.5802
 1314TIP3    H225434   6.486   2.377  11.207 -0.4781  0.5416  0.3829
 1315TIP3   OH225435   4.343   4.275   4.296 -0.1946 -0.2796  0.2622
 1315TIP3    H125436   4.318   4.367   4.296  1.7181  0.2983 -0.7718
 1315TIP3    H225437   4.312   4.241   4.213 -2.8273 -1.2356  1.5089
 1316TIP3   OH225438   1.676   2.711   5.247  0.1043 -0.0348 -0.0439
 1316TIP3    H125439   1.589   2.681   5.274 -0.3340  0.0461 -1.2734
 1316TIP3    H225440   1.696   2.784   5.305  0.2900 -1.3666  1.6515
 1317TIP3   OH225441   0.341   5.008   4.997 -0.3293  0.0075 -0.3071
 1317TIP3    H125442   0.347   5.102   5.012  0.1413 -0.1302  0.4594
 1317TIP3    H225443   0.281   4.976   5.065 -0.1940 -0.2918 -0.3245
 1318TIP3   OH225444   5.347   0.199   2.165  0.4452  0.0067 -0.0962
 1318TIP3    H125445   5.348   0.124   2.225 -3.2159  0.6256  0.9595
 1318TIP3    H225446   5.286   0.261   2.204 -2.2119  0.4826 -4.3472
 1319TIP3   OH225447   3.311   1.557  11.921  0.2287 -0.1742 -0.2569
 1319TIP3    H125448   3.374   1.485  11.926  0.2277 -0.1121  0.7985
 1319TIP3    H225449   3.356   1.632  11.961  0.4594  0.6075 -1.8892
 1320TIP3   OH225450   4.398   4.714  14.512 -0.4226 -0.4095 -0.5199
 1320TIP3    H125451   4.401   4.809  14.509  0.4508 -0.4400 -0.9174
 1320TIP3    H225452   4.439   4.691  14.595 -1.8080 -0.4120  0.1937
 1321TIP3   OH225453   5.135   0.087  10.330  0.5396 -0.2579 -0.2638
 1321TIP3    H125454   5.061   0.129  10.287  0.5044 -0.9152 -0.8666
 1321TIP3    H225455   5.181   0.158  10.373 -0.0306  0.2627 -0.4985
 1322TIP3   OH225456   4.409   2.056   4.180 -0.0200 -0.7764 -0.6892
 1322TIP3    H125457   4.505   2.058   4.189  0.2166  0.2796 -2.8672
 1322TIP3    H225458   4.381   2.144   4.204 -0.3462 -0.8244 -0.8865
 1323TIP3   OH225459   3.208   5.967   5.126 -0.3405  0.3494  1.5537
 1323TIP3    H125460   3.191   5.877   5.154  1.5379 -0.6910 -0.3445
 1323TIP3    H225461   3.165   5.974   5.040  3.0774 -0.3178 -0.4052
 1324TIP3   OH225462   1.284   1.158   2.095 -0.2706  0.6287 -0.4062
 1324TIP3    H125463   1.340   1.097   2.047 -0.4760  0.0724  0.0405
 1324TIP3    H225464   1.242   1.211   2.027 -1.9887 -1.3708 -1.0276
 1325TIP3   OH225465   1.544   6.573  11.622 -0.4580  0.0217  0.1164
 1325TIP3    H125466   1.628   6.543  11.588 -0.2535 -0.6346  1.1776
 1325TIP3    H225467   1.556   6.667  11.637 -0.0281 -0.0059 -0.0483
 1326TIP3   OH225468   1.415   1.233   3.373 -0.3101  0.1442 -0.1766
 1326TIP3    H125469   1.510   1.239   3.370 -0.3064 -0.1104 -1.1124
 1326TIP3    H225470   1.393   1.163   3.311 -0.8893 -2.8242  3.0759
 1327TIP3   OH225471   3.927   2.877  17.128  0.0230 -0.0938 -0.1514
 1327TIP3    H125472   3.928   2.791  17.086  0.5789 -0.0313 -0.2754
 1327TIP3    H225473   3.962   2.936  17.061  0.5851  0.0654  0.2674
 1328TIP3   OH225474   4.029   4.364   4.989  0.0580 -0.0442  0.2627
 1328TIP3    H125475   3.982   4.294   5.034  0.1386  0.3058  0.9078
 1328TIP3    H225476   4.070   4.322   4.914 -1.1330 -0.4005 -0.2131
 1329TIP3   OH225477   5.023   0.932   5.244 -0.2134  0.3117  0.0979
 1329TIP3    H125478   5.094   0.993   5.223 -0.3016  0.1657 -0.6606
 1329TIP3    H225479   5.026   0.866   5.175 -1.5073  0.6707 -0.3349
 1330TIP3   OH225480   2.035   3.419   1.403  0.1716  0.4370  0.5385
 1330TIP3    H125481   2.014   3.493   1.346  0.1034  0.3574  0.4595
 1330TIP3    H225482   2.056   3.347   1.343  0.7183  0.5274  0.6167
 1331TIP3   OH225483   4.427   6.574   0.783 -0.3344  0.0167  0.6135
 1331TIP3    H125484   4.466   6.501   0.736 -1.4966  0.0082 -0.3974
 1331TIP3    H225485   4.333   6.556   0.781 -0.8390  2.2903 -1.1009
 1332TIP3   OH225486   4.264   0.358   3.088 -0.0577  0.4707  0.1003
 1332TIP3    H125487   4.176   0.346   3.053  0.0335  0.9940 -0.3246
 1332TIP3    H225488   4.250   0.399   3.174 -0.1905  2.7487 -0.9194
 1333TIP3   OH225489   3.405   1.417   3.843 -0.7208  0.2957  0.3551
 1333TIP3    H125490   3.463   1.492   3.852 -1.2500  0.6297  1.0483
 1333TIP3    H225491   3.428   1.360   3.916 -0.3189 -0.2313 -0.1699
 1334TIP3   OH225492   4.165   2.442  15.895 -0.4060 -0.1800  0.0408
 1334TIP3    H125493   4.117   2.431  15.977  0.4268 -1.9157  0.3449
 1334TIP3    H225494   4.100   2.426  15.826 -0.3625 -2.3766  0.4437
 1335TIP3   OH225495   2.703   6.512   0.633 -0.1624  0.0547  0.1575
 1335TIP3    H125496   2.647   6.589   0.628 -0.6522 -0.3723 -1.3661
 1335TIP3    H225497   2.646   6.439   0.608  0.4816 -0.7047  0.8559
 1336TIP3   OH225498   0.962   0.738  12.284  0.2310  0.3218 -0.2562
 1336TIP3    H125499   0.935   0.816  12.333 -0.8099 -0.3628  0.3041
 1336TIP3    H225500   1.024   0.771  12.219 -1.4464  1.9003 -1.1445
 1337TIP3   OH225501   4.148   3.766  11.297  0.2222 -0.2107 -0.1505
 1337TIP3    H125502   4.180   3.797  11.381 -1.0083  2.0128 -0.4401
 1337TIP3    H225503   4.227   3.741  11.249  1.1876  1.2417  0.6205
 1338TIP3   OH225504   5.855   4.454   4.506  0.1763 -0.5031 -0.0776
 1338TIP3    H125505   5.796   4.518   4.546  2.0561  0.7620  0.8410
 1338TIP3    H225506   5.834   4.372   4.550  0.3986  0.3279  1.6738
 1339TIP3   OH225507   4.651   0.960   2.466  0.3421 -0.1428  0.9601
 1339TIP3    H125508   4.693   0.910   2.536  2.1543  0.1253  0.1307
 1339TIP3    H225509   4.723   1.007   2.424 -0.7222 -0.0715 -0.9040
 1340TIP3   OH225510   2.952   1.135   0.683 -0.2526 -0.4205 -0.0792
 1340TIP3    H125511   2.873   1.179   0.715  0.3829 -0.8732  2.3238
 1340TIP3    H225512   3.015   1.206   0.672 -1.0801  0.0286 -2.6072
 1341TIP3   OH225513   3.340   3.777   4.846  1.0184 -0.4158  0.3827
 1341TIP3    H125514   3.332   3.731   4.929  0.3873 -0.7987  0.1082
 1341TIP3    H225515   3.342   3.870   4.870  0.1792 -0.4969  0.7822
 1342TIP3   OH225516   4.668   6.540  14.119  0.7681 -0.4724 -0.4710
 1342TIP3    H125517   4.652   6.579  14.033  0.1146  0.3687  0.0081
 1342TIP3    H225518   4.590   6.564  14.170  0.8332 -1.5442  0.1486
 1343TIP3   OH225519   2.310   2.801   5.208  0.1141 -0.0624 -0.7160
 1343TIP3    H125520   2.319   2.893   5.233  0.5916 -0.1263 -0.6292
 1343TIP3    H225521   2.291   2.755   5.290  1.2006 -0.2093 -0.5317
 1344TIP3   OH225522   2.446   6.319   3.571 -0.6260  0.0497  0.3299
 1344TIP3    H125523   2.474   6.315   3.662 -0.5285 -0.8944  0.2691
 1344TIP3    H225524   2.398   6.401   3.564  2.9212  2.3765  0.2244
 1345TIP3   OH225525   0.315   5.019   5.489  0.6176 -0.3125 -0.4321
 1345TIP3    H125526   0.368   5.047   5.564  1.8733 -2.3854 -0.4518
 1345TIP3    H225527   0.276   4.936   5.518 -0.6062 -0.0864 -1.3519
 1346TIP3   OH225528   5.997   4.287   3.322  0.0322 -0.0214  0.3127
 1346TIP3    H125529   6.009   4.287   3.228  0.3931  0.7276  0.3510
 1346TIP3    H225530   5.909   4.252   3.335  0.1855 -0.6362 -0.2668
 1347TIP3   OH225531   1.376   4.834  11.416  0.3384 -0.2392 -0.3829
 1347TIP3    H125532   1.289   4.796  11.424 -0.0676  0.8792  0.8253
 1347TIP3    H225533   1.429   4.787  11.481  0.1965  0.2521  0.0939
 1348TIP3   OH225534   1.635   3.876   0.385  0.3095  0.1828  0.5125
 1348TIP3    H125535   1.702   3.809   0.381 -0.3284 -0.4239 -0.4603
 1348TIP3    H225536   1.611   3.882   0.477 -0.1749 -1.5059  0.5230
 1349TIP3   OH225537   1.071   1.222   2.908 -0.1670 -0.2131 -0.3638
 1349TIP3    H125538   1.076   1.127   2.924  2.5919 -0.1777 -0.5036
 1349TIP3    H225539   1.112   1.234   2.823  0.3718  1.1979  0.0720
 1350TIP3   OH225540   0.979   0.001  14.423 -0.0884 -0.3322 -0.6536
 1350TIP3    H125541   1.064   0.014  14.466  0.3739 -2.2313 -0.9096
 1350TIP3    H225542   0.934   0.085  14.434  1.5951  0.5438 -0.0291
 1351TIP3   OH225543   5.497   4.766   0.587 -0.3596 -0.1983  0.6991
 1351TIP3    H125544   5.512   4.673   0.570 -1.0430 -0.3871  1.0804
 1351TIP3    H225545   5.496   4.773   0.682 -1.8929 -0.0856  0.6986
 1352TIP3   OH225546   5.033   2.681   3.490 -0.5773  0.0662  0.1359
 1352TIP3    H125547   5.094   2.677   3.564  0.5515 -1.3595 -0.7874
 1352TIP3    H225548   4.947   2.686   3.530  0.0999  2.0630  1.5050
 1353TIP3   OH225549   0.669   6.508   2.071 -0.3810  0.0247  0.3812
 1353TIP3    H125550   0.607   6.439   2.045 -1.2699  0.2251  1.8063
 1353TIP3    H225551   0.613   6.578   2.106  0.5943  0.8293  0.3753
 1354TIP3   OH225552   4.669   4.169  14.930  0.0947  0.3592 -0.2530
 1354TIP3    H125553   4.735   4.141  14.994  0.5723  0.1361 -0.8315
 1354TIP3    H225554   4.639   4.088  14.890 -0.8702  0.4222  0.3190
 1355TIP3   OH225555   2.706   2.158   0.728  0.2306  0.0392  0.0472
 1355TIP3    H125556   2.748   2.193   0.650 -1.7620  0.0330 -1.1116
 1355TIP3    H225557   2.778   2.130   0.784  1.7775  1.6669 -1.0076
 1356TIP3   OH225558   2.817   2.088   2.399 -0.1225 -0.1726  0.1071
 1356TIP3    H125559   2.874   2.018   2.369  1.4082  0.7017  0.8639
 1356TIP3    H225560   2.749   2.044   2.450  1.1485 -1.0730  1.0617
 1357TIP3   OH225561   5.965   0.835  10.339  0.1819  0.5868 -0.2725
 1357TIP3    H125562   5.942   0.917  10.295 -0.6759  0.8084  0.5571
 1357TIP3    H225563   5.940   0.766  10.278 -0.1803  0.9166 -0.4949
 1358TIP3   OH225564   0.075   6.816   0.199  0.2941  0.2705 -0.0666
 1358TIP3    H125565   0.013   6.818   0.126 -0.4367 -3.7941  0.2056
 1358TIP3    H225566   0.029   6.860   0.270 -0.2497  1.5612 -1.1764
 1359TIP3   OH225567   4.367   2.405   1.314  0.6288  0.0641 -0.2108
 1359TIP3    H125568   4.348   2.327   1.366  0.8963 -1.0668 -1.7408
 1359TIP3    H225569   4.322   2.476   1.359 -1.4081 -1.3376  0.0757
 1360TIP3   OH225570   2.721   3.313   5.802 -0.0889  0.4482 -1.2122
 1360TIP3    H125571   2.743   3.404   5.820 -1.5969  0.9646 -1.8828
 1360TIP3    H225572   2.805   3.266   5.811  0.6045  1.8046 -0.3826
 1361TIP3   OH225573   4.579   1.091  16.154 -0.0223 -0.3843 -0.1966
 1361TIP3    H125574   4.586   1.185  16.136 -0.0319 -0.2153  0.6095
 1361TIP3    H225575   4.662   1.069  16.196 -0.2309 -0.6082  0.1075
 1362TIP3   OH225576   0.513   4.997   1.834 -0.0134  0.0668  0.5560
 1362TIP3    H125577   0.507   4.957   1.748 -1.3567  0.7706  0.3099
 1362TIP3    H225578   0.496   4.925   1.895  2.1852 -0.7184  0.3315
 1363TIP3   OH225579   3.523   2.969   2.525  0.4734 -0.6358 -0.0225
 1363TIP3    H125580   3.569   3.032   2.470  2.8800 -0.5998  1.8691
 1363TIP3    H225581   3.536   2.885   2.481 -0.7064 -0.1748 -1.3129
 1364TIP3   OH225582   6.593   3.535  13.654 -0.3297 -0.4906  0.4227
 1364TIP3    H125583   6.517   3.494  13.694 -0.2093 -0.8660  0.2693
 1364TIP3    H225584   6.657   3.541  13.725 -0.1363 -1.1052  0.3068
 1365TIP3   OH225585   4.072   2.864  15.311 -0.1308  0.4494  0.2067
 1365TIP3    H125586   4.090   2.807  15.236  0.2278  0.4891  0.2602
 1365TIP3    H225587   4.114   2.947  15.289  1.4714 -0.0522  1.1747
 1366TIP3   OH225588   5.785   1.528   3.884  0.7097  0.2585  0.5483
 1366TIP3    H125589   5.798   1.511   3.791 -0.7723  0.3595  0.3128
 1366TIP3    H225590   5.874   1.531   3.920  1.2819 -0.2156 -0.7740
 1367TIP3   OH225591   1.822   3.426  11.835  0.0295 -0.1370  0.1582
 1367TIP3    H125592   1.885   3.496  11.817 -1.6817  1.5805  0.5419
 1367TIP3    H225593   1.846   3.356  11.774  1.8176  0.7290 -0.2065
 1368TIP3   OH225594   4.114   6.086   2.085 -0.5127 -0.4836 -0.3620
 1368TIP3    H125595   4.087   5.996   2.068 -3.9701  0.1795  0.8364
 1368TIP3    H225596   4.192   6.078   2.140 -0.8561 -2.7099 -0.1282
 1369TIP3   OH225597   3.052   5.854   2.060  0.2328 -0.7450  0.6494
 1369TIP3    H125598   3.140   5.872   2.026 -0.6429  0.1776 -1.2776
 1369TIP3    H225599   3.028   5.770   2.020  0.5609 -1.4794  1.9292
 1370TIP3   OH225600   2.491   3.096   2.683 -0.1613  0.5435 -0.6089
 1370TIP3    H125601   2.432   3.050   2.622 -0.0894  0.7783 -0.8602
 1370TIP3    H225602   2.564   3.124   2.628  0.4613 -0.2278 -0.1907
 1371TIP3   OH225603   2.330   2.405   3.702  0.1098 -0.1576  0.2846
 1371TIP3    H125604   2.266   2.455   3.753 -0.1101 -0.8217  0.6803
 1371TIP3    H225605   2.299   2.314   3.708  1.5725 -0.6358  1.2496
 1372TIP3   OH225606   5.682   4.494   4.094  0.1354  0.3194 -0.0217
 1372TIP3    H125607   5.627   4.457   4.025  0.0156  0.7800 -0.1783
 1372TIP3    H225608   5.768   4.456   4.080 -0.5795 -2.0927  1.5025
 1373TIP3   OH225609   5.022   3.018  11.675  0.1391  0.2057  0.1995
 1373TIP3    H125610   5.049   3.105  11.703  0.8177  0.9379 -2.4636
 1373TIP3    H225611   5.101   2.964  11.685  0.2538  0.3582  0.1229
 1374TIP3   OH225612   2.521   1.868   1.239  0.2047 -0.0117 -0.0932
 1374TIP3    H125613   2.466   1.870   1.318 -0.9026 -2.1858 -0.7200
 1374TIP3    H225614   2.597   1.815   1.265  2.0054  2.7416  0.6834
 1375TIP3   OH225615   3.388   1.925  15.965  0.0801 -0.0221  0.0052
 1375TIP3    H125616   3.343   1.914  16.048  2.7560  2.1930  1.9480
 1375TIP3    H225617   3.432   1.842  15.950 -1.3211 -0.8185  0.1774
 1376TIP3   OH225618   5.761   2.927   0.879  0.0513  0.4310 -0.8131
 1376TIP3    H125619   5.743   2.881   0.796 -1.5655  0.3388 -0.4478
 1376TIP3    H225620   5.819   2.868   0.927  0.0518 -0.0557 -1.3982
 1377TIP3   OH225621   3.574   1.505   3.597 -0.3450 -0.3147 -0.3185
 1377TIP3    H125622   3.495   1.461   3.626  1.3691 -2.8747  0.8235
 1377TIP3    H225623   3.624   1.522   3.677  0.8820 -0.0417 -1.0989
 1378TIP3   OH225624   2.885   4.268   4.700  0.6511  0.2669  0.0002
 1378TIP3    H125625   2.832   4.305   4.771  1.0580  1.1135 -0.1173
 1378TIP3    H225626   2.848   4.306   4.620 -0.3408 -1.3338 -0.3391
 1379TIP3   OH225627   4.912   6.793  15.878 -0.1362  0.0636 -0.1546
 1379TIP3    H125628   4.823   6.790  15.844 -0.6411 -0.6952  1.1251
 1379TIP3    H225629   4.942   6.701  15.875  1.6538  0.5901 -3.0378
 1380TIP3   OH225630   5.691   6.276  15.855  0.0434 -0.1438  0.0050
 1380TIP3    H125631   5.717   6.185  15.872 -0.6910 -0.4310 -0.3442
 1380TIP3    H225632   5.605   6.285  15.897 -0.1262  0.2253 -0.4081
 1381TIP3   OH225633   0.731   2.657  11.199  0.3641 -0.3852 -0.6237
 1381TIP3    H125634   0.804   2.623  11.251  0.5372  1.6985  0.6184
 1381TIP3    H225635   0.664   2.590  11.205  0.9447 -0.8732  1.0849
 1382TIP3   OH225636   1.394   4.161  11.782  0.1981  0.1404  0.5617
 1382TIP3    H125637   1.440   4.089  11.739  2.0770  1.2219  0.6442
 1382TIP3    H225638   1.412   4.237  11.726 -1.9391  0.5529  0.3490
 1383TIP3   OH225639   5.009   2.214  14.358 -0.5654 -0.2445 -0.3249
 1383TIP3    H125640   4.975   2.294  14.397 -1.6907 -0.4842 -0.7646
 1383TIP3    H225641   4.938   2.150  14.369  0.7580 -1.5443  1.0862
 1384TIP3   OH225642   1.083   4.856   6.070 -0.2092 -0.0617 -0.2656
 1384TIP3    H125643   1.016   4.920   6.096 -0.2431 -0.0472 -0.3884
 1384TIP3    H225644   1.091   4.798   6.146 -0.1124  0.1422 -0.1199
 1385TIP3   OH225645   2.784   6.252   2.080 -0.1109  0.1272  0.0603
 1385TIP3    H125646   2.761   6.160   2.067  0.7149  0.1399 -1.9921
 1385TIP3    H225647   2.879   6.255   2.065 -0.2414  1.3910 -0.6588
 1386TIP3   OH225648   6.544   1.596  15.071  0.0123  0.2071  0.2642
 1386TIP3    H125649   6.552   1.641  14.987  2.8882 -0.6102 -0.0426
 1386TIP3    H225650   6.468   1.539  15.060  0.9440 -0.7390 -2.3151
 1387TIP3   OH225651   6.250   6.727  12.438  0.7696  0.1972  0.1157
 1387TIP3    H125652   6.343   6.721  12.414  0.2587 -3.0888 -1.6369
 1387TIP3    H225653   6.241   6.671  12.514 -0.0981 -1.4762 -1.1611
 1388TIP3   OH225654   5.520   4.357   0.860  0.6605 -0.2320 -0.0067
 1388TIP3    H125655   5.521   4.450   0.883  0.1405  0.0106 -0.9001
 1388TIP3    H225656   5.525   4.311   0.944  1.7900  0.5917  0.3929
 1389TIP3   OH225657   3.859   4.462   4.443 -0.1529  0.2912 -0.0281
 1389TIP3    H125658   3.771   4.441   4.413 -0.3132 -1.7567  1.6517
 1389TIP3    H225659   3.909   4.381   4.433  1.8067  1.5950 -1.6143
 1390TIP3   OH225660   6.095   5.230  11.356  0.1342 -0.0590 -0.2183
 1390TIP3    H125661   6.158   5.250  11.287 -1.4561 -0.5588 -1.8916
 1390TIP3    H225662   6.057   5.314  11.379  0.1718  0.0167 -0.4344
 1391TIP3   OH225663   2.383   4.999  15.408  0.4466  0.2660 -0.0110
 1391TIP3    H125664   2.361   4.907  15.419 -0.3530  0.3865 -0.5168
 1391TIP3    H225665   2.400   5.009  15.315 -0.0634  0.7498 -0.0578
 1392TIP3   OH225666   3.404   0.632  15.184 -0.0954  0.5589  0.4396
 1392TIP3    H125667   3.482   0.665  15.229 -0.7106  1.7285  0.7149
 1392TIP3    H225668   3.331   0.674  15.231 -0.8965 -0.6244  0.2909
 1393TIP3   OH225669   2.161   1.784   5.759  0.8061  0.5684 -0.0335
 1393TIP3    H125670   2.203   1.698   5.756 -0.2152  0.0826 -1.8105
 1393TIP3    H225671   2.184   1.818   5.845  2.1761 -0.9925  0.2866
 1394TIP3   OH225672   4.483   0.573  17.102  0.1806 -0.2799 -0.1974
 1394TIP3    H125673   4.391   0.547  17.113 -0.0504  0.7327  0.4199
 1394TIP3    H225674   4.499   0.564  17.008 -0.3605 -1.0587 -0.2247
 1395TIP3   OH225675   3.650   4.797   3.118  0.2626 -0.2311 -0.6466
 1395TIP3    H125676   3.576   4.746   3.084  0.1912  0.3243 -1.3428
 1395TIP3    H225677   3.713   4.799   3.046 -0.0615  1.3126 -0.9166
 1396TIP3   OH225678   1.935   2.031  11.181 -0.0749  0.0865 -0.0117
 1396TIP3    H125679   1.885   2.002  11.105  0.3366 -1.0105  0.1150
 1396TIP3    H225680   1.868   2.055  11.245 -0.4298  0.0358 -0.3604
 1397TIP3   OH225681   2.395   1.818   2.908  0.3828  0.3616  0.3667
 1397TIP3    H125682   2.483   1.799   2.941  0.1896  0.7434  1.1153
 1397TIP3    H225683   2.361   1.885   2.967 -0.3037  0.4270 -0.0946
 1398TIP3   OH225684   4.251   1.233   5.089 -0.1873 -0.1362 -0.0097
 1398TIP3    H125685   4.260   1.216   5.182  1.3756  1.4986  0.1729
 1398TIP3    H225686   4.166   1.276   5.081 -0.8115 -1.2129  0.4719
 1399TIP3   OH225687   6.365   3.234  16.299 -0.1345 -0.1938  0.4097
 1399TIP3    H125688   6.346   3.159  16.355 -1.4092  1.0021  1.6609
 1399TIP3    H225689   6.372   3.308  16.359  1.2840  0.6939 -0.7671
 1400TIP3   OH225690   2.064   4.218  16.685  0.0916 -0.2107  0.1533
 1400TIP3    H125691   2.057   4.141  16.629 -1.9390 -0.3176  0.4844
 1400TIP3    H225692   1.984   4.216  16.738  0.2153  1.8778  0.4778
 1401TIP3   OH225693   5.758   5.122  16.560  0.0098 -0.2281 -0.7444
 1401TIP3    H125694   5.708   5.097  16.482 -0.0557 -0.2904 -0.6832
 1401TIP3    H225695   5.750   5.218  16.563 -0.3133 -0.2558 -0.6014
 1402TIP3   OH225696   0.980   0.751  13.615  0.5072 -0.0178  0.5858
 1402TIP3    H125697   0.901   0.801  13.638 -2.0068 -3.2239 -0.3546
 1402TIP3    H225698   0.988   0.762  13.521  0.3907 -0.7005  0.4902
 1403TIP3   OH225699   4.296   0.368  16.147 -0.2346 -0.4802 -0.2783
 1403TIP3    H125700   4.280   0.428  16.074  0.1044 -0.0273  0.0177
 1403TIP3    H225701   4.245   0.290  16.125 -1.0799  0.1033 -0.4171
 1404TIP3   OH225702   5.463   2.316   2.241 -0.1419 -0.5817  0.2451
 1404TIP3    H125703   5.409   2.391   2.219  2.9001  1.0950 -2.3513
 1404TIP3    H225704   5.434   2.247   2.182  0.9118  0.5516 -1.6984
 1405TIP3   OH225705   4.934   5.417  11.987  0.9242  0.3577 -0.1233
 1405TIP3    H125706   4.849   5.450  12.017  1.6535  2.5267 -0.2655
 1405TIP3    H225707   4.960   5.354  12.054 -1.1751 -1.0643 -0.5392
 1406TIP3   OH225708   1.004   6.814   5.809  0.3545  0.2147  0.0453
 1406TIP3    H125709   1.064   6.841   5.739 -0.0062 -0.3332 -0.4829
 1406TIP3    H225710   1.051   6.745   5.855  0.3203  0.1034 -0.0849
 1407TIP3   OH225711   6.215   2.541  11.712  1.0928  0.1119  0.0344
 1407TIP3    H125712   6.218   2.498  11.627  2.2886  0.8607 -0.3318
 1407TIP3    H225713   6.123   2.564  11.724  1.0117  0.6122 -1.3760
 1408TIP3   OH225714   3.054   2.342  11.748 -0.7512  0.3848  0.2158
 1408TIP3    H125715   3.089   2.425  11.715  2.0719 -1.3565 -1.5274
 1408TIP3    H225716   3.004   2.307  11.674  1.3759 -1.1969 -0.5640
 1409TIP3   OH225717   0.171   1.953  12.871 -0.0899  0.1163 -0.3433
 1409TIP3    H125718   0.251   2.006  12.875  0.4117 -0.5308 -1.5229
 1409TIP3    H225719   0.121   1.981  12.948  2.1876 -0.9343  1.6833
 1410TIP3   OH225720   2.641   1.685   5.012  0.0180  1.1173  0.4698
 1410TIP3    H125721   2.661   1.714   5.102  1.3376 -0.1419  0.6280
 1410TIP3    H225722   2.643   1.589   5.017  0.1096  1.0296 -0.9114
 1411TIP3   OH225723   1.816   0.387  12.192 -0.0153  0.2679 -0.1425
 1411TIP3    H125724   1.790   0.321  12.128 -0.1393 -1.8043  1.9063
 1411TIP3    H225725   1.786   0.470  12.155 -2.3982 -1.1119 -1.5572
 1412TIP3   OH225726   5.583   3.436   0.606  0.1117 -0.4703 -0.2218
 1412TIP3    H125727   5.655   3.398   0.657 -0.3070 -0.6464  0.2452
 1412TIP3    H225728   5.613   3.523   0.582 -0.4050  0.3631  1.9274
 1413TIP3   OH225729   6.253   3.402   2.799  0.3718 -0.4196 -0.3662
 1413TIP3    H125730   6.342   3.404   2.835  0.4637  2.0499 -0.5542
 1413TIP3    H225731   6.264   3.408   2.705  0.0168 -0.6732 -0.4268
 1414TIP3   OH225732   1.554   5.260  17.021 -0.1591 -0.1372 -0.0407
 1414TIP3    H125733   1.621   5.319  17.055  1.7381 -1.4387 -1.3444
 1414TIP3    H225734   1.555   5.274  16.926 -0.1714 -1.7121 -0.2999
 1415TIP3   OH225735   4.869   6.059  13.045  0.2863 -0.4651  0.2908
 1415TIP3    H125736   4.908   6.145  13.035  1.6347 -1.1111 -0.2370
 1415TIP3    H225737   4.910   6.006  12.976 -0.7912 -1.4350  0.3609
 1416TIP3   OH225738   3.004   1.011   1.071  0.3910  0.0337  0.4502
 1416TIP3    H125739   3.041   1.084   1.021  0.6964  0.0746  0.7331
 1416TIP3    H225740   2.953   1.053   1.140  0.2993 -0.0219  0.4162
 1417TIP3   OH225741   3.045   6.525  12.445 -0.3016 -0.1843 -0.5916
 1417TIP3    H125742   3.098   6.451  12.473  0.4945  1.3935  2.6655
 1417TIP3    H225743   2.981   6.535  12.516 -0.1741  2.3699 -0.7619
 1418TIP3   OH225744   4.046   3.486  12.569 -0.0214  0.2417  0.4363
 1418TIP3    H125745   3.975   3.513  12.627 -1.4708  0.8568 -1.4935
 1418TIP3    H225746   4.020   3.520  12.483  2.1820 -0.3216 -0.5144
 1419TIP3   OH225747   2.190   5.417   4.524 -0.5433  0.1137 -0.4559
 1419TIP3    H125748   2.235   5.491   4.483 -0.8999  0.9830  0.6777
 1419TIP3    H225749   2.100   5.445   4.532 -0.4934 -0.0465  0.8771
 1420TIP3   OH225750   1.228   6.295   3.318  0.3556  0.5099 -0.8900
 1420TIP3    H125751   1.169   6.225   3.289  0.3476 -0.6323  1.5845
 1420TIP3    H225752   1.172   6.373   3.321 -0.6078 -0.1754 -0.2966
 1421TIP3   OH225753   3.354   4.183   3.564  0.0422 -0.2870  0.2745
 1421TIP3    H125754   3.324   4.094   3.547  0.1197 -0.6711  2.0193
 1421TIP3    H225755   3.427   4.173   3.626  0.7375  0.9292 -0.3053
 1422TIP3   OH225756   0.438   5.527  16.840  0.0642  0.5436  0.9304
 1422TIP3    H125757   0.382   5.452  16.820  1.2827  0.3064 -2.2988
 1422TIP3    H225758   0.520   5.488  16.870  1.1365  0.3649 -1.9294
 1423TIP3   OH225759   0.143   4.376   1.984 -0.0698  0.0740  0.5966
 1423TIP3    H125760   0.085   4.438   2.028  0.2411  0.1509  0.8986
 1423TIP3    H225761   0.166   4.419   1.902  2.8509  1.9120  2.2035
 1424TIP3   OH225762   6.743   1.263   0.110  0.6536  0.5398  0.2609
 1424TIP3    H125763   6.688   1.328   0.153  0.4902  0.1103  0.7189
 1424TIP3    H225764   6.833   1.295   0.122  0.5901  0.5601  0.6933
 1425TIP3   OH225765   6.663   0.211  13.009 -0.3408  0.1294 -0.2200
 1425TIP3    H125766   6.691   0.282  12.951  0.1566  0.4034  0.3486
 1425TIP3    H225767   6.725   0.214  13.082 -0.5613 -0.6360  0.0032
 1426TIP3   OH225768   0.404   5.504  11.455 -0.0144  0.7167 -0.6294
 1426TIP3    H125769   0.434   5.587  11.493 -0.5791 -0.0158  1.5898
 1426TIP3    H225770   0.451   5.437  11.505 -2.2153 -0.3572  0.1244
 1427TIP3   OH225771   2.538   3.749   3.628  0.2509 -0.1543  0.4867
 1427TIP3    H125772   2.597   3.732   3.702 -0.7690 -3.4866  0.7014
 1427TIP3    H225773   2.590   3.727   3.551 -0.0223 -1.0874  0.5512
 1428TIP3   OH225774   5.771   2.852  14.136 -0.0972 -0.2571 -1.0966
 1428TIP3    H125775   5.695   2.826  14.187  0.4044 -0.8744 -0.6439
 1428TIP3    H225776   5.738   2.864  14.047 -0.8848  0.3544 -0.7358
 1429TIP3   OH225777   5.775   5.302  12.522  0.0765  0.3020 -0.4536
 1429TIP3    H125778   5.843   5.235  12.523 -0.0570  0.1587  1.3061
 1429TIP3    H225779   5.781   5.345  12.607 -0.9076  1.4535 -0.9249
 1430TIP3   OH225780   4.891   0.157  13.764  0.4638 -0.0286  0.0911
 1430TIP3    H125781   4.913   0.139  13.855 -0.9431 -0.9123  0.2688
 1430TIP3    H225782   4.911   0.251  13.754 -0.5064  0.3832  1.6473
 1431TIP3   OH225783   6.003   5.300   4.823  0.1760 -0.2094 -0.1866
 1431TIP3    H125784   5.991   5.271   4.914  2.0139  0.0998  0.2000
 1431TIP3    H225785   5.962   5.386   4.820 -0.8042 -0.6474  0.0475
 1432TIP3   OH225786   4.149   2.348   2.874 -0.6908  0.5659 -0.1542
 1432TIP3    H125787   4.097   2.399   2.936  1.3558  1.8951  0.5614
 1432TIP3    H225788   4.169   2.408   2.803 -1.8172 -0.5421 -1.4704
 1433TIP3   OH225789   3.181   1.516  12.873 -0.4607  0.0061 -0.0773
 1433TIP3    H125790   3.115   1.448  12.880 -0.1106 -0.1842  2.6776
 1433TIP3    H225791   3.136   1.590  12.833 -1.8281 -0.6957  0.1160
 1434TIP3   OH225792   6.703   0.128  12.709  0.1810  0.5592 -0.2895
 1434TIP3    H125793   6.682   0.034  12.711  0.6961  0.4326 -0.6402
 1434TIP3    H225794   6.777   0.137  12.768  0.3551  0.6874 -0.5269
 1435TIP3   OH225795   1.139   6.759   5.082 -0.0537 -0.2923  0.7353
 1435TIP3    H125796   1.051   6.722   5.076 -0.0875 -0.3367  1.3759
 1435TIP3    H225797   1.170   6.731   5.168  1.8387 -3.0372 -0.7039
 1436TIP3   OH225798   2.485   2.675  11.129  0.4485  0.3345 -0.4635
 1436TIP3    H125799   2.433   2.707  11.203  1.6537 -0.4889  0.7823
 1436TIP3    H225800   2.437   2.705  11.051 -2.3873 -1.0963  0.5629
 1437TIP3   OH225801   5.865   2.992   5.044 -0.1269 -0.2546  0.1093
 1437TIP3    H125802   5.784   3.042   5.033 -0.2941 -0.5059  0.1690
 1437TIP3    H225803   5.870   2.936   4.967  0.3751  0.2848 -0.2528
 1438TIP3   OH225804   2.489   1.892  15.942  0.7184 -0.3840 -0.4942
 1438TIP3    H125805   2.428   1.830  15.903  0.7658 -1.3252  0.8691
 1438TIP3    H225806   2.456   1.907  16.031  1.7940  0.0135 -0.1385
 1439TIP3   OH225807   2.971   3.389   1.723  0.4056  0.4123 -0.6096
 1439TIP3    H125808   2.972   3.297   1.750  0.3091 -0.1135 -2.3055
 1439TIP3    H225809   2.944   3.437   1.801  0.6268 -0.9771  0.3471
 1440TIP3   OH225810   1.752   0.318   3.934  0.3675  0.3006  0.1798
 1440TIP3    H125811   1.836   0.277   3.915  0.1722  0.1024 -0.2977
 1440TIP3    H225812   1.736   0.376   3.858  0.0377  0.2720  0.2255
 1441TIP3   OH225813   4.157   1.376  15.405 -0.2002 -0.3745 -0.1800
 1441TIP3    H125814   4.072   1.399  15.442 -1.1877 -0.7604 -2.0733
 1441TIP3    H225815   4.177   1.290  15.442  0.1316  0.3725  1.4583
 1442TIP3   OH225816   5.116   2.851   5.465 -0.2343 -0.0514  0.1463
 1442TIP3    H125817   5.170   2.876   5.390  0.9151 -0.8700  0.6797
 1442TIP3    H225818   5.112   2.756   5.462 -2.0604 -0.0142 -0.1356
 1443TIP3   OH225819   3.409   4.432   4.025 -0.2769  0.4648  0.3085
 1443TIP3    H125820   3.409   4.458   4.117  1.2075  0.0838  0.4416
 1443TIP3    H225821   3.441   4.508   3.978  1.0891 -0.0574  0.3628
 1444TIP3   OH225822   0.724   1.353   2.642  0.4786  0.2740 -0.0184
 1444TIP3    H125823   0.746   1.263   2.666 -1.8033 -0.9418 -1.9676
 1444TIP3    H225824   0.776   1.369   2.563 -2.5147 -1.2827 -2.5292
 1445TIP3   OH225825   5.488   1.524   4.358  0.4706  0.1206 -0.6161
 1445TIP3    H125826   5.476   1.553   4.268 -1.2106 -1.0855 -0.8346
 1445TIP3    H225827   5.523   1.435   4.351  0.2040 -0.0345 -0.0738
 1446TIP3   OH225828   6.207   2.581  16.555 -0.6016 -0.3744  0.4142
 1446TIP3    H125829   6.140   2.579  16.487  1.2261  0.4481 -1.5028
 1446TIP3    H225830   6.261   2.504  16.538  1.8082  1.5411 -1.2489
 1447TIP3   OH225831   2.111   1.333   1.876 -0.1648  0.4238  0.0868
 1447TIP3    H125832   2.030   1.384   1.868 -0.6955 -0.4922 -0.5060
 1447TIP3    H225833   2.172   1.392   1.921 -1.2358  1.0284  0.7702
 1448TIP3   OH225834   1.716   0.837   6.209  0.8861 -0.4428 -0.5622
 1448TIP3    H125835   1.715   0.848   6.304  2.3841 -2.2491 -0.2771
 1448TIP3    H225836   1.806   0.812   6.188  1.1860  1.9486 -2.7778
 1449TIP3   OH225837   6.153   0.914   0.449  0.1659  0.6435 -0.1348
 1449TIP3    H125838   6.062   0.921   0.418  0.1797  0.1849 -0.2846
 1449TIP3    H225839   6.183   1.005   0.453 -0.5993  0.8818  0.8286
 1450TIP3   OH225840   5.961   1.967   4.340 -0.0015  0.0238 -0.0986
 1450TIP3    H125841   5.931   1.917   4.416 -0.5636 -1.6470 -1.3689
 1450TIP3    H225842   6.047   1.930   4.320 -1.3711 -2.1965 -2.4466
 1451TIP3   OH225843   3.402   5.727  11.019 -0.4296 -0.0134 -0.4876
 1451TIP3    H125844   3.401   5.694  10.929  1.3312 -1.0866 -0.1604
 1451TIP3    H225845   3.443   5.657  11.070  0.3702  1.3298  0.8130
 1452TIP3   OH225846   3.353   2.037   1.834 -0.0351 -0.3499 -0.2234
 1452TIP3    H125847   3.279   2.089   1.803  0.1247 -0.5142 -0.8793
 1452TIP3    H225848   3.316   1.952   1.855  0.1054 -0.6848 -1.3125
 1453TIP3   OH225849   0.457   4.953  16.795 -0.1490 -0.0466 -0.7694
 1453TIP3    H125850   0.391   4.974  16.861 -0.0494  0.3951 -0.8107
 1453TIP3    H225851   0.500   4.874  16.829  0.4184  0.6121  0.0795
 1454TIP3   OH225852   1.412   4.632  14.043 -0.5399  0.4157 -0.0621
 1454TIP3    H125853   1.445   4.639  13.954 -1.4795  3.1123 -0.2938
 1454TIP3    H225854   1.342   4.698  14.048 -0.8963 -0.0441  2.4939
 1455TIP3   OH225855   3.633   3.239  12.937 -0.2907 -0.0311 -0.6675
 1455TIP3    H125856   3.671   3.198  12.859 -0.6398 -1.2760 -0.2044
 1455TIP3    H225857   3.539   3.222  12.930 -0.3508  0.0486 -0.0974
 1456TIP3   OH225858   6.441   6.726  10.947 -0.2718 -0.3614  0.0894
 1456TIP3    H125859   6.480   6.789  11.007  2.5433 -0.7937 -1.1369
 1456TIP3    H225860   6.349   6.752  10.941  0.3956  2.5466  0.9618
 1457TIP3   OH225861   3.212   0.294   5.007 -0.5802 -0.2074 -0.2364
 1457TIP3    H125862   3.173   0.213   5.041 -1.7557  0.8069  0.9075
 1457TIP3    H225863   3.195   0.290   4.913  2.7193 -3.0603 -0.9248
 1458TIP3   OH225864   5.377   2.657   5.220  0.5349  0.7378  0.5223
 1458TIP3    H125865   5.296   2.606   5.224  1.5190 -1.0821 -1.1284
 1458TIP3    H225866   5.396   2.665   5.127  0.9468  3.4100  0.7540
 1459TIP3   OH225867   2.141   5.437   4.800  0.1681 -0.1807  0.1101
 1459TIP3    H125868   2.067   5.449   4.741  0.0917 -0.2684  0.1876
 1459TIP3    H225869   2.131   5.505   4.866 -0.5711 -1.0077  0.8594
 1460TIP3   OH225870   1.889   1.068   2.619 -0.4330  0.5104 -0.4300
 1460TIP3    H125871   1.970   1.115   2.601  0.0803  0.8403  2.3433
 1460TIP3    H225872   1.917   0.984   2.655 -1.3525 -0.0899 -1.0504
 1461TIP3   OH225873   5.241   6.821   2.537  0.0121  0.1198  0.7802
 1461TIP3    H125874   5.177   6.884   2.504 -0.2143 -0.6593 -0.3040
 1461TIP3    H225875   5.201   6.786   2.617 -0.6683  0.0348  0.4048
 1462TIP3   OH225876   5.226   1.221  15.738  0.2248  0.2831 -0.3529
 1462TIP3    H125877   5.204   1.287  15.804 -1.2542 -1.1980  0.7234
 1462TIP3    H225878   5.234   1.139  15.787 -0.4267 -0.7908 -1.9428
 1463TIP3   OH225879   4.893   2.314  13.139  0.1987 -0.0080 -0.5329
 1463TIP3    H125880   4.970   2.257  13.146  1.3522  1.5315 -0.2785
 1463TIP3    H225881   4.928   2.401  13.121 -1.4097  0.9965  0.8269
 1464TIP3   OH225882   3.729   1.217  12.715  0.4844 -0.2434 -0.1364
 1464TIP3    H125883   3.675   1.289  12.685  1.0159  0.8860  1.4787
 1464TIP3    H225884   3.745   1.164  12.637  0.8552  1.8782 -1.5572
 1465TIP3   OH225885   4.990   0.770   5.025  0.5074 -0.0634  0.0339
 1465TIP3    H125886   5.018   0.680   5.041 -1.5116 -0.6585  0.5103
 1465TIP3    H225887   4.946   0.766   4.940 -0.4621  0.2427  0.5119
 1466TIP3   OH225888   3.824   6.728  15.478  0.3322 -0.0086  0.5876
 1466TIP3    H125889   3.900   6.677  15.449  0.9738  0.7845  0.8170
 1466TIP3    H225890   3.781   6.754  15.396  1.3482  1.0499  0.3580
 1467TIP3   OH225891   4.234   3.659  15.368  0.3868 -0.3650 -0.6961
 1467TIP3    H125892   4.299   3.692  15.306  1.2454 -2.3041 -0.9019
 1467TIP3    H225893   4.286   3.633  15.444 -0.3526 -0.4125 -0.2001
 1468TIP3   OH225894   6.802   3.771   0.415 -0.1235  0.0410  0.5224
 1468TIP3    H125895   6.866   3.787   0.484  0.4346 -0.2916  0.0880
 1468TIP3    H225896   6.764   3.686   0.436 -0.6072  0.3444  0.9123
 1469TIP3   OH225897   4.826   1.486   4.708  0.2326 -0.0225 -0.2111
 1469TIP3    H125898   4.916   1.457   4.725  0.2438 -1.3893 -2.1927
 1469TIP3    H225899   4.837   1.568   4.659  0.3552  0.3821  0.4811
 1470TIP3   OH225900   5.603   2.487  16.284 -0.1103 -0.1421 -0.0197
 1470TIP3    H125901   5.519   2.444  16.303  0.7924 -1.2716  1.7420
 1470TIP3    H225902   5.669   2.424  16.313  1.3820  0.5995 -1.6228
 1471TIP3   OH225903   6.642   6.225   5.793  0.4276 -0.2803  0.3484
 1471TIP3    H125904   6.733   6.204   5.815  0.6072  0.9094  0.7856
 1471TIP3    H225905   6.605   6.141   5.763  1.6604 -0.7758  0.1521
 1472TIP3   OH225906   6.343   1.881  11.654  0.3824 -0.1804  1.2284
 1472TIP3    H125907   6.361   1.908  11.564 -2.4617  1.7400  1.0706
 1472TIP3    H225908   6.415   1.918  11.705  0.2895  1.7203  0.0988
 1473TIP3   OH225909   1.762   0.598  14.347 -0.2636 -0.4190 -0.2178
 1473TIP3    H125910   1.857   0.609  14.344 -0.2441 -0.7596 -1.0786
 1473TIP3    H225911   1.738   0.617  14.438  0.9043 -2.6340  0.6051
 1474TIP3   OH225912   0.319   5.158   6.344  0.2550 -0.0481  0.1544
 1474TIP3    H125913   0.341   5.071   6.377  0.6294  0.5597  1.5567
 1474TIP3    H225914   0.388   5.178   6.281  0.8233 -0.2836  0.6962
 1475TIP3   OH225915   3.036   3.179  13.980  0.0554 -0.4286 -0.0907
 1475TIP3    H125916   3.004   3.220  14.061  1.0481  2.8236 -1.2055
 1475TIP3    H225917   2.957   3.159  13.931 -0.5319  1.7206 -0.1403
 1476TIP3   OH225918   3.647   2.610   5.011 -0.2964 -0.2627 -0.0590
 1476TIP3    H125919   3.709   2.560   4.959  0.0788 -0.2301  0.3510
 1476TIP3    H225920   3.585   2.545   5.044 -0.7482 -0.2385 -0.8260
 1477TIP3   OH225921   1.719   3.593  11.312 -0.3925  0.1531 -0.5189
 1477TIP3    H125922   1.718   3.688  11.315  1.7815  0.2179 -0.2879
 1477TIP3    H225923   1.714   3.572  11.219  0.0308  0.5141 -0.6224
 1478TIP3   OH225924   2.193   2.635   3.809  0.1856 -0.5310 -0.4408
 1478TIP3    H125925   2.099   2.644   3.794 -0.2412 -0.1318  2.0552
 1478TIP3    H225926   2.222   2.724   3.830  0.9769 -0.7732 -0.4843
 1479TIP3   OH225927   4.988   0.374   4.358 -0.5826  0.5471  0.7308
 1479TIP3    H125928   4.929   0.333   4.296  2.0794 -0.1223 -1.5636
 1479TIP3    H225929   4.994   0.311   4.431 -0.4984 -0.7384 -0.3523
 1480TIP3   OH225930   0.359   3.448  14.777 -0.2475 -0.0243  0.6861
 1480TIP3    H125931   0.295   3.440  14.706 -0.2178  0.5351  0.5932
 1480TIP3    H225932   0.444   3.442  14.734 -0.2330 -0.0456  0.7177
 1481TIP3   OH225933   4.055   1.948  16.702 -0.2923  0.6039  0.0536
 1481TIP3    H125934   4.046   1.929  16.795 -1.3932  0.6605 -0.0192
 1481TIP3    H225935   4.125   2.012  16.697  0.4349 -0.1150  0.7412
 1482TIP3   OH225936   2.487   4.610   3.894  0.2264  0.8172  0.6326
 1482TIP3    H125937   2.583   4.611   3.890  0.1946  0.4846 -0.7825
 1482TIP3    H225938   2.467   4.575   3.981  1.4173 -0.7760  0.3067
 1483TIP3   OH225939   5.505   0.484   6.429 -0.0867 -0.4076 -0.0572
 1483TIP3    H125940   5.423   0.466   6.474 -0.2355 -0.1471 -0.2179
 1483TIP3    H225941   5.573   0.465   6.493 -0.3385  1.4827  0.8487
 1484TIP3   OH225942   2.599   0.654  11.519 -0.0617 -0.8987  0.5754
 1484TIP3    H125943   2.515   0.630  11.558  0.0926  0.5356  1.9092
 1484TIP3    H225944   2.663   0.602  11.567 -0.1321 -1.6962 -0.1697
 1485TIP3   OH225945   4.935   3.523   3.018  0.4213 -0.3816 -0.1004
 1485TIP3    H125946   4.938   3.436   2.979  0.3271 -0.7093  0.5998
 1485TIP3    H225947   4.907   3.580   2.947  2.6580 -0.5435 -1.1834
 1486TIP3   OH225948   3.155   5.539   1.808 -0.1796  0.8487  0.0346
 1486TIP3    H125949   3.204   5.566   1.885 -0.4228  0.8625  0.1871
 1486TIP3    H225950   3.140   5.619   1.759 -1.1833  1.0557  0.6506
 1487TIP3   OH225951   3.733   0.096  14.778 -0.1398 -0.2957  0.4130
 1487TIP3    H125952   3.662   0.068  14.836  0.3872  0.1032  1.2794
 1487TIP3    H225953   3.759   0.182  14.813  1.2651 -0.7748  0.5793
 1488TIP3   OH225954   2.258   6.641   3.882  0.1277  0.0348  0.3192
 1488TIP3    H125955   2.331   6.582   3.864 -1.7336 -1.9841 -1.3004
 1488TIP3    H225956   2.223   6.610   3.966  0.7861  0.6884  0.8518
 1489TIP3   OH225957   5.436   0.670   4.169 -0.4715 -0.3186  0.0708
 1489TIP3    H125958   5.525   0.646   4.193  0.1786 -0.5479 -2.2991
 1489TIP3    H225959   5.445   0.753   4.122 -1.7786  0.6801  1.4826
 1490TIP3   OH225960   3.701   1.266   3.536  0.3224 -0.2024 -0.1917
 1490TIP3    H125961   3.702   1.279   3.441  1.2694  1.9914  0.0634
 1490TIP3    H225962   3.693   1.354   3.572  2.2902 -0.7505  1.8082
 1491TIP3   OH225963   5.351   3.781  16.879 -0.4005 -0.0145 -0.6110
 1491TIP3    H125964   5.271   3.808  16.924 -0.4282 -0.9485 -0.0727
 1491TIP3    H225965   5.422   3.816  16.932 -0.4355  0.4262 -0.8435
 1492TIP3   OH225966   1.925   3.740   6.106 -0.0680 -0.3652 -0.4157
 1492TIP3    H125967   1.940   3.796   6.182  1.5626  0.8393 -1.5406
 1492TIP3    H225968   1.860   3.677   6.135 -1.2590  1.4935  1.2396
 1493TIP3   OH225969   0.893   1.576   3.679 -0.2686 -0.3628  0.2668
 1493TIP3    H125970   0.864   1.665   3.701 -0.9138 -0.5754  0.2953
 1493TIP3    H225971   0.832   1.547   3.611 -0.7978 -1.2183  1.0783
 1494TIP3   OH225972   6.089   3.577  15.528 -0.0970 -0.1075 -0.1714
 1494TIP3    H125973   6.058   3.491  15.498 -1.3729  0.5398 -0.7879
 1494TIP3    H225974   6.010   3.631  15.534  0.8738  1.6187 -1.7702
 1495TIP3   OH225975   5.710   3.156   6.325  0.2300  0.7062  0.0755
 1495TIP3    H125976   5.738   3.089   6.387 -2.4019  0.1863  0.8692
 1495TIP3    H225977   5.681   3.107   6.248  1.4569  1.2090 -0.7303
 1496TIP3   OH225978   2.863   5.224  12.372 -0.4164  0.2692  0.0865
 1496TIP3    H125979   2.780   5.194  12.408  0.3445  0.0268  1.7263
 1496TIP3    H225980   2.844   5.243  12.280 -1.5096 -2.9697 -0.4865
 1497TIP3   OH225981   3.365   4.173   0.573 -0.1838  0.1433  0.0048
 1497TIP3    H125982   3.409   4.213   0.497 -1.6507  1.1832 -0.3486
 1497TIP3    H225983   3.342   4.248   0.629 -2.0858 -0.2703 -0.1678
 1498TIP3   OH225984   4.389   0.399   4.636  0.2283 -0.7697  0.4696
 1498TIP3    H125985   4.380   0.493   4.648 -0.2555 -0.5407 -1.3797
 1498TIP3    H225986   4.320   0.360   4.689  0.1203 -0.0549  0.8523
 1499TIP3   OH225987   0.647   5.858  15.967 -0.2981  0.1066  0.6900
 1499TIP3    H125988   0.575   5.920  15.981 -1.5679 -1.3570  0.9200
 1499TIP3    H225989   0.611   5.794  15.905  0.3869 -1.2923  1.6873
 1500TIP3   OH225990   3.076   2.145  10.952  0.0730  0.2980  0.0020
 1500TIP3    H125991   3.146   2.145  11.018  0.7213  1.5447 -0.6515
 1500TIP3    H225992   3.056   2.052  10.938 -0.5834 -0.0148  2.4437
 1501TIP3   OH225993   1.901   1.484   1.806 -0.8482  0.1967  0.5432
 1501TIP3    H125994   1.893   1.531   1.889 -0.0661 -1.3235  1.5249
 1501TIP3    H225995   1.812   1.454   1.786 -0.7909 -0.8048  1.6960
 1502TIP3   OH225996   1.182   1.851  12.910 -0.0784 -0.3635  0.7347
 1502TIP3    H125997   1.133   1.787  12.962 -0.6863 -1.6687 -1.3469
 1502TIP3    H225998   1.120   1.921  12.893 -1.0970 -1.6853 -1.3032
 1503TIP3   OH225999   6.352   5.768   0.822  0.6022 -0.2431 -0.1159
 1503TIP3    H126000   6.387   5.719   0.748 -1.2321 -3.0905  0.7629
 1503TIP3    H226001   6.289   5.829   0.782  2.0536  0.6479 -1.1304
 1504TIP3   OH226002   6.582   6.219   2.241  0.1016 -0.1881  0.3356
 1504TIP3    H126003   6.666   6.184   2.210  0.4431 -0.4283  1.5072
 1504TIP3    H226004   6.538   6.144   2.280 -0.1441  0.1971  0.8059
 1505TIP3   OH226005   1.187   3.926   6.186 -0.1041 -0.2768  0.0148
 1505TIP3    H126006   1.098   3.898   6.207 -0.0237 -0.9191 -0.4596
 1505TIP3    H226007   1.229   3.847   6.152  0.7635 -0.0821  0.5848
 1506TIP3   OH226008   4.113   1.166  13.795 -0.5369 -0.1320  0.0344
 1506TIP3    H126009   4.046   1.123  13.742 -0.7829  0.1358  0.1175
 1506TIP3    H226010   4.159   1.223  13.734  0.2010 -0.9698 -0.2036
 1507TIP3   OH226011   3.604   0.713   2.061  0.1249  0.0755  0.7151
 1507TIP3    H126012   3.587   0.677   2.148  1.9356  0.1270  1.1267
 1507TIP3    H226013   3.696   0.694   2.045 -0.0887  0.3853 -1.0578
 1508TIP3   OH226014   5.934   1.294   2.382 -0.6104 -0.4722 -0.0975
 1508TIP3    H126015   5.902   1.275   2.471 -0.8284 -0.2752 -0.1327
 1508TIP3    H226016   6.027   1.313   2.393 -0.9613  1.1542  0.3175
 1509TIP3   OH226017   6.433   4.300   2.855  0.6450 -0.2828 -0.7354
 1509TIP3    H126018   6.339   4.291   2.839  0.5514  0.7047 -0.7832
 1509TIP3    H226019   6.465   4.210   2.857 -0.6030 -0.7444  1.2309
 1510TIP3   OH226020   4.780   5.253   2.497  0.2057  0.3544 -0.4157
 1510TIP3    H126021   4.864   5.209   2.489 -0.3022 -0.4259 -1.8939
 1510TIP3    H226022   4.761   5.284   2.408 -1.0435  0.5402 -0.0981
 1511TIP3   OH226023   5.115   6.528  16.377  0.0132 -0.4585 -0.0187
 1511TIP3    H126024   5.053   6.536  16.305  2.2803  1.1174 -1.9593
 1511TIP3    H226025   5.097   6.603  16.434 -0.3434 -0.4452 -0.1486
 1512TIP3   OH226026   4.643   5.822   3.203 -0.4482  0.0142 -0.1259
 1512TIP3    H126027   4.582   5.795   3.271 -1.3013  0.9421 -0.5079
 1512TIP3    H226028   4.597   5.805   3.121 -0.0418  0.3594 -0.4329
 1513TIP3   OH226029   2.152   1.201   2.744 -0.3519 -0.0772 -0.1293
 1513TIP3    H126030   2.095   1.222   2.818 -0.7373 -2.3930  0.3226
 1513TIP3    H226031   2.241   1.208   2.778 -0.3749  2.0196 -0.3985
 1514TIP3   OH226032   5.419   3.487  12.831 -0.5158 -0.2294 -0.2048
 1514TIP3    H126033   5.447   3.575  12.857 -0.0030 -0.8531  1.4756
 1514TIP3    H226034   5.377   3.452  12.910  0.7781 -2.0948 -0.2960
 1515TIP3   OH226035   1.460   3.833   1.930  0.3463  0.0259  0.2770
 1515TIP3    H126036   1.419   3.755   1.891  0.7825  0.2696 -0.6882
 1515TIP3    H226037   1.454   3.817   2.025 -1.8550 -0.0045  0.1968
 1516TIP3   OH226038   3.034   4.306  12.049 -0.5273 -0.1133 -0.3754
 1516TIP3    H126039   3.120   4.300  12.090 -1.9805 -0.3948  2.9799
 1516TIP3    H226040   3.020   4.219  12.011  0.8444  0.1115 -1.4667
 1517TIP3   OH226041   5.629   3.550  14.243  0.1546  1.2152 -0.4124
 1517TIP3    H126042   5.557   3.612  14.229 -0.5323  0.4346 -0.3899
 1517TIP3    H226043   5.617   3.518  14.332  0.9085  1.5462 -0.1815
 1518TIP3   OH226044   4.755   3.718  13.232  0.5713  0.8442 -0.2173
 1518TIP3    H126045   4.765   3.812  13.247 -0.1474  0.5552  2.6359
 1518TIP3    H226046   4.844   3.685  13.228  0.8406  1.6870 -1.8408
 1519TIP3   OH226047   5.331   2.482  11.786 -0.1439  0.1930  0.2268
 1519TIP3    H126048   5.389   2.551  11.817  2.4807 -0.8871 -1.8729
 1519TIP3    H226049   5.297   2.514  11.703  0.3725 -0.5960 -0.3145
 1520TIP3   OH226050   0.811   0.260  16.293 -0.4026 -0.0117  0.4785
 1520TIP3    H126051   0.757   0.216  16.228 -1.0223 -0.3548  1.1995
 1520TIP3    H226052   0.810   0.352  16.267  1.1430 -0.4303 -1.2040
 1521TIP3   OH226053   5.457   0.442  13.524  0.6412  0.1626  0.6362
 1521TIP3    H126054   5.494   0.354  13.519  0.7320  0.2540 -0.4782
 1521TIP3    H226055   5.385   0.434  13.587 -0.8713 -1.2841 -1.1180
 1522TIP3   OH226056   6.744   6.051  11.353 -0.0177  0.2049 -0.3220
 1522TIP3    H126057   6.766   5.982  11.290 -2.0984  1.1208 -2.1646
 1522TIP3    H226058   6.676   6.012  11.408 -0.2832  0.3709 -0.5336
 1523TIP3   OH226059   5.627   1.294   4.311 -0.0515 -0.0503  0.0243
 1523TIP3    H126060   5.643   1.199   4.309  0.0646 -0.0367  0.2914
 1523TIP3    H226061   5.689   1.327   4.376 -0.3310  0.1661  0.1808
 1524TIP3   OH226062   4.870   5.724   3.538  0.2468  0.2289 -0.6759
 1524TIP3    H126063   4.876   5.810   3.581  0.6855 -0.2174  0.1695
 1524TIP3    H226064   4.806   5.676   3.590 -1.0806  0.5126 -1.9933
 1525TIP3   OH226065   5.852   6.095  16.144 -0.2911  0.5110 -0.0584
 1525TIP3    H126066   5.758   6.085  16.127 -0.4221  0.3922  0.6964
 1525TIP3    H226067   5.893   6.022  16.098 -0.8951 -1.5119  2.3896
 1526TIP3   OH226068   3.686   3.119  12.646 -0.3887  0.2930  0.2083
 1526TIP3    H126069   3.692   3.211  12.623  0.4627  0.2897  0.3751
 1526TIP3    H226070   3.756   3.077  12.596 -1.9236 -0.5861 -1.3153
 1527TIP3   OH226071   3.605   6.022   6.679  0.3820 -0.5759  0.1255
 1527TIP3    H126072   3.682   6.059   6.634  1.0636 -0.8152  1.0634
 1527TIP3    H226073   3.562   5.969   6.612 -1.5257  3.0241 -1.7908
 1528TIP3   OH226074   3.616   6.053   1.913 -0.2047  0.8194  0.1728
 1528TIP3    H126075   3.538   6.074   1.965 -0.5526 -1.0244  0.4923
 1528TIP3    H226076   3.690   6.075   1.970 -0.5687 -0.2051  1.0895
 1529TIP3   OH226077   3.618   5.365   5.973  0.1573 -0.0437 -0.3507
 1529TIP3    H126078   3.710   5.386   5.955 -0.2503  0.1223 -2.6523
 1529TIP3    H226079   3.595   5.419   6.048  1.7984  0.2976 -0.0539
 1530TIP3   OH226080   6.688   1.014  11.316 -0.3109 -0.1312  0.1461
 1530TIP3    H126081   6.597   1.045  11.313 -0.4408 -0.5162  0.0746
 1530TIP3    H226082   6.714   1.007  11.225  0.3719  1.6448  0.1662
 1531TIP3   OH226083   1.213   5.320   1.011  0.4055  0.1613 -0.9360
 1531TIP3    H126084   1.145   5.381   0.984  1.5086  2.8562  1.8360
 1531TIP3    H226085   1.175   5.273   1.085  0.9686  0.5171 -0.4117
 1532TIP3   OH226086   4.425   4.016   5.432 -0.4354 -0.2960 -0.6087
 1532TIP3    H126087   4.461   4.008   5.344  0.7179  0.8019 -0.2591
 1532TIP3    H226088   4.472   3.950   5.484  1.1911  1.1867 -0.1358
 1533TIP3   OH226089   1.376   6.367  15.959  0.3257  0.2003  0.3128
 1533TIP3    H126090   1.315   6.441  15.952  0.9857  0.6523 -1.3073
 1533TIP3    H226091   1.463   6.409  15.960  0.7040 -0.5392 -0.5705
 1534TIP3   OH226092   0.041   4.197   5.107 -0.1254 -0.1096  0.0338
 1534TIP3    H126093   0.057   4.103   5.115 -1.4377 -0.4110 -0.5538
 1534TIP3    H226094   0.111   4.229   5.051  1.2994 -0.4083  1.5526
 1535TIP3   OH226095   0.596   4.666   3.330  0.1955 -0.1766  0.2640
 1535TIP3    H126096   0.655   4.660   3.405  0.3090  0.0726  0.1927
 1535TIP3    H226097   0.604   4.581   3.287  1.8747  0.4600 -0.7806
 1536TIP3   OH226098   1.142   2.490   5.598 -0.3003  0.0457 -0.3143
 1536TIP3    H126099   1.208   2.521   5.660 -1.5734  1.4035  0.4286
 1536TIP3    H226100   1.060   2.527   5.630 -0.9180  1.5472 -3.2951
 1537TIP3   OH226101   6.808   5.986   4.685 -0.0646 -0.1027 -0.0330
 1537TIP3    H126102   6.731   5.964   4.738 -0.0964  0.4356  0.1439
 1537TIP3    H226103   6.793   5.939   4.602  0.3771 -1.5987  0.7047
 1538TIP3   OH226104   0.892   0.171  10.842  0.1389 -0.2528 -0.0962
 1538TIP3    H126105   0.892   0.231  10.917 -0.5314 -0.1776 -0.1526
 1538TIP3    H226106   0.984   0.149  10.829  0.7968  2.9518 -1.8396
 1539TIP3   OH226107   1.759   0.377  13.107 -0.2975  0.0236  0.3221
 1539TIP3    H126108   1.784   0.378  13.014 -0.6310 -4.2124  0.0108
 1539TIP3    H226109   1.672   0.417  13.109  0.7481  2.6288 -0.6378
 1540TIP3   OH226110   5.326   4.310   0.489 -0.4515  0.2178 -0.0466
 1540TIP3    H126111   5.310   4.387   0.434 -1.2950  0.3787  0.4155
 1540TIP3    H226112   5.350   4.241   0.428  3.1107  1.4852 -0.3483
 1541TIP3   OH226113   4.777   2.621   4.906 -0.1991  0.2750 -0.1884
 1541TIP3    H126114   4.689   2.585   4.893 -0.3051  0.8767 -1.2375
 1541TIP3    H226115   4.818   2.616   4.820  0.6765  0.3291  0.2172
 1542TIP3   OH226116   3.662   6.270  16.312 -0.0778  0.0389  0.0514
 1542TIP3    H126117   3.567   6.267  16.323  0.1582 -0.4012  2.4862
 1542TIP3    H226118   3.675   6.265  16.217 -2.4507 -0.7309 -0.3083
 1543TIP3   OH226119   5.085   1.404  12.790  0.8971 -0.7074 -0.3729
 1543TIP3    H126120   5.115   1.460  12.862  2.4212 -2.8798  0.7941
 1543TIP3    H226121   5.019   1.348  12.830 -0.4219  0.0467 -1.4561
 1544TIP3   OH226122   2.250   3.660   1.736 -0.3466  0.4279 -0.3704
 1544TIP3    H126123   2.210   3.581   1.771 -1.9700  0.9124 -1.0100
 1544TIP3    H226124   2.276   3.711   1.813 -1.6804  0.4206  0.1011
 1545TIP3   OH226125   6.123   4.490   1.257 -0.4441 -0.2481 -0.1163
 1545TIP3    H126126   6.129   4.530   1.170  0.5907  0.7725  0.3969
 1545TIP3    H226127   6.059   4.420   1.247 -1.0835  0.4932 -1.4643
 1546TIP3   OH226128   3.894   0.556   2.199 -0.3420  0.0453 -0.7318
 1546TIP3    H126129   3.881   0.627   2.137 -0.1715 -0.1142 -0.9555
 1546TIP3    H226130   3.883   0.476   2.146  0.7280 -0.0999 -0.7774
 1547TIP3   OH226131   0.463   0.659  11.693 -0.2346 -0.6619  0.4703
 1547TIP3    H126132   0.462   0.694  11.604  1.5046 -0.1782  0.6061
 1547TIP3    H226133   0.487   0.567  11.682 -0.5100 -0.7308  0.4220
 1548TIP3   OH226134   5.352   4.251  10.499 -0.5409 -0.8343  0.2340
 1548TIP3    H126135   5.278   4.243  10.438 -1.6121  0.6160  1.2791
 1548TIP3    H226136   5.367   4.161  10.529 -0.5930 -1.4344 -1.4273
 1549TIP3   OH226137   5.652   4.199   3.995  0.0073 -0.0564 -0.1386
 1549TIP3    H126138   5.574   4.170   4.041 -0.6891  0.4372 -0.9782
 1549TIP3    H226139   5.721   4.198   4.061 -0.2164 -2.4912  0.1347
 1550TIP3   OH226140   0.151   5.126   0.834  0.7346  0.9011 -0.4060
 1550TIP3    H126141   0.087   5.055   0.843  0.5896  1.1516  0.6527
 1550TIP3    H226142   0.129   5.187   0.904 -0.6394  3.1969 -2.6830
 1551TIP3   OH226143   1.571   0.499   3.360  0.1731 -0.4393  0.0284
 1551TIP3    H126144   1.596   0.415   3.398  1.5154 -1.0532 -2.0388
 1551TIP3    H226145   1.523   0.476   3.280 -1.0083  0.7735  0.3703
 1552TIP3   OH226146   6.294   2.304  16.240 -0.2405 -0.3467  0.2175
 1552TIP3    H126147   6.199   2.300  16.227 -0.0313 -0.2076 -1.7744
 1552TIP3    H226148   6.323   2.213  16.231 -0.0368 -0.1880 -0.9740
 1553TIP3   OH226149   1.364   6.249  15.366 -0.1509  0.1778  0.4249
 1553TIP3    H126150   1.317   6.279  15.444 -0.8778  2.1276 -0.6822
 1553TIP3    H226151   1.398   6.329  15.326  1.2688 -0.8831 -0.6157
 1554TIP3   OH226152   1.364   4.909  11.721  0.6595  0.0394  0.0299
 1554TIP3    H126153   1.323   4.901  11.807 -1.4125 -1.7484 -1.0158
 1554TIP3    H226154   1.322   4.985  11.681  0.1570 -0.3003 -0.1035
 1555TIP3   OH226155   2.423   5.439   1.591 -0.3344  0.3566  0.0225
 1555TIP3    H126156   2.497   5.450   1.650 -0.5694  1.0728  0.1925
 1555TIP3    H226157   2.347   5.470   1.641 -0.9774 -1.5516  0.3303
 1556TIP3   OH226158   5.032   5.431  10.252  0.0138  0.6548 -0.1992
 1556TIP3    H126159   4.951   5.473  10.221  0.5484  2.4241  0.6866
 1556TIP3    H226160   5.016   5.337  10.240 -2.8281  0.8194  1.5004
 1557TIP3   OH226161   0.572   4.096   5.431  0.3849  0.4433  0.4992
 1557TIP3    H126162   0.619   4.016   5.406  0.3004 -0.5349  3.0879
 1557TIP3    H226163   0.631   4.141   5.491 -0.9197  0.5000  1.8010
 1558TIP3   OH226164   0.729   5.786  13.073  0.4113  0.2578  0.2287
 1558TIP3    H126165   0.749   5.877  13.048  0.1737  1.0995  2.8451
 1558TIP3    H226166   0.814   5.743  13.075  0.7889  1.0121  1.0530
 1559TIP3   OH226167   4.774   1.368  11.933 -0.4382 -0.0006 -0.1582
 1559TIP3    H126168   4.774   1.438  11.867  1.6687  0.1158 -0.0778
 1559TIP3    H226169   4.829   1.402  12.003 -0.1025 -1.4084  0.2771
 1560TIP3   OH226170   4.685   0.162  11.378  0.1725 -0.1942 -0.0248
 1560TIP3    H126171   4.610   0.208  11.416  0.1712  1.0701 -1.4482
 1560TIP3    H226172   4.660   0.149  11.286  1.1002 -1.0792 -0.1580
 1561TIP3   OH226173   5.028   4.719   5.832 -0.4583  0.0251  0.0980
 1561TIP3    H126174   5.043   4.753   5.744 -1.4451  0.3172  0.0291
 1561TIP3    H226175   5.026   4.624   5.822 -0.4656  0.0560 -0.1855
 1562TIP3   OH226176   5.029   0.792  11.151  0.6615  0.1032 -0.4503
 1562TIP3    H126177   5.014   0.883  11.127  2.8480 -0.2001 -3.6497
 1562TIP3    H226178   5.125   0.782  11.152  0.5448 -1.7381  1.8659
 1563TIP3   OH226179   3.073   0.420  11.205 -0.4774 -0.1631  0.3404
 1563TIP3    H126180   3.026   0.339  11.187  1.7639 -1.6326  0.6000
 1563TIP3    H226181   3.119   0.439  11.122  0.6563 -0.3796  0.8967
 1564TIP3   OH226182   6.006   3.531   4.085 -0.0446  0.1734 -0.1098
 1564TIP3    H126183   5.977   3.448   4.049  1.7666 -0.3181 -0.5498
 1564TIP3    H226184   6.006   3.591   4.010  1.1118 -0.1412 -0.3924
 1565TIP3   OH226185   4.635   0.878   5.013 -0.2653  0.2570 -0.1568
 1565TIP3    H126186   4.675   0.889   4.927  2.6730 -1.4418  0.8584
 1565TIP3    H226187   4.583   0.957   5.026 -0.5496  0.7153 -3.3145
 1566TIP3   OH226188   5.632   1.946  13.844  0.0910 -0.3844 -0.4980
 1566TIP3    H126189   5.641   2.039  13.863 -0.9696  0.0918 -2.0919
 1566TIP3    H226190   5.636   1.940  13.748 -2.4042 -1.6158 -0.6131
 1567TIP3   OH226191   6.612   6.336  13.130  0.1295  0.1530  0.9400
 1567TIP3    H126192   6.581   6.281  13.059 -1.8092  2.2144  0.0342
 1567TIP3    H226193   6.676   6.283  13.176 -1.0372 -2.5201 -0.2950
 1568TIP3   OH226194   6.192   4.936  14.716 -0.0386  0.2039 -0.9088
 1568TIP3    H126195   6.279   4.899  14.726 -0.2664 -0.3386 -0.8999
 1568TIP3    H226196   6.171   4.973  14.802  0.1614  0.3020 -0.9005
 1569TIP3   OH226197   0.794   3.406   1.347  0.9003  0.0390  0.2651
 1569TIP3    H126198   0.748   3.450   1.275 -0.5272 -2.0128 -0.2002
 1569TIP3    H226199   0.771   3.456   1.425  1.5380  1.6416 -0.5439
 1570TIP3   OH226200   5.222   1.745   3.224 -0.1140 -0.1472  0.7520
 1570TIP3    H126201   5.252   1.719   3.311  0.7312 -2.6099 -0.2001
 1570TIP3    H226202   5.137   1.787   3.240  1.1156  1.7417  2.9566
 1571TIP3   OH226203   3.924   0.869  14.708 -0.0994  0.3087 -0.4342
 1571TIP3    H126204   3.882   0.783  14.712 -0.7359  0.6795  1.3301
 1571TIP3    H226205   4.018   0.849  14.705 -0.1383 -0.4716  1.7965
 1572TIP3   OH226206   1.020   5.810  15.183  0.0365  0.3700 -0.5013
 1572TIP3    H126207   1.054   5.899  15.192 -1.4175  0.8360  0.6651
 1572TIP3    H226208   1.086   5.755  15.226  1.7478  0.6383 -2.6070
 1573TIP3   OH226209   6.292   4.775  15.078  0.2290  0.1203  0.5294
 1573TIP3    H126210   6.382   4.796  15.103 -0.5794  2.1016  2.0948
 1573TIP3    H226211   6.266   4.706  15.138  0.9090 -1.0063 -0.4350
 1574TIP3   OH226212   4.753   5.364  12.931 -0.3536 -0.2812 -0.2891
 1574TIP3    H126213   4.714   5.445  12.963  0.3248 -0.0998  0.1036
 1574TIP3    H226214   4.794   5.325  13.008 -0.9040 -1.1408 -0.4121
 1575TIP3   OH226215   3.036   2.791   6.596  0.8861 -0.2059  0.3757
 1575TIP3    H126216   2.996   2.708   6.623  0.6516  0.1625  1.1909
 1575TIP3    H226217   3.020   2.850   6.669  0.5724  0.7236 -0.4188
 1576TIP3   OH226218   1.376   1.478   3.451 -0.0763  0.0761  0.7701
 1576TIP3    H126219   1.381   1.385   3.430  0.7879  0.1166  0.7665
 1576TIP3    H226220   1.454   1.495   3.504  1.5607  1.4555 -1.8577
 1577TIP3   OH226221   2.147   3.601  11.650 -0.7184  0.3677  0.4916
 1577TIP3    H126222   2.147   3.520  11.702  1.7941 -1.6059 -2.1968
 1577TIP3    H226223   2.110   3.575  11.566  0.7222  1.8098 -0.6575
 1578TIP3   OH226224   6.048   5.667   4.999 -0.4285 -0.0027  0.2662
 1578TIP3    H126225   6.129   5.711   4.976 -0.6175 -0.3402 -1.1568
 1578TIP3    H226226   6.075   5.579   5.026 -0.2770  0.0679  0.3456
 1579TIP3   OH226227   3.413   4.705   5.066 -1.0028 -0.0368  0.1237
 1579TIP3    H126228   3.448   4.693   4.978 -0.5444  2.6207 -0.1487
 1579TIP3    H226229   3.349   4.635   5.077  0.3613 -1.6298 -1.5252
 1580TIP3   OH226230   6.496   6.687   5.822  0.4798 -0.1754  0.5412
 1580TIP3    H126231   6.579   6.730   5.842  0.5793 -0.8817  1.6885
 1580TIP3    H226232   6.463   6.657   5.906 -0.7121 -0.3310  0.0385
 1581TIP3   OH226233   3.188   1.234   1.511  0.6831  0.4062  0.1902
 1581TIP3    H126234   3.108   1.287   1.501  0.3920 -0.1497 -0.4325
 1581TIP3    H226235   3.177   1.161   1.451  1.4324  0.0359  0.4880
 1582TIP3   OH226236   0.898   0.263   0.394  0.0374 -0.2114  0.3830
 1582TIP3    H126237   0.914   0.267   0.300  0.7692  1.3114  0.5407
 1582TIP3    H226238   0.821   0.207   0.403 -0.4376  0.1385 -1.1760
 1583TIP3   OH226239   3.489   5.471   0.612 -0.2963  0.7784  1.0295
 1583TIP3    H126240   3.566   5.415   0.616 -0.1991  0.5275 -1.9158
 1583TIP3    H226241   3.522   5.560   0.625  0.2261  0.5361  1.3860
 1584TIP3   OH226242   3.674   4.533  16.094  0.3591  0.1127  0.2095
 1584TIP3    H126243   3.611   4.534  16.022  0.1208 -1.4211  0.3537
 1584TIP3    H226244   3.628   4.572  16.168 -0.5272 -1.1311  0.3591
 1585TIP3   OH226245   5.190   2.059   5.073 -0.4876 -0.2054 -0.1754
 1585TIP3    H126246   5.245   2.068   5.150 -1.4673  0.7156  0.4548
 1585TIP3    H226247   5.116   2.007   5.102  0.0282 -1.4573 -1.0206
 1586TIP3   OH226248   2.866   2.186  12.803 -0.4217  0.3216  0.0829
 1586TIP3    H126249   2.819   2.256  12.850 -0.4523  0.9037 -0.7801
 1586TIP3    H226250   2.957   2.216  12.800  0.1460 -1.0183  2.1512
 1587TIP3   OH226251   0.611   6.421  12.488  0.2678 -0.0227 -0.0204
 1587TIP3    H126252   0.573   6.427  12.576 -0.2227 -1.4165 -0.1039
 1587TIP3    H226253   0.705   6.413  12.503  0.0786 -1.6989  0.4855
 1588TIP3   OH226254   0.984   0.351  16.730  0.0487  0.4197 -0.4566
 1588TIP3    H126255   0.915   0.379  16.670  1.0643  1.4899 -1.1517
 1588TIP3    H226256   1.034   0.287  16.681  1.2118  1.6991 -0.9895
 1589TIP3   OH226257   2.914   5.214  14.634  0.2847 -0.3937 -0.0354
 1589TIP3    H126258   2.882   5.193  14.722  1.1935 -0.6779  0.2403
 1589TIP3    H226259   2.874   5.147  14.578 -0.6578  0.0562  0.0729
 1590TIP3   OH226260   5.628   6.311   4.994 -0.6529 -0.5551  0.1096
 1590TIP3    H126261   5.565   6.367   5.039 -0.4183  0.4716 -0.7807
 1590TIP3    H226262   5.587   6.225   4.991 -0.9364 -0.5000  1.7028
 1591TIP3   OH226263   2.704   2.653  10.937  0.4899  0.1107 -0.0767
 1591TIP3    H126264   2.652   2.668  10.858 -0.0001 -1.1626 -0.0098
 1591TIP3    H226265   2.639   2.637  11.005  0.9277 -1.9403 -0.0773
 1592TIP3   OH226266   3.390   4.471   1.462 -0.5239  0.0994 -0.0183
 1592TIP3    H126267   3.374   4.448   1.371 -3.9989  1.1030  0.1744
 1592TIP3    H226268   3.411   4.564   1.461 -1.0415  0.2212  0.2329
 1593TIP3   OH226269   3.838   6.062   4.125 -0.1194  0.2132  0.2409
 1593TIP3    H126270   3.750   6.084   4.153 -0.5069 -0.1590 -0.6538
 1593TIP3    H226271   3.826   6.008   4.047  0.8503 -1.5476  1.2589
 1594TIP3   OH226272   4.739   4.140  11.894  0.8415  0.6007 -0.7798
 1594TIP3    H126273   4.705   4.146  11.805  0.0154 -1.3916 -0.6261
 1594TIP3    H226274   4.788   4.058  11.896  0.2214  0.2309  0.7947
 1595TIP3   OH226275   6.734   3.659   5.264 -0.7728  0.6019 -0.2099
 1595TIP3    H126276   6.813   3.647   5.316 -0.2305  3.5459 -0.1662
 1595TIP3    H226277   6.671   3.597   5.300  0.9020 -0.4073  1.0773
 1596TIP3   OH226278   0.101   1.964   1.036  0.2302  0.5345 -0.4622
 1596TIP3    H126279   0.081   1.891   0.978 -0.5975 -0.1365  0.6375
 1596TIP3    H226280   0.196   1.958   1.050  0.1060 -0.6151 -0.0181
 1597TIP3   OH226281   3.616   5.373  10.898 -0.2662  0.1704  0.2116
 1597TIP3    H126282   3.619   5.415  10.811  1.9242 -1.3794 -0.5617
 1597TIP3    H226283   3.572   5.289  10.882 -0.0828 -0.0103  0.6564
 1598TIP3   OH226284   3.094   4.985   4.467  0.5767 -0.4225  0.3658
 1598TIP3    H126285   3.115   4.976   4.560  0.3504  2.4658  0.7785
 1598TIP3    H226286   3.172   5.025   4.429 -0.3649  1.0433 -0.0869
 1599TIP3   OH226287   4.497   5.505  16.097  0.1568 -0.2889  0.0298
 1599TIP3    H126288   4.564   5.450  16.139 -0.5411 -0.6347  0.7161
 1599TIP3    H226289   4.415   5.461  16.116 -0.2954  0.2759 -0.5849
 1600TIP3   OH226290   4.978   5.802  13.202 -0.1378  0.3261 -0.1528
 1600TIP3    H126291   4.984   5.785  13.108 -0.8328  0.3429 -0.2087
 1600TIP3    H226292   5.062   5.841  13.226 -0.6992  2.2265 -1.1659
 1601TIP3   OH226293   2.714   2.622   6.475 -0.7277 -0.3257 -0.2435
 1601TIP3    H126294   2.738   2.713   6.457 -0.3704 -0.0384  1.4861
 1601TIP3    H226295   2.624   2.615   6.445 -0.9742  0.8007  0.1565
 1602TIP3   OH226296   6.638   4.056   5.020 -0.6885  0.1401  0.6449
 1602TIP3    H126297   6.641   3.974   5.068 -0.5168 -0.0434  0.3214
 1602TIP3    H226298   6.720   4.100   5.043  0.1183 -0.6251 -0.6687
 1603TIP3   OH226299   0.832   1.654  14.372 -0.1080  0.0425  0.0808
 1603TIP3    H126300   0.845   1.566  14.407 -0.3134 -0.0862 -0.1627
 1603TIP3    H226301   0.845   1.645  14.278 -1.0038  0.0856 -0.0604
 1604TIP3   OH226302   6.229   5.824  16.432 -0.1624 -0.7926  0.1023
 1604TIP3    H126303   6.152   5.868  16.468 -1.5073 -2.3119 -0.7901
 1604TIP3    H226304   6.265   5.887  16.369  0.9863  1.0264  2.3898
 1605TIP3   OH226305   3.421   2.610   4.693 -0.2031  0.4858 -0.2253
 1605TIP3    H126306   3.425   2.522   4.730 -2.2310  1.1748  1.8753
 1605TIP3    H226307   3.486   2.610   4.623  1.9675 -1.7684  1.6222
 1606TIP3   OH226308   5.575   2.031   4.738  0.3262  0.2743 -0.0735
 1606TIP3    H126309   5.520   1.980   4.796 -1.4175  0.8549 -1.1279
 1606TIP3    H226310   5.561   1.992   4.651  0.3711  1.3896 -0.6018
 1607TIP3   OH226311   4.133   0.806  13.621 -0.0175  0.2782 -0.1636
 1607TIP3    H126312   4.202   0.792  13.556  0.3519  0.7204  0.1291
 1607TIP3    H226313   4.059   0.754  13.588  1.4957 -3.0949  1.2677
 1608TIP3   OH226314   6.354   3.950  17.102  0.6917 -0.0005 -0.3753
 1608TIP3    H126315   6.376   3.865  17.142 -1.5217 -0.0186  0.9419
 1608TIP3    H226316   6.300   3.928  17.027  0.1186  0.2295 -0.0332
 1609TIP3   OH226317   3.502   6.081  12.435  0.2414 -0.2128  0.8972
 1609TIP3    H126318   3.538   6.133  12.506  3.1038 -1.2551  0.3230
 1609TIP3    H226319   3.574   6.069  12.373 -1.6735 -0.7181 -1.4239
 1610TIP3   OH226320   2.919   0.370   5.530  0.3642 -0.3486 -0.3885
 1610TIP3    H126321   2.943   0.460   5.553  0.4220  0.1118 -2.1025
 1610TIP3    H226322   2.951   0.359   5.440 -4.4483 -0.1035 -2.4449
 1611TIP3   OH226323   1.414   6.816  17.109  0.4373 -0.4307  0.4456
 1611TIP3    H126324   1.454   6.755  17.172 -0.3824 -1.4011  0.0524
 1611TIP3    H226325   1.411   6.767  17.027  0.0804  0.2710  0.0350
 1612TIP3   OH226326   3.515   3.895   3.218  0.0024 -0.1730 -0.1102
 1612TIP3    H126327   3.514   3.802   3.239  0.1420  0.2965  2.2478
 1612TIP3    H226328   3.513   3.939   3.303  0.5403  1.9790 -1.1389
 1613TIP3   OH226329   2.803   6.113  14.092  0.0991 -0.1305  0.1024
 1613TIP3    H126330   2.840   6.057  14.024 -0.8122  0.1780 -0.6607
 1613TIP3    H226331   2.816   6.202  14.059  0.1295  0.0487  0.5834
 1614TIP3   OH226332   5.411   6.644  15.430  0.3648 -0.1406 -0.6742
 1614TIP3    H126333   5.341   6.646  15.365  2.1519 -0.3368 -2.6999
 1614TIP3    H226334   5.375   6.593  15.502 -1.5523 -0.2637 -1.6496
 1615TIP3   OH226335   2.284   1.538   1.964  0.5203  0.4351  0.1178
 1615TIP3    H126336   2.272   1.632   1.956  0.6495  0.4445  0.0320
 1615TIP3    H226337   2.369   1.521   1.924  0.5303  0.2922  0.1977
 1616TIP3   OH226338   2.488   5.460   0.324  0.2848 -0.0891 -0.1301
 1616TIP3    H126339   2.402   5.494   0.300  0.4406  0.3492 -0.0788
 1616TIP3    H226340   2.508   5.502   0.407  1.0463  0.7058 -0.6945
 1617TIP3   OH226341   2.871   0.482  12.134 -0.1360 -0.4356 -0.4162
 1617TIP3    H126342   2.834   0.566  12.106  0.1226 -0.1693  0.0348
 1617TIP3    H226343   2.804   0.445  12.192  0.7188  0.5310  1.2551
 1618TIP3   OH226344   3.286   3.641  14.933  0.1530  0.4089 -0.1285
 1618TIP3    H126345   3.290   3.679  14.845  1.0396  0.7944  0.0764
 1618TIP3    H226346   3.224   3.697  14.980  0.2029  0.6126 -0.3047
 1619TIP3   OH226347   0.782   2.496   4.784  0.2240  0.0905 -0.0336
 1619TIP3    H126348   0.870   2.489   4.822  0.5699  2.0500 -0.3600
 1619TIP3    H226349   0.731   2.428   4.828  1.2155  0.7014  2.1717
 1620TIP3   OH226350   4.553   4.952   0.006  0.8922 -0.4823  0.4622
 1620TIP3    H126351   4.638   4.966   0.048  0.9965 -0.8900  0.3874
 1620TIP3    H226352   4.552   5.014  -0.068  1.3797 -0.9078  0.0945
 1621TIP3   OH226353   4.293   2.683  15.589  0.4449  0.0589  0.3561
 1621TIP3    H126354   4.208   2.725  15.594 -1.2275 -2.6445 -1.7980
 1621TIP3    H226355   4.316   2.687  15.496  3.0232  1.1788  0.9371
 1622TIP3   OH226356   5.811   5.155  17.153 -0.1923 -0.2414  0.6669
 1622TIP3    H126357   5.816   5.194  17.240  0.9786  0.1494  0.4339
 1622TIP3    H226358   5.778   5.226  17.097 -3.4707 -1.1877  1.1784
 1623TIP3   OH226359   2.653   0.572  17.056 -0.0580 -0.1780  0.0929
 1623TIP3    H126360   2.579   0.551  17.112 -1.0911  0.9221 -0.8062
 1623TIP3    H226361   2.728   0.574  17.115 -0.8407 -0.6910  1.1343
 1624TIP3   OH226362   5.357   4.202   5.232  0.1867  0.6177  0.2616
 1624TIP3    H126363   5.342   4.286   5.274  2.5132  0.8727  0.7164
 1624TIP3    H226364   5.404   4.150   5.298  4.8951  1.3642 -2.0780
 1625TIP3   OH226365   1.660   4.501   0.183  0.0814 -0.0497  0.4866
 1625TIP3    H126366   1.625   4.509   0.094 -0.8369  0.3143  0.8709
 1625TIP3    H226367   1.703   4.415   0.183 -1.0231 -0.6301  0.0525
 1626TIP3   OH226368   0.258   3.858  16.114 -0.4478 -0.1806 -0.2266
 1626TIP3    H126369   0.179   3.909  16.131 -0.1188 -0.1337  1.2769
 1626TIP3    H226370   0.257   3.790  16.182  1.9754  1.2205  1.3529
 1627TIP3   OH226371   0.603   3.377   0.416 -0.1282  0.4300 -0.1411
 1627TIP3    H126372   0.575   3.380   0.508  1.3106  0.1725  0.3222
 1627TIP3    H226373   0.562   3.297   0.382  1.1681 -0.7279  0.9232
 1628TIP3   OH226374   5.878   0.294   5.022 -0.1715  0.2024 -0.0307
 1628TIP3    H126375   5.920   0.309   5.107 -0.2197 -1.4964  0.3273
 1628TIP3    H226376   5.786   0.280   5.043 -0.4958  1.4211 -0.5577
 1629TIP3   OH226377   3.360   3.158  12.884 -0.4434 -0.0866 -0.4546
 1629TIP3    H126378   3.333   3.151  12.975  1.6843 -0.1095  0.2238
 1629TIP3    H226379   3.382   3.068  12.858 -2.6981 -0.3823 -1.6033
 1630TIP3   OH226380   6.416   4.047   3.582  0.1275  0.4646 -0.0305
 1630TIP3    H126381   6.485   4.053   3.516  1.1889 -2.1881  0.7433
 1630TIP3    H226382   6.346   4.103   3.547  2.0629  2.1507 -1.5097
 1631TIP3   OH226383   3.580   1.352  13.672 -0.3599  0.1896  0.5980
 1631TIP3    H126384   3.650   1.408  13.641 -1.1793 -0.5891 -3.1371
 1631TIP3    H226385   3.507   1.411  13.688 -0.1127  0.5583  0.3660
 1632TIP3   OH226386   4.789   4.324   2.591  0.5766 -0.2473 -0.4084
 1632TIP3    H126387   4.719   4.262   2.572  1.0275 -0.2317 -2.3850
 1632TIP3    H226388   4.745   4.401   2.626 -0.4520 -0.1787 -1.7744
 1633TIP3   OH226389   4.129   6.055  14.973  0.0882  0.3925 -0.2069
 1633TIP3    H126390   4.186   5.984  15.003 -1.0310 -0.8233 -0.8003
 1633TIP3    H226391   4.049   6.044  15.025  0.0599  1.5315  0.0112
 1634TIP3   OH226392   1.853   3.939  15.647  0.0464 -0.5466 -0.0044
 1634TIP3    H126393   1.798   3.926  15.724  0.3237  0.8389  0.4507
 1634TIP3    H226394   1.793   3.934  15.573 -1.0246  2.3782  0.5529
 1635TIP3   OH226395   5.267   3.454  14.138  0.8784 -0.1579  0.2717
 1635TIP3    H126396   5.246   3.505  14.217  1.1882  0.3552  0.0350
 1635TIP3    H226397   5.184   3.415  14.111  0.4038  1.0855 -0.1354
 1636TIP3   OH226398   3.044   6.140   4.609 -0.3842  0.0993 -0.6649
 1636TIP3    H126399   3.087   6.224   4.628 -2.0476  0.3995  2.5340
 1636TIP3    H226400   2.953   6.164   4.594 -0.6502 -1.0301 -0.8708
 1637TIP3   OH226401   3.895   0.736   4.345 -0.1898 -0.2674 -0.4467
 1637TIP3    H126402   3.942   0.688   4.413 -0.7692 -0.7339 -0.3653
 1637TIP3    H226403   3.848   0.805   4.393  0.0802 -0.0532 -0.4827
 1638TIP3   OH226404   3.357   0.225  12.477 -0.0295 -0.1605 -0.4570
 1638TIP3    H126405   3.274   0.178  12.489 -0.0066  0.4186  3.1418
 1638TIP3    H226406   3.422   0.156  12.466 -0.6655 -0.7391 -0.6616
 1639TIP3   OH226407   4.003   5.971  13.723  0.7397 -0.6554 -0.5574
 1639TIP3    H126408   3.972   5.929  13.643  0.3742  0.2226 -0.8811
 1639TIP3    H226409   4.087   6.009  13.699 -0.4674  1.7633 -1.2761
 1640TIP3   OH226410   2.606   6.671   0.892  0.4363 -0.2091 -0.1313
 1640TIP3    H126411   2.553   6.739   0.934  1.3805  0.9960 -0.7960
 1640TIP3    H226412   2.648   6.625   0.964  2.0779  1.8563  0.3605
 1641TIP3   OH226413   5.806   0.825  14.463 -0.0021 -0.1015 -0.2432
 1641TIP3    H126414   5.782   0.764  14.532 -1.7631  0.5874 -0.1957
 1641TIP3    H226415   5.764   0.789  14.384  2.4383 -1.1906 -1.1487
 1642TIP3   OH226416   6.730   2.105   3.004 -0.8732  0.1337  0.4840
 1642TIP3    H126417   6.687   2.073   3.083  0.1199 -0.2102  0.8940
 1642TIP3    H226418   6.785   2.177   3.033 -0.7928  0.2577  0.0369
 1643TIP3   OH226419   0.257   4.263  15.210  0.0412  0.4922 -0.7912
 1643TIP3    H126420   0.256   4.202  15.284  0.1855 -1.6169 -2.4465
 1643TIP3    H226421   0.346   4.297  15.209  0.0499  0.5224 -0.0289
 1644TIP3   OH226422   3.004   6.182   5.736  0.4462  0.0683 -0.0303
 1644TIP3    H126423   3.081   6.125   5.728  0.8948  0.8196 -1.3189
 1644TIP3    H226424   2.999   6.203   5.830  1.7988 -0.0118  0.0808
 1645TIP3   OH226425   6.723   1.481   3.709 -0.4853  0.5438 -0.0157
 1645TIP3    H126426   6.814   1.472   3.740 -0.3471 -0.8247 -0.7774
 1645TIP3    H226427   6.670   1.442   3.778 -0.2775 -1.1920 -0.8029
 1646TIP3   OH226428   0.670   6.411  14.357 -0.1188  0.4231 -0.1592
 1646TIP3    H126429   0.714   6.458  14.429  0.6804 -0.2363 -0.2030
 1646TIP3    H226430   0.740   6.395  14.294 -0.1635 -1.6338  0.2663
 1647TIP3   OH226431   5.172   5.839   4.304 -0.0917  0.5129  0.3971
 1647TIP3    H126432   5.135   5.796   4.381  0.3905 -0.9731 -0.1667
 1647TIP3    H226433   5.177   5.770   4.237 -1.9007  2.0836 -1.4975
 1648TIP3   OH226434   4.982   4.954  13.895 -0.2846  0.1066 -0.2408
 1648TIP3    H126435   4.979   5.045  13.863  1.1554  0.0312 -0.6799
 1648TIP3    H226436   4.948   4.959  13.984 -2.3846  0.6849 -1.0233
 1649TIP3   OH226437   5.884   4.358   3.046  0.1695  0.8685  0.5340
 1649TIP3    H126438   5.810   4.298   3.054  0.6757  0.2970  1.0583
 1649TIP3    H226439   5.848   4.444   3.070 -0.2229  0.5234  1.2306
 1650TIP3   OH226440   0.787   6.058   2.432  0.3106  0.6906 -0.2277
 1650TIP3    H126441   0.839   6.068   2.352  1.0545 -2.1134 -0.1866
 1650TIP3    H226442   0.715   6.000   2.406 -0.1696  0.7912  0.8483
 1651TIP3   OH226443   6.217   6.464   1.764 -0.3796  0.6993  0.4624
 1651TIP3    H126444   6.276   6.422   1.702  0.2832  0.2244  1.3776
 1651TIP3    H226445   6.143   6.404   1.772  0.0775  0.1891  0.9822
 1652TIP3   OH226446   4.519   3.818   3.768  0.0594 -0.0750 -0.3003
 1652TIP3    H126447   4.443   3.876   3.777 -0.2801 -0.7439  1.4690
 1652TIP3    H226448   4.528   3.806   3.673 -0.3859  2.1456 -0.6781
 1653TIP3   OH226449   5.068   2.946  16.142  0.5656 -0.1290 -1.0537
 1653TIP3    H126450   5.059   2.913  16.231  0.8516  1.2412 -0.4957
 1653TIP3    H226451   5.162   2.942  16.124  0.3363 -2.3418 -2.0999
 1654TIP3   OH226452   0.149   4.043  17.148  0.4445  0.2543 -0.1788
 1654TIP3    H126453   0.117   3.971  17.203  0.7019 -0.2018 -0.6180
 1654TIP3    H226454   0.110   4.027  17.062 -0.0369  1.0216 -0.1184
 1655TIP3   OH226455   2.560   5.423   2.433 -0.3306 -0.1570  0.5116
 1655TIP3    H126456   2.640   5.379   2.408 -0.7549 -0.4163 -0.4164
 1655TIP3    H226457   2.584   5.516   2.439  0.4006 -0.3970  1.8217
 1656TIP3   OH226458   6.443   3.488  14.695  0.1264 -0.3284  0.0274
 1656TIP3    H126459   6.499   3.529  14.629 -0.4704 -0.1097 -0.3433
 1656TIP3    H226460   6.443   3.395  14.672 -0.8341 -0.1224 -0.8460
 1657TIP3   OH226461   4.626   5.031   4.394 -1.1465 -0.2685 -0.1414
 1657TIP3    H126462   4.713   5.066   4.374 -1.1617  0.0497  0.3376
 1657TIP3    H226463   4.636   4.988   4.479 -1.2618 -0.9526 -0.4696
 1658TIP3   OH226464   1.589   2.799   4.037  0.6538  0.0651 -0.1769
 1658TIP3    H126465   1.625   2.714   4.062  1.8277  0.0616 -1.7224
 1658TIP3    H226466   1.665   2.858   4.040  0.5522  0.3558 -2.1807
 1659TIP3   OH226467   1.056   3.581  12.406 -0.2908 -0.7659  0.0582
 1659TIP3    H126468   1.025   3.491  12.411 -0.0645 -0.8003  1.2226
 1659TIP3    H226469   0.977   3.632  12.386 -0.8932 -1.0053  1.6217
 1660TIP3   OH226470   0.089   4.321  13.522  0.0926  0.2412 -0.0260
 1660TIP3    H126471   0.143   4.315  13.443  0.6956  0.7743  0.3360
 1660TIP3    H226472   0.003   4.351  13.490  0.8019  2.1021 -0.3117
 1661TIP3   OH226473   3.439   4.441  16.434  0.1816  0.7031 -0.7064
 1661TIP3    H126474   3.491   4.510  16.393 -1.1289  1.5651 -0.9829
 1661TIP3    H226475   3.369   4.488  16.480 -0.6664 -0.4395 -0.7908
 1662TIP3   OH226476   3.546   2.280  12.377  0.3083  0.0437  0.0538
 1662TIP3    H126477   3.540   2.373  12.397  0.0951  0.1865 -0.6303
 1662TIP3    H226478   3.516   2.273  12.286 -3.9080 -1.2173  1.3279
 1663TIP3   OH226479   6.399   1.863  10.477  0.5839 -0.6652  0.1222
 1663TIP3    H126480   6.398   1.771  10.451  0.4857 -0.3291 -1.1205
 1663TIP3    H226481   6.370   1.911  10.399  0.0771  0.3825  0.9256
 1664TIP3   OH226482   5.134   4.786   1.027  0.0274  0.6345  0.4281
 1664TIP3    H126483   5.078   4.863   1.018 -1.0735  0.0183  1.5882
 1664TIP3    H226484   5.186   4.803   1.106  1.4080  1.1280 -0.5457
 1665TIP3   OH226485   5.594   1.256  13.443  0.1461 -0.8662  0.0336
 1665TIP3    H126486   5.648   1.255  13.365 -0.5616 -2.4607 -0.4794
 1665TIP3    H226487   5.627   1.185  13.497  0.5262  0.1135  1.1426
 1666TIP3   OH226488   1.807   0.237   4.408 -0.0548 -0.9840 -0.0093
 1666TIP3    H126489   1.787   0.324   4.444  1.4734  0.0331 -1.4894
 1666TIP3    H226490   1.849   0.191   4.481 -1.3750 -0.7230  0.9673
 1667TIP3   OH226491   1.566   4.688  14.976  0.1404 -0.4086 -0.3751
 1667TIP3    H126492   1.533   4.771  15.010 -1.4171 -0.7584 -0.9663
 1667TIP3    H226493   1.490   4.630  14.973  1.1714 -1.8608 -0.0531
 1668TIP3   OH226494   6.522   0.094   1.953  0.6776  0.5486 -0.0007
 1668TIP3    H126495   6.513   0.018   1.895 -0.3315  0.8552 -0.2725
 1668TIP3    H226496   6.555   0.163   1.895  0.5061  0.6154 -0.0215
 1669TIP3   OH226497   2.867   4.244  14.242  0.3360 -0.0024  0.8675
 1669TIP3    H126498   2.882   4.199  14.159 -2.4538 -0.4470  0.4862
 1669TIP3    H226499   2.822   4.178  14.296 -0.3132  1.0974  1.7125
 1670TIP3   OH226500   6.619   5.226   4.997  0.3846  0.9259 -0.3447
 1670TIP3    H126501   6.593   5.197   5.084 -2.9723 -1.1346 -1.7897
 1670TIP3    H226502   6.714   5.227   4.999  0.4522  0.5744  3.1875
 1671TIP3   OH226503   3.018   4.239   5.483 -0.5969 -0.6662 -0.3575
 1671TIP3    H126504   3.012   4.149   5.450 -2.6618 -0.4060 -0.8240
 1671TIP3    H226505   3.028   4.230   5.578  2.8610 -1.3823 -0.6536
 1672TIP3   OH226506   3.189   3.944   3.826 -0.0220 -0.4407  0.1004
 1672TIP3    H126507   3.113   3.966   3.880 -0.6288 -2.9657  0.3717
 1672TIP3    H226508   3.265   3.965   3.882 -0.4764  1.2860  0.1394
 1673TIP3   OH226509   1.441   1.561   2.974  0.4157  0.3881 -0.3065
 1673TIP3    H126510   1.420   1.500   2.903 -0.7016  1.6314 -1.0972
 1673TIP3    H226511   1.370   1.550   3.037 -0.5946  1.8313 -1.1303
 1674TIP3   OH226512   1.773   3.913   2.251 -0.4976 -0.0167 -0.0075
 1674TIP3    H126513   1.765   4.008   2.249 -0.6733  0.0106  1.2268
 1674TIP3    H226514   1.830   3.895   2.326 -2.8145 -0.9830  1.6305
 1675TIP3   OH226515   4.568   5.109   2.597  0.2734 -0.1489 -0.1030
 1675TIP3    H126516   4.630   5.062   2.653 -1.4071 -0.8926  1.2343
 1675TIP3    H226517   4.616   5.186   2.568  1.7551 -0.5885  1.0303
 1676TIP3   OH226518   3.081   2.811  13.871 -0.1237 -0.1345  0.0125
 1676TIP3    H126519   3.052   2.720  13.880 -1.2735  0.3265  1.2131
 1676TIP3    H226520   3.049   2.855  13.950  1.0579  1.1559 -0.1903
 1677TIP3   OH226521   2.889   6.071  15.070  0.3373  0.2371 -0.0169
 1677TIP3    H126522   2.855   6.151  15.111 -1.9764 -1.2479  1.1555
 1677TIP3    H226523   2.870   6.082  14.977 -0.5583  0.7749  0.2140
 1678TIP3   OH226524   1.139   4.464   2.426  0.2347 -0.1454 -0.4757
 1678TIP3    H126525   1.044   4.453   2.428  0.1959  0.0719 -0.9954
 1678TIP3    H226526   1.162   4.490   2.515  0.0704 -2.3008  0.2631
 1679TIP3   OH226527   2.884   2.219  12.368 -0.6013 -0.1243 -0.2761
 1679TIP3    H126528   2.927   2.224  12.282  0.7229 -0.9066  0.3083
 1679TIP3    H226529   2.871   2.310  12.393 -0.5037  0.1230 -1.0706
 1680TIP3   OH226530   0.916   1.476   6.520  0.2793 -0.4905  0.2075
 1680TIP3    H126531   0.840   1.533   6.535  1.1995  0.9791 -0.4451
 1680TIP3    H226532   0.955   1.509   6.439  3.1877  0.6216  1.8993
 1681TIP3   OH226533   5.247   4.368  13.006  0.4455  0.2614 -0.0999
 1681TIP3    H126534   5.171   4.378  12.949 -0.0005 -0.0597  0.4256
 1681TIP3    H226535   5.305   4.440  12.982 -0.3907  0.9937  0.0493
 1682TIP3   OH226536   5.528   4.418   0.159 -0.6026  0.1452 -0.1981
 1682TIP3    H126537   5.485   4.352   0.104  0.8042 -0.5216 -0.5217
 1682TIP3    H226538   5.456   4.456   0.210 -1.2453 -3.2216  1.7473
 1683TIP3   OH226539   0.699   0.686   1.941  0.3443  0.0420 -0.6343
 1683TIP3    H126540   0.621   0.636   1.919 -0.7526  2.3135 -2.2959
 1683TIP3    H226541   0.729   0.721   1.857  2.4192  0.2913  0.1556
 1684TIP3   OH226542   4.336   6.593  15.700 -0.5950  0.2707 -0.3611
 1684TIP3    H126543   4.328   6.688  15.691  0.3372  0.4533  0.6203
 1684TIP3    H226544   4.331   6.577  15.794  2.0789 -0.3615 -0.2550
 1685TIP3   OH226545   2.005   5.321   3.212  0.3198 -0.0206  0.1341
 1685TIP3    H126546   2.052   5.242   3.188  1.6880  0.1851  1.9319
 1685TIP3    H226547   1.932   5.290   3.267 -0.8218 -0.2091 -1.4142
 1686TIP3   OH226548   4.002   2.986   5.174  0.6143 -0.1105 -0.3167
 1686TIP3    H126549   3.970   3.013   5.088  0.2900 -0.8886 -0.4530
 1686TIP3    H226550   4.005   3.066   5.226 -3.3520 -0.2044  0.3055
 1687TIP3   OH226551   2.156   0.624  13.246  0.0072 -0.4069  0.5787
 1687TIP3    H126552   2.169   0.719  13.253 -0.1069 -0.2491 -0.9405
 1687TIP3    H226553   2.073   0.615  13.199  0.7927 -1.2196 -0.7108
 1688TIP3   OH226554   4.697   3.606  12.591  0.4230 -0.0859 -0.3261
 1688TIP3    H126555   4.667   3.696  12.578  2.3317  0.4606 -1.4146
 1688TIP3    H226556   4.632   3.567  12.649 -0.1382  2.1857  0.6971
 1689TIP3   OH226557   2.964   3.790   0.229 -0.5802  0.6848 -0.3770
 1689TIP3    H126558   2.987   3.737   0.152 -3.0529 -0.9814 -0.1169
 1689TIP3    H226559   3.000   3.876   0.210  3.0630 -0.8100 -1.1759
 1690TIP3   OH226560   4.057   3.852   4.529 -0.1998 -0.7914  0.2364
 1690TIP3    H126561   4.053   3.817   4.439 -0.5893  1.1456 -0.5399
 1690TIP3    H226562   3.979   3.815   4.571  0.0005 -1.7473 -0.1909
 1691TIP3   OH226563   4.315   0.533  11.103  0.0706 -0.3653  0.3675
 1691TIP3    H126564   4.295   0.497  11.017  2.0117 -1.9996  0.5091
 1691TIP3    H226565   4.410   0.542  11.103 -0.1038  2.3771  1.3493
 1692TIP3   OH226566   6.742   2.076  13.696 -0.4068  0.2241  0.1625
 1692TIP3    H126567   6.831   2.108  13.684 -0.3166  0.0213  0.2880
 1692TIP3    H226568   6.747   2.019  13.773 -0.9333  1.3242  1.0419
 1693TIP3   OH226569   0.875   4.439   3.926 -0.5976  0.5365  0.5844
 1693TIP3    H126570   0.874   4.532   3.905  0.2634  0.9126  2.0763
 1693TIP3    H226571   0.827   4.432   4.009  0.8992 -0.0577  1.4518
 1694TIP3   OH226572   6.698   0.854   1.143  0.4092  0.0068  0.5010
 1694TIP3    H126573   6.732   0.944   1.146  1.2702 -0.3249  1.4772
 1694TIP3    H226574   6.675   0.834   1.234  1.1947 -1.1006  0.4796
 1695TIP3   OH226575   4.181   1.138   4.834  1.0271  0.2317 -0.7398
 1695TIP3    H126576   4.245   1.072   4.807  0.0959 -0.9254 -0.2519
 1695TIP3    H226577   4.200   1.154   4.926  0.0949 -0.7727 -0.3555
 1696TIP3   OH226578   0.236   5.840  13.738  0.1262  0.3373  0.1669
 1696TIP3    H126579   0.185   5.874  13.812  0.6442  1.4486  0.0307
 1696TIP3    H226580   0.173   5.786  13.689 -0.2059 -0.4610  1.4352
 1697TIP3   OH226581   3.011   0.820  16.456 -0.3108  0.0732 -0.5487
 1697TIP3    H126582   3.075   0.859  16.515 -0.6224 -0.8181  0.4014
 1697TIP3    H226583   2.953   0.769  16.513 -0.9678 -0.3442 -1.5548
 1698TIP3   OH226584   1.670   5.143  12.445  0.0807 -0.0803  0.2927
 1698TIP3    H126585   1.662   5.223  12.496 -1.5203  0.7048 -1.1110
 1698TIP3    H226586   1.756   5.108  12.469 -0.4016  0.4335  3.1648
 1699TIP3   OH226587   2.866   6.690  14.815  0.0399  0.2761 -0.5640
 1699TIP3    H126588   2.868   6.594  14.816 -0.3272  0.2517 -1.4635
 1699TIP3    H226589   2.780   6.711  14.778  0.5536  0.9479 -1.4041
 1700TIP3   OH226590   6.754   6.084   2.846  0.8300 -0.3171 -0.4222
 1700TIP3    H126591   6.670   6.042   2.865  1.2931 -0.0753  2.5626
 1700TIP3    H226592   6.734   6.178   2.847  0.8764 -0.2856 -1.3398
 1701TIP3   OH226593   5.876   2.582   3.771  0.2169 -0.4826 -0.5099
 1701TIP3    H126594   5.792   2.573   3.816  0.4621 -1.8675 -0.3042
 1701TIP3    H226595   5.873   2.670   3.733 -1.6577 -0.7939 -1.1774
 1702TIP3   OH226596   1.659   1.519  15.247 -0.3794 -0.0722  0.3835
 1702TIP3    H126597   1.698   1.582  15.308  0.1862  0.8694 -0.9049
 1702TIP3    H226598   1.574   1.557  15.225 -0.6382 -0.4769  0.6846
 1703TIP3   OH226599   3.193   0.885   4.614 -0.8421 -0.0730  0.3248
 1703TIP3    H126600   3.104   0.875   4.647 -0.6254  0.9722  1.2842
 1703TIP3    H226601   3.188   0.960   4.553 -0.4362  0.6704  1.1799
 1704TIP3   OH226602   3.460   1.966  14.286 -0.2144  0.5203  0.1226
 1704TIP3    H126603   3.458   1.944  14.193 -1.8173  0.7247  0.0786
 1704TIP3    H226604   3.553   1.979  14.306  0.4169 -1.9363 -0.8669
 1705TIP3   OH226605   6.777   2.291  15.431  0.1510  0.1687  0.1917
 1705TIP3    H126606   6.726   2.228  15.482 -0.2426 -0.2154 -0.6451
 1705TIP3    H226607   6.712   2.353  15.397 -0.1490 -1.5129 -2.6243
 1706TIP3   OH226608   3.446   3.885  13.852  0.3680  0.2164 -0.4803
 1706TIP3    H126609   3.450   3.796  13.889 -0.2576  0.0167 -0.8906
 1706TIP3    H226610   3.536   3.916  13.856  0.5089 -0.2485  0.1343
 1707TIP3   OH226611   6.121   6.614   0.137  0.1983 -0.2154 -0.7110
 1707TIP3    H126612   6.052   6.586   0.077  1.4086 -2.2063 -1.2983
 1707TIP3    H226613   6.169   6.533   0.156  2.2715  1.0693 -0.2260
 1708TIP3   OH226614   2.717   6.300  16.821 -0.7865  0.2522 -0.3536
 1708TIP3    H126615   2.669   6.238  16.766 -3.4732  2.2099 -0.3869
 1708TIP3    H226616   2.718   6.259  16.908  0.5233 -1.3097 -1.0435
 1709TIP3   OH226617   3.269   5.521   0.458 -0.4542  0.0704  0.1355
 1709TIP3    H126618   3.349   5.478   0.487  0.1425  1.6601  0.9946
 1709TIP3    H226619   3.235   5.465   0.388  1.7042 -0.3721 -0.6368
 1710TIP3   OH226620   3.953   3.610   6.576 -0.4777 -0.2170 -0.5825
 1710TIP3    H126621   4.035   3.569   6.604 -0.5744  1.2688  2.3036
 1710TIP3    H226622   3.887   3.542   6.586 -0.0910 -0.4491  0.5187
 1711TIP3   OH226623   0.964   2.410  14.234 -0.4103  0.3264  0.3355
 1711TIP3    H126624   1.005   2.408  14.148 -0.7443 -1.0000  0.1795
 1711TIP3    H226625   1.028   2.452  14.291  0.2165  0.3325 -0.3651
 1712TIP3   OH226626   5.149   3.928  15.523 -0.0268  0.4889 -0.6886
 1712TIP3    H126627   5.185   3.882  15.599  0.5997 -1.4833 -2.1051
 1712TIP3    H226628   5.076   3.978  15.559  0.6147  0.1215  1.3126
 1713TIP3   OH226629   3.966   2.004  15.317 -0.2013 -0.1439 -0.3168
 1713TIP3    H126630   3.897   1.979  15.379  0.0480  0.4210  0.1999
 1713TIP3    H226631   3.995   1.921  15.280 -2.7474 -0.2517 -2.3244
 1714TIP3   OH226632   0.135   4.569   0.761  0.2295  0.5936 -0.0238
 1714TIP3    H126633   0.175   4.487   0.791  0.2478 -0.0331 -1.6557
 1714TIP3    H226634   0.040   4.552   0.767  0.2329  0.4744 -0.3077
 1715TIP3   OH226635   2.749   3.636   4.367  0.0036 -0.2428 -0.2488
 1715TIP3    H126636   2.724   3.585   4.445  2.0928  1.1878  1.5045
 1715TIP3    H226637   2.672   3.687   4.345 -0.5924 -0.5705  0.9915
 1716TIP3   OH226638   0.039   5.016   5.799 -0.4249 -0.4103 -0.6259
 1716TIP3    H126639  -0.021   4.943   5.811  0.4747 -1.5042 -2.3390
 1716TIP3    H226640   0.118   4.976   5.761  1.9257  0.7566  2.6062
 1717TIP3   OH226641   0.007   6.717   3.145 -0.1683  0.1034 -0.0090
 1717TIP3    H126642   0.016   6.810   3.125  1.5528  0.0404  0.3067
 1717TIP3    H226643   0.008   6.713   3.241  0.2515 -0.2561 -0.0238
 1718TIP3   OH226644   0.413   6.658   3.681 -0.0702  0.3857 -0.0447
 1718TIP3    H126645   0.420   6.712   3.602 -1.0710  0.8975  0.2020
 1718TIP3    H226646   0.331   6.610   3.670  0.0671  0.0407  0.4286
 1719TIP3   OH226647   3.775   5.713  11.787 -0.3812  0.3444 -0.4450
 1719TIP3    H126648   3.734   5.717  11.700 -0.7209  0.1348 -0.2978
 1719TIP3    H226649   3.751   5.626  11.821 -0.8461  0.6883  0.1410
 1720TIP3   OH226650   4.533   1.055   5.934  0.0329 -0.9371 -1.0818
 1720TIP3    H126651   4.587   0.994   5.984  0.5475 -0.2842 -0.8162
 1720TIP3    H226652   4.488   1.001   5.869 -1.1436 -1.9068  0.4707
 1721TIP3   OH226653   5.103   2.197  17.164 -0.3568  0.0395 -0.4608
 1721TIP3    H126654   5.125   2.192  17.071  0.2786  2.5233 -0.5083
 1721TIP3    H226655   5.008   2.183  17.167 -0.1457 -1.8607 -1.2364
 1722TIP3   OH226656   3.219   0.270  13.113 -0.2433  0.2925  0.3420
 1722TIP3    H126657   3.141   0.232  13.154 -1.3802  0.7787 -1.2703
 1722TIP3    H226658   3.189   0.354  13.078  0.7722  0.1235 -1.0334
 1723TIP3   OH226659   5.508   6.812  13.200  0.6470 -0.0091 -0.0999
 1723TIP3    H126660   5.437   6.862  13.161  0.6935  0.2315  0.1210
 1723TIP3    H226661   5.553   6.773  13.125  0.9947  0.8005 -0.3255
 1724TIP3   OH226662   2.568   2.827   5.644 -0.1233  0.2372 -0.2674
 1724TIP3    H126663   2.638   2.820   5.578 -0.1198 -1.6908 -0.1149
 1724TIP3    H226664   2.549   2.736   5.668 -0.9348  0.8540  1.5620
 1725TIP3   OH226665   0.517   0.192  10.416  0.7164  0.3988 -0.0671
 1725TIP3    H126666   0.605   0.199  10.379  0.0403 -1.6197 -2.2872
 1725TIP3    H226667   0.462   0.244  10.358  0.1517  0.0758  0.1701
 1726TIP3   OH226668   1.590   2.316   2.961 -0.3458  0.0079  0.1922
 1726TIP3    H126669   1.639   2.380   2.910  1.1137  0.7249  2.3964
 1726TIP3    H226670   1.584   2.239   2.903  1.3525  0.7245 -1.0161
 1727TIP3   OH226671   1.062   5.262  14.523 -0.2316 -0.3778  0.1829
 1727TIP3    H126672   1.116   5.313  14.462  0.1158 -1.5183 -0.4901
 1727TIP3    H226673   0.974   5.265  14.484  0.2014 -2.0303 -1.0298
 1728TIP3   OH226674   2.149   2.168  16.019 -0.0001  0.0692 -0.3363
 1728TIP3    H126675   2.243   2.163  16.006  0.0950  0.8279 -0.0067
 1728TIP3    H226676   2.126   2.257  15.992 -0.3004  0.5781  1.4790
 1729TIP3   OH226677   5.878   2.085   5.284  0.2657  0.1689  0.1056
 1729TIP3    H126678   5.964   2.047   5.304  0.1153  0.1661  0.7395
 1729TIP3    H226679   5.899   2.162   5.231  0.6782  0.3280  0.4895
 1730TIP3   OH226680   0.497   1.697  14.025  0.2203 -0.0857  0.0785
 1730TIP3    H126681   0.499   1.746  14.107 -1.9077  0.6464 -0.2470
 1730TIP3    H226682   0.513   1.763  13.958  1.0570 -0.5229 -0.1643
 1731TIP3   OH226683   2.541   5.941  11.655 -0.1856  0.4208 -0.2249
 1731TIP3    H126684   2.558   5.858  11.610  0.3297  1.1919 -1.5066
 1731TIP3    H226685   2.586   5.932  11.739  0.2357 -0.4338 -0.5302
 1732TIP3   OH226686   5.214   0.223  14.574 -0.4616  0.0500  0.2181
 1732TIP3    H126687   5.289   0.263  14.617 -1.1105  2.2811 -0.6050
 1732TIP3    H226688   5.171   0.295  14.527 -2.7119 -1.2750  0.0774
 1733TIP3   OH226689   4.739   5.477  14.654  0.0472  0.1949  0.0517
 1733TIP3    H126690   4.679   5.547  14.678  0.0900  0.0704  0.5256
 1733TIP3    H226691   4.823   5.502  14.693  0.2588  0.2732 -0.4433
 1734TIP3   OH226692   3.173   1.883  13.068  0.1003  0.6755 -0.0989
 1734TIP3    H126693   3.087   1.882  13.026 -0.6844 -1.8273  1.3438
 1734TIP3    H226694   3.171   1.960  13.125 -1.5867  0.1617  0.6078
 1735TIP3   OH226695   6.433   3.317   1.988  0.0930  0.1261  0.4113
 1735TIP3    H126696   6.490   3.374   2.040 -2.0792  0.6006  2.4454
 1735TIP3    H226697   6.350   3.365   1.981 -1.1563 -1.8845  0.4421
 1736TIP3   OH226698   3.515   3.370   0.521 -0.0398  0.1240 -0.2545
 1736TIP3    H126699   3.443   3.416   0.477 -1.7758 -1.8490  0.3794
 1736TIP3    H226700   3.506   3.394   0.613  0.1595 -0.0768 -0.1815
 1737TIP3   OH226701   3.762   1.776  11.741  0.0588  0.8595  0.0438
 1737TIP3    H126702   3.832   1.803  11.680  0.9247 -1.1453  0.0600
 1737TIP3    H226703   3.809   1.744  11.818 -1.0030  2.0738  1.2530
 1738TIP3   OH226704   1.663   5.536   0.708  0.4999  0.8100  0.0147
 1738TIP3    H126705   1.620   5.622   0.706 -2.0446 -0.3715  0.2290
 1738TIP3    H226706   1.658   5.504   0.618  0.4970  0.4511  0.1421
 1739TIP3   OH226707   1.104   4.734  14.973  0.3109  0.3717  0.5899
 1739TIP3    H126708   1.092   4.686  15.054 -0.2694 -0.3600  0.0866
 1739TIP3    H226709   1.140   4.818  15.000 -0.4030  0.3554  1.6611
 1740TIP3   OH226710   5.063   5.283  13.292 -0.2887  0.1458 -0.8462
 1740TIP3    H126711   5.009   5.361  13.274 -0.6718  0.7026  2.1992
 1740TIP3    H226712   5.123   5.312  13.360  0.4101 -1.9073 -0.5503
 1741TIP3   OH226713   2.447   3.735  14.351 -0.3516 -0.2104 -0.2547
 1741TIP3    H126714   2.354   3.724  14.330 -0.3314 -0.7567 -0.0765
 1741TIP3    H226715   2.473   3.814  14.302 -0.4872 -1.0390 -1.7396
 1742TIP3   OH226716   5.754   3.068  15.301 -0.2843 -0.3234 -0.3928
 1742TIP3    H126717   5.709   3.116  15.232 -0.1036  0.6595  0.1667
 1742TIP3    H226718   5.698   2.992  15.318 -0.5696 -0.3227 -1.2727
 1743TIP3   OH226719   5.549   0.834   1.687 -0.5689 -0.2245 -0.5359
 1743TIP3    H126720   5.471   0.780   1.701 -0.1987 -0.8051 -0.6934
 1743TIP3    H226721   5.546   0.858   1.595 -0.9620  0.4021 -0.3733
 1744TIP3   OH226722   5.527   4.081   2.837  0.1707  0.1649 -0.3049
 1744TIP3    H126723   5.492   4.155   2.887 -1.8175 -0.4546 -0.6745
 1744TIP3    H226724   5.475   4.080   2.757  2.4101  0.3353 -1.8128
 1745TIP3   OH226725   1.388   5.514   1.576  0.5687  0.0069 -0.3265
 1745TIP3    H126726   1.388   5.500   1.481  0.2275 -1.5101 -0.1237
 1745TIP3    H226727   1.359   5.430   1.613  0.6746  0.5809  1.1212
 1746TIP3   OH226728   4.819   2.704   2.712 -0.3555 -0.4741  0.2887
 1746TIP3    H126729   4.902   2.688   2.758  0.0985 -0.3482 -0.4665
 1746TIP3    H226730   4.763   2.631   2.739 -0.1493 -0.3335  1.1374
 1747TIP3   OH226731   0.167   6.424   5.617  0.0280 -0.8951 -0.7288
 1747TIP3    H126732   0.220   6.494   5.578 -2.1581  0.7067 -1.0032
 1747TIP3    H226733   0.081   6.434   5.577 -1.6706 -0.7072  2.6471
 1748TIP3   OH226734   1.632   3.821   3.030  0.2624  0.2280  0.4952
 1748TIP3    H126735   1.672   3.748   2.984 -2.0543 -0.6639 -0.2565
 1748TIP3    H226736   1.613   3.885   2.961 -2.3901 -0.7298  0.1984
 1749TIP3   OH226737   0.837   3.675   3.931 -0.3194 -0.3831 -0.0387
 1749TIP3    H126738   0.855   3.747   3.871 -1.5515 -0.3408 -0.3917
 1749TIP3    H226739   0.899   3.606   3.906  0.8336  0.5204  0.2725
 1750TIP3   OH226740   5.781   3.265   2.873  0.4942  0.6860  0.4610
 1750TIP3    H126741   5.769   3.202   2.944 -0.3113  0.1051 -0.1640
 1750TIP3    H226742   5.706   3.250   2.815  1.5735  0.5283 -0.9560
 1751TIP3   OH226743   1.018   2.087  11.622 -0.1479  0.0192  0.0261
 1751TIP3    H126744   1.009   1.998  11.656  2.6405 -0.1552  0.5644
 1751TIP3    H226745   1.075   2.078  11.545 -1.8762  1.0957 -1.4721
 1752TIP3   OH226746   5.832   4.863  16.526 -0.4203  0.2562  0.1389
 1752TIP3    H126747   5.770   4.920  16.573 -2.0659  0.4010 -2.0492
 1752TIP3    H226748   5.842   4.904  16.440  2.5717  0.0664  0.2843
 1753TIP3   OH226749   4.441   0.555   6.101 -0.1608  0.1991  0.2214
 1753TIP3    H126750   4.462   0.618   6.170  0.5765  0.1425  0.0609
 1753TIP3    H226751   4.502   0.483   6.115  0.6032  0.5606 -0.9884
 1754TIP3   OH226752   6.224   5.805   2.252 -0.0520 -0.2525  0.2618
 1754TIP3    H126753   6.170   5.831   2.327  1.1819 -1.0030  1.4592
 1754TIP3    H226754   6.286   5.742   2.288  0.1824 -1.1133 -1.5386
 1755TIP3   OH226755   2.862   2.893   0.126  0.2038  0.0073 -0.5246
 1755TIP3    H126756   2.918   2.918   0.199 -0.6762  0.5051 -0.0086
 1755TIP3    H226757   2.783   2.946   0.136 -0.2960 -0.5484 -1.3386
 1756TIP3   OH226758   4.328   2.856   5.988 -0.0641  0.5114 -0.4668
 1756TIP3    H126759   4.320   2.938   5.939  2.7447  0.0950 -1.8447
 1756TIP3    H226760   4.289   2.790   5.930 -1.1646  0.6649  0.0775
 1757TIP3   OH226761   1.077   6.159  13.571 -0.2781 -0.0832 -0.1818
 1757TIP3    H126762   1.060   6.088  13.632  1.4003 -0.7115 -0.3788
 1757TIP3    H226763   1.004   6.157  13.510 -1.5128 -0.0257  1.2334
 1758TIP3   OH226764   6.059   4.701  16.298 -0.2240 -0.1965 -0.0766
 1758TIP3    H126765   6.025   4.615  16.324  0.4815 -0.8254 -1.1453
 1758TIP3    H226766   6.143   4.708  16.343  0.1724 -0.5067 -0.7569
 1759TIP3   OH226767   4.783   2.402   1.146  0.2693 -0.1162  0.5634
 1759TIP3    H126768   4.706   2.460   1.153  0.9090  1.1678 -1.6831
 1759TIP3    H226769   4.757   2.337   1.081  1.0443  0.3738 -0.2744
 1760TIP3   OH226770   2.872   6.417  15.571 -0.7725 -0.0999 -0.6993
 1760TIP3    H126771   2.808   6.348  15.554 -1.0687  0.4789 -2.1273
 1760TIP3    H226772   2.820   6.492  15.600 -0.2869 -1.0189  2.9962
 1761TIP3   OH226773   0.177   3.627  16.294  0.2315 -0.2942  0.6206
 1761TIP3    H126774   0.143   3.596  16.377  1.2855 -0.4348  1.0150
 1761TIP3    H226775   0.265   3.589  16.288  0.0154 -0.6372 -0.7496
 1762TIP3   OH226776   6.373   2.291   3.943  0.7141 -0.4881  1.1489
 1762TIP3    H126777   6.291   2.281   3.895  0.9927 -1.5143  0.8700
 1762TIP3    H226778   6.426   2.348   3.888  0.8961 -1.3700  0.3897
 1763TIP3   OH226779   4.140   6.821   1.688  0.1362 -0.1250 -0.2525
 1763TIP3    H126780   4.194   6.858   1.758  0.2154  1.2971 -1.0252
 1763TIP3    H226781   4.191   6.747   1.655  0.3463 -0.4756  0.8204
 1764TIP3   OH226782   4.940   6.153   3.815 -0.4642 -0.0848  0.4085
 1764TIP3    H126783   5.019   6.204   3.832 -0.0561 -0.1827 -1.0019
 1764TIP3    H226784   4.870   6.217   3.814 -0.5284 -0.0703  2.2493
 1765TIP3   OH226785   4.371   4.939  16.545  0.4419 -0.7844 -0.0478
 1765TIP3    H126786   4.401   4.987  16.467 -0.1499 -0.9044 -0.3541
 1765TIP3    H226787   4.368   4.848  16.516  1.8663 -1.0682  0.6236
 1766TIP3   OH226788   6.685   2.011  10.982 -0.3958  0.0286  0.0981
 1766TIP3    H126789   6.709   1.983  10.893 -0.8109 -1.0704  0.3079
 1766TIP3    H226790   6.739   1.956  11.039 -0.4762  0.3955  0.5295
 1767TIP3   OH226791   2.052   0.648  14.309  0.3484  0.0084 -0.3810
 1767TIP3    H126792   2.053   0.718  14.374 -1.3802 -0.5670  0.3432
 1767TIP3    H226793   2.080   0.690  14.228  0.4135  1.2745  0.2677
 1768TIP3   OH226794   1.841   1.455  14.866 -0.2462 -0.5074  0.4124
 1768TIP3    H126795   1.860   1.401  14.790 -3.9318  0.0780 -1.1411
 1768TIP3    H226796   1.803   1.535  14.830  0.2953  0.9561  2.8171
 1769TIP3   OH226797   6.723   1.935  14.615 -0.0276  0.4678  0.7717
 1769TIP3    H126798   6.651   1.983  14.654  0.0094 -0.0846  1.5411
 1769TIP3    H226799   6.764   1.997  14.554 -2.7744  0.0192 -1.7700
 1770TIP3   OH226800   0.047   4.900  15.048 -0.3503  0.1607  0.1517
 1770TIP3    H126801   0.048   4.854  14.965  1.9988 -0.0078  0.2071
 1770TIP3    H226802  -0.042   4.935  15.055 -0.5767  0.3016 -2.4683
 1771TIP3   OH226803   4.923   4.920   5.091  0.1909 -0.1268 -0.4834
 1771TIP3    H126804   4.831   4.937   5.109  0.1745 -0.2861 -0.4129
 1771TIP3    H226805   4.925   4.831   5.057  0.2517  0.0808 -1.0376
 1772TIP3   OH226806   3.015   5.621   4.411 -0.3842 -0.3539  0.7229
 1772TIP3    H126807   2.951   5.633   4.342 -0.2589  1.8412  0.9152
 1772TIP3    H226808   3.094   5.666   4.379  0.8310 -2.2979  0.8368
 1773TIP3   OH226809   6.514   0.690  13.576  0.2127 -0.2725 -0.3950
 1773TIP3    H126810   6.594   0.735  13.550 -0.5540  2.6161  1.8182
 1773TIP3    H226811   6.541   0.630  13.645  0.6819 -0.5051 -0.7738
 1774TIP3   OH226812   3.210   6.198   3.895 -0.0714  0.2669 -0.1691
 1774TIP3    H126813   3.213   6.271   3.833  1.3714  0.4949  0.1551
 1774TIP3    H226814   3.118   6.194   3.921  0.0209  2.8851  0.8898
 1775TIP3   OH226815   1.301   2.552   5.806  0.2702 -0.5835 -0.2361
 1775TIP3    H126816   1.269   2.495   5.875  1.9458  1.6803  2.6461
 1775TIP3    H226817   1.396   2.536   5.804  0.5505  0.9476 -0.4327
 1776TIP3   OH226818   0.390   1.918   4.540 -0.4447 -0.1249  0.3012
 1776TIP3    H126819   0.462   1.935   4.478 -0.2219  0.0091  0.5953
 1776TIP3    H226820   0.331   1.860   4.492 -0.4551  0.2623 -0.1711
 1777TIP3   OH226821   4.943   3.622   5.711 -0.2266  0.2055  0.2173
 1777TIP3    H126822   5.030   3.589   5.689 -0.6365 -0.5594 -0.2953
 1777TIP3    H226823   4.920   3.577   5.792  0.0827  0.8454  0.6726
 1778TIP3   OH226824   6.126   1.629  15.430  0.0528 -0.1060  0.2969
 1778TIP3    H126825   6.187   1.703  15.431  0.9421 -0.7900 -1.1672
 1778TIP3    H226826   6.042   1.668  15.409  0.9121  0.2967 -2.8563
 1779TIP3   OH226827   6.264   1.890  14.026 -0.5146 -0.3395  0.4316
 1779TIP3    H126828   6.291   1.930  14.109 -1.2094  0.4763  0.2766
 1779TIP3    H226829   6.177   1.855  14.044  0.3701 -2.4722  0.7731
 1780TIP3   OH226830   1.859   5.059  16.543 -0.3946  0.2217 -0.0739
 1780TIP3    H126831   1.901   5.058  16.457  2.1180  2.2696  0.9709
 1780TIP3    H226832   1.801   4.983  16.543 -0.0774 -0.1678 -3.3340
 1781TIP3   OH226833   4.931   6.378  12.431  0.0097 -0.7715 -0.1086
 1781TIP3    H126834   4.980   6.390  12.350 -0.9930 -1.2184 -0.8126
 1781TIP3    H226835   4.963   6.446  12.490  1.5519 -1.1479 -0.4785
 1782TIP3   OH226836   2.636   2.762  14.425  0.3106  0.1744  0.2044
 1782TIP3    H126837   2.618   2.679  14.382 -0.2152  0.1157  0.5321
 1782TIP3    H226838   2.575   2.824  14.385  0.0542  0.1946  0.6191
 1783TIP3   OH226839   5.494   4.625  11.593 -0.7199 -0.3120  0.0908
 1783TIP3    H126840   5.466   4.601  11.505  0.9676  1.3332 -0.9804
 1783TIP3    H226841   5.590   4.620  11.589 -0.6198 -0.6103  1.9830
 1784TIP3   OH226842   1.033   3.232   0.266 -0.5183 -0.4272 -0.0561
 1784TIP3    H126843   0.956   3.261   0.217 -0.3924 -0.2781 -0.1667
 1784TIP3    H226844   1.007   3.242   0.358 -0.9969 -1.3609 -0.0846
 1785TIP3   OH226845   4.284   1.797   5.004 -0.4991 -0.3287 -0.4585
 1785TIP3    H126846   4.191   1.810   5.023 -0.5646  0.2751 -1.1554
 1785TIP3    H226847   4.302   1.708   5.034 -1.5055 -0.7575 -1.0838
 1786TIP3   OH226848   5.356   2.730  12.164  0.1172 -0.6418  0.8677
 1786TIP3    H126849   5.353   2.815  12.208 -0.0349 -2.3223  4.4359
 1786TIP3    H226850   5.264   2.709  12.147  0.2255  0.7331 -2.1293
 1787TIP3   OH226851   3.896   5.837  14.239 -0.4731  0.2870  0.4168
 1787TIP3    H126852   3.976   5.784  14.239  0.8284  2.0583 -2.0824
 1787TIP3    H226853   3.904   5.893  14.316 -1.4398 -2.3275  2.5837
 1788TIP3   OH226854   3.643   4.557   2.203 -0.2208  0.1948  0.3084
 1788TIP3    H126855   3.556   4.567   2.241  0.0906 -0.3567  1.2150
 1788TIP3    H226856   3.677   4.476   2.242 -0.0939 -0.7240 -1.6026
 1789TIP3   OH226857   5.088   4.035  11.767 -0.0756 -0.1484 -0.2009
 1789TIP3    H126858   5.183   4.037  11.769  0.0071 -2.0210  0.5114
 1789TIP3    H226859   5.064   4.056  11.677  1.0631 -0.5987 -0.6171
 1790TIP3   OH226860   2.763   3.344   1.120  0.1275  0.5092 -0.0738
 1790TIP3    H126861   2.700   3.343   1.048 -0.7337  3.8289  0.4715
 1790TIP3    H226862   2.721   3.398   1.187  1.2567 -1.7310  2.6614
 1791TIP3   OH226863   5.312   6.775   6.533  0.4249 -0.3284 -0.2559
 1791TIP3    H126864   5.246   6.706   6.523  2.1682 -2.0592 -0.2538
 1791TIP3    H226865   5.325   6.782   6.628  0.5472 -0.2677 -0.2769
 1792TIP3   OH226866   4.329   5.178  17.103 -0.3976  0.1556 -0.1328
 1792TIP3    H126867   4.275   5.205  17.178  0.6307  0.0103  0.6920
 1792TIP3    H226868   4.408   5.142  17.143  0.6559  1.0907 -1.3045
 1793TIP3   OH226869   2.957   3.380   4.080  0.0567  0.0115 -0.2191
 1793TIP3    H126870   2.898   3.439   4.128  0.8307 -0.1259  0.9475
 1793TIP3    H226871   2.973   3.425   3.997  2.2044  2.5166  1.3814
 1794TIP3   OH226872   0.872   5.217  11.167  0.2598 -0.2712 -0.2895
 1794TIP3    H126873   0.918   5.178  11.093  2.0732  2.4606 -0.7369
 1794TIP3    H226874   0.816   5.284  11.128  2.3343  2.2290  0.7662
 1795TIP3   OH226875   6.681   5.147   4.123 -0.1300  0.1781  0.0133
 1795TIP3    H126876   6.696   5.191   4.039 -1.4476  0.1659 -0.2423
 1795TIP3    H226877   6.588   5.126   4.123  0.1595 -1.2277  0.8150
 1796TIP3   OH226878   4.542   6.685  13.348  0.1201 -0.0319  0.3112
 1796TIP3    H126879   4.506   6.693  13.437 -0.8129 -0.4239 -0.0218
 1796TIP3    H226880   4.594   6.765  13.337 -1.2311  0.9177  0.5592
 1797TIP3   OH226881   3.749   0.685  15.864 -1.0123 -0.8840 -0.2844
 1797TIP3    H126882   3.809   0.661  15.934  0.2435  0.9625 -0.6352
 1797TIP3    H226883   3.702   0.761  15.897 -1.6330 -1.0314 -0.8089
 1798TIP3   OH226884   1.753   2.510   3.207  0.2873 -0.2713 -0.3629
 1798TIP3    H126885   1.769   2.533   3.299 -0.2447  0.4124 -0.4384
 1798TIP3    H226886   1.840   2.513   3.167  0.2173  2.0393 -0.4589
 1799TIP3   OH226887   4.281   1.782  13.766 -0.1203  0.1004 -0.2707
 1799TIP3    H126888   4.309   1.861  13.812 -0.2107 -0.9431  1.6981
 1799TIP3    H226889   4.185   1.785  13.770 -0.2001  0.7669 -1.8450
 1800TIP3   OH226890   0.207   2.844   1.213  0.0025 -0.4625 -0.1597
 1800TIP3    H126891   0.145   2.859   1.142 -0.4522 -2.8338 -0.3321
 1800TIP3    H226892   0.292   2.842   1.171  0.0091  0.6779 -0.2325
 1801TIP3   OH226893   2.168   1.523  16.789  0.1539  0.1146  0.2424
 1801TIP3    H126894   2.182   1.465  16.864  0.2536 -0.0027  0.1331
 1801TIP3    H226895   2.219   1.601  16.810  1.3927 -0.5066 -0.3812
 1802TIP3   OH226896   1.670   6.116   3.606  0.6346 -0.3483 -0.3980
 1802TIP3    H126897   1.645   6.055   3.537  2.2095  0.8137 -2.0555
 1802TIP3    H226898   1.736   6.173   3.567  0.1055  1.6826  1.4321
 1803TIP3   OH226899   2.364   1.523   5.370  0.1425  0.6275  0.3036
 1803TIP3    H126900   2.307   1.565   5.305  1.7916 -0.6090 -2.0877
 1803TIP3    H226901   2.307   1.508   5.445 -2.4655  0.2766 -1.6013
 1804TIP3   OH226902   1.250   2.454   4.333  0.1280  0.2706 -0.5267
 1804TIP3    H126903   1.284   2.379   4.283 -0.4307  0.2126 -0.8311
 1804TIP3    H226904   1.260   2.529   4.274 -2.5957 -0.1579 -1.6630
 1805TIP3   OH226905   1.807   4.898  12.526  0.5984 -0.2289 -0.2649
 1805TIP3    H126906   1.879   4.863  12.473  0.7879  0.7469 -0.6747
 1805TIP3    H226907   1.815   4.853  12.610  0.3747 -1.7129 -1.0063
 1806TIP3   OH226908   2.379   0.789  14.025  0.1838  0.1948 -0.4290
 1806TIP3    H126909   2.460   0.740  14.041 -0.8649 -1.2799  0.6121
 1806TIP3    H226910   2.378   0.857  14.092 -0.4148 -1.1076  0.9415
 1807TIP3   OH226911   6.378   2.598  10.424  0.0475  0.3182 -0.5518
 1807TIP3    H126912   6.331   2.576  10.344 -1.0824  0.2058  0.1176
 1807TIP3    H226913   6.442   2.663  10.398 -0.8244  0.8498 -1.4076
 1808TIP3   OH226914   0.795   4.734   1.911  0.3155  0.1519 -0.2286
 1808TIP3    H126915   0.816   4.713   1.820 -1.1186 -0.0029 -0.5445
 1808TIP3    H226916   0.857   4.804   1.935  1.1942 -0.3196 -1.0674
 1809TIP3   OH226917   2.214   6.473   4.392  0.1801  0.2781 -0.3152
 1809TIP3    H126918   2.285   6.472   4.456  0.5523 -0.1635 -0.7336
 1809TIP3    H226919   2.200   6.381   4.370  1.2613  0.5210 -2.1879
 1810TIP3   OH226920   3.436   1.015   2.967 -0.4065 -0.4898 -0.7922
 1810TIP3    H126921   3.435   0.949   3.035 -2.3805 -1.0021 -1.2391
 1810TIP3    H226922   3.456   0.967   2.887  0.5045 -0.1292 -0.7916
 1811TIP3   OH226923   2.954   0.794  15.434 -0.3622 -0.8712 -0.5831
 1811TIP3    H126924   2.945   0.764  15.524 -0.2707 -1.0872 -0.6456
 1811TIP3    H226925   2.866   0.822  15.409 -0.4169 -0.9527 -0.4789
 1812TIP3   OH226926   3.057   4.313   6.393  0.0967  0.3007  0.0905
 1812TIP3    H126927   3.143   4.301   6.351  0.6894 -0.5512  1.5067
 1812TIP3    H226928   3.062   4.401   6.430 -0.7676  1.4427 -2.2847
 1813TIP3   OH226929   1.505   6.827  14.685 -0.6500 -0.1199  0.1527
 1813TIP3    H126930   1.552   6.789  14.760 -0.0956  0.9486  0.3706
 1813TIP3    H226931   1.413   6.824  14.711 -0.7469 -2.1337 -0.2291
 1814TIP3   OH226932   1.781   4.679   2.002  0.0202  0.7351 -0.1806
 1814TIP3    H126933   1.869   4.658   1.971 -0.5602 -0.8643 -0.9199
 1814TIP3    H226934   1.789   4.765   2.043  1.8189  0.8248 -0.6261
 1815TIP3   OH226935   2.406   3.375  13.866  0.9088 -0.1512  0.5153
 1815TIP3    H126936   2.444   3.308  13.810  1.2684 -1.0016  1.7439
 1815TIP3    H226937   2.415   3.341  13.954 -0.0656  0.9527  1.0709
 1816TIP3   OH226938   4.096   1.285   5.983 -0.1532 -0.2386 -0.4893
 1816TIP3    H126939   4.076   1.313   6.072 -0.6558 -2.2804  0.0857
 1816TIP3    H226940   4.026   1.224   5.960 -0.0873  0.3170 -2.3443
 1817TIP3   OH226941   0.007   1.663  13.250  0.1534  0.1240  0.2794
 1817TIP3    H126942   0.072   1.593  13.261  0.6156  0.6283  0.8322
 1817TIP3    H226943  -0.024   1.681  13.339  0.4466  0.9880  0.2191
 1818TIP3   OH226944   2.751   6.449  13.086 -0.0935  0.5234  0.3441
 1818TIP3    H126945   2.830   6.396  13.093 -0.9508 -0.9440 -0.5960
 1818TIP3    H226946   2.686   6.402  13.138 -0.5874  1.2606  0.4113
 1819TIP3   OH226947   4.352   1.719  14.809 -0.1068 -0.7837  0.4485
 1819TIP3    H126948   4.340   1.790  14.746 -0.4116 -1.0697  0.1792
 1819TIP3    H226949   4.305   1.645  14.770  0.0531 -1.0782  0.8152
 1820TIP3   OH226950   1.580   2.748   3.514  0.5873  0.1012 -0.1411
 1820TIP3    H126951   1.520   2.739   3.588 -0.1174 -0.2742 -0.7414
 1820TIP3    H226952   1.639   2.673   3.522  0.8171  0.3310  0.3133
 1821TIP3   OH226953   3.767   2.151  11.601  0.2221  0.0943  0.4941
 1821TIP3    H126954   3.771   2.112  11.513  1.7367  0.1253  0.5259
 1821TIP3    H226955   3.829   2.100  11.653  0.5523  1.1018  1.1155
 1822TIP3   OH226956   2.754   3.970   1.609  0.0456  0.2826 -0.2929
 1822TIP3    H126957   2.706   3.945   1.689 -0.0384  1.2506 -0.0311
 1822TIP3    H226958   2.754   3.890   1.556 -2.1259  0.3067 -0.4385
 1823TIP3   OH226959   2.023   3.270  16.502 -0.0612 -0.0226  0.2307
 1823TIP3    H126960   1.979   3.219  16.434  0.3681 -0.4440  0.2594
 1823TIP3    H226961   2.037   3.206  16.573 -0.5896  0.4298  0.7597
 1824TIP3   OH226962   6.276   1.382   1.547  0.7309 -0.8174 -0.3050
 1824TIP3    H126963   6.308   1.403   1.459  1.0636  1.1103  0.2182
 1824TIP3    H226964   6.185   1.354   1.534  0.3291  0.7879 -1.1615
 1825TIP3   OH226965   5.364   6.770   5.185 -0.3839 -0.4274  0.1930
 1825TIP3    H126966   5.380   6.863   5.200  0.0873 -0.3100 -0.9781
 1825TIP3    H226967   5.430   6.726   5.238 -0.9848 -0.1284  1.2245
 1826TIP3   OH226968   4.070   4.372   2.025  0.4360  0.0257 -0.4231
 1826TIP3    H126969   3.988   4.322   2.030  1.7569 -2.1734  1.0010
 1826TIP3    H226970   4.077   4.397   1.933 -0.0734 -2.9892 -1.4062
 1827TIP3   OH226971   4.384   5.788  10.612  0.0591 -0.2144 -0.0441
 1827TIP3    H126972   4.326   5.864  10.623  1.7513  1.3795 -1.3988
 1827TIP3    H226973   4.412   5.767  10.701 -0.4289  0.7902  0.3661
 1828TIP3   OH226974   1.533   0.086   1.784  0.3560 -0.4150 -0.0025
 1828TIP3    H126975   1.621   0.089   1.746  0.5211 -0.8695  0.3316
 1828TIP3    H226976   1.484   0.153   1.737  1.3130  0.9732  0.8726
 1829TIP3   OH226977   5.437   0.952  15.451  0.8715 -0.2120 -0.4654
 1829TIP3    H126978   5.349   0.988  15.458  0.6820 -0.9712  1.7822
 1829TIP3    H226979   5.428   0.860  15.477  2.4207 -0.1379  0.4500
 1830TIP3   OH226980   6.197   1.129   3.211 -0.5080 -0.4949 -0.5317
 1830TIP3    H126981   6.211   1.222   3.229 -0.5343 -0.4408 -0.7921
 1830TIP3    H226982   6.268   1.085   3.258 -1.1178 -0.4307  0.5024
 1831TIP3   OH226983   6.371   0.698   4.601  0.4106 -0.3181  0.4869
 1831TIP3    H126984   6.305   0.639   4.637  0.9065 -0.0174  1.9258
 1831TIP3    H226985   6.328   0.783   4.595  0.2535 -0.4201  0.1024
 1832TIP3   OH226986   6.109   2.803   3.918  0.6820  0.2817  0.3776
 1832TIP3    H126987   6.136   2.851   3.839  0.2786 -0.7017 -0.3869
 1832TIP3    H226988   6.191   2.778   3.960  0.9873 -1.0579 -0.9172
 1833TIP3   OH226989   5.427   0.648  11.368  0.6163 -0.1528 -0.1743
 1833TIP3    H126990   5.359   0.634  11.434  0.6032 -0.9949 -0.3467
 1833TIP3    H226991   5.413   0.577  11.305  1.3803 -0.0743 -0.4369
 1834TIP3   OH226992   4.187   0.768  15.987  0.7118  0.3486 -0.1285
 1834TIP3    H126993   4.234   0.851  15.989  2.7820 -0.7784  0.7693
 1834TIP3    H226994   4.171   0.747  16.079  1.0382 -0.6906 -0.2990
 1835TIP3   OH226995   5.032   1.401  14.669  0.1280  0.3905 -0.0647
 1835TIP3    H126996   5.054   1.494  14.675  0.5585  0.2331  0.9501
 1835TIP3    H226997   5.077   1.360  14.743  0.9785 -0.8291 -1.1776
 1836TIP3   OH226998   4.680   3.712   3.267 -0.0350  0.5777  0.9815
 1836TIP3    H126999   4.744   3.739   3.201  0.7641 -0.9429  1.0982
 1836TIP3    H227000   4.630   3.642   3.226 -2.2846  2.2667  0.5845
 1837TIP3   OH227001   4.729   2.891  11.808  0.2480 -0.4390  0.3110
 1837TIP3    H127002   4.796   2.905  11.740 -0.9027  2.1334 -0.4249
 1837TIP3    H227003   4.665   2.833  11.768  2.0942 -3.2490  1.1545
 1838TIP3   OH227004   4.948   0.385  15.760 -0.3040 -0.4409  0.4162
 1838TIP3    H127005   4.893   0.370  15.682  1.2972 -0.8368 -0.6786
 1838TIP3    H227006   4.960   0.480  15.762 -0.2268 -0.4428  0.0938
 1839TIP3   OH227007   0.846   2.567  12.114 -0.0974 -0.0824  0.3650
 1839TIP3    H127008   0.859   2.613  12.030 -1.4655  0.0356  0.2052
 1839TIP3    H227009   0.827   2.476  12.089 -1.7105  0.2022  0.4651
 1840TIP3   OH227010   5.593   5.015   3.949 -0.2743 -0.2645 -0.6212
 1840TIP3    H127011   5.634   5.055   3.872  0.7971  1.2910  0.6809
 1840TIP3    H227012   5.634   4.929   3.955  1.5540  0.5631 -0.3849
 1841TIP3   OH227013   3.984   2.440  15.670  0.1531 -0.7573 -0.7104
 1841TIP3    H127014   3.953   2.528  15.689 -0.1201 -0.9574 -0.1905
 1841TIP3    H227015   4.007   2.442  15.577 -0.5567 -0.3385 -0.8913
 1842TIP3   OH227016   4.925   6.265  16.518  0.7397 -0.0626 -0.4692
 1842TIP3    H127017   4.834   6.243  16.535  0.2018  3.0727  1.7148
 1842TIP3    H227018   4.921   6.332  16.449  1.1445  1.2572  0.7260
 1843TIP3   OH227019   2.783   1.992   5.072 -0.1429  0.1974  0.0663
 1843TIP3    H127020   2.876   1.994   5.050 -0.2341  0.7769 -0.2972
 1843TIP3    H227021   2.762   2.084   5.092 -0.3064 -0.1423  1.5377
 1844TIP3   OH227022   6.399   4.741  16.162  0.0110  0.2926 -0.1105
 1844TIP3    H127023   6.398   4.821  16.109 -1.8226  0.4317  0.0701
 1844TIP3    H227024   6.357   4.675  16.106  0.4445 -0.2559  0.1969
 1845TIP3   OH227025   3.460   0.114   1.957  0.0079 -0.2262 -0.4215
 1845TIP3    H127026   3.430   0.204   1.941 -1.1504 -0.6208 -0.5471
 1845TIP3    H227027   3.397   0.078   2.019  2.9677  0.4536  3.4071
 1846TIP3   OH227028   5.357   1.613   5.328  0.1550  0.2608 -0.2916
 1846TIP3    H127029   5.337   1.531   5.374 -0.6751  1.0914  0.8939
 1846TIP3    H227030   5.369   1.587   5.237  1.3018 -1.3793  0.2779
 1847TIP3   OH227031   6.712   6.340  16.082 -1.0918 -0.5526  0.0445
 1847TIP3    H127032   6.784   6.382  16.129 -1.2828  1.2316 -1.1680
 1847TIP3    H227033   6.646   6.321  16.149 -0.0637 -0.9794  0.9481
 1848TIP3   OH227034   3.658   3.082  14.474 -0.3563  0.0331  0.0978
 1848TIP3    H127035   3.640   3.162  14.425  0.4320  0.7420  0.9170
 1848TIP3    H227036   3.713   3.030  14.416 -1.9495 -0.5169 -0.9578
 1849TIP3   OH227037   6.009   0.680  15.742 -0.4707 -0.5220 -0.3394
 1849TIP3    H127038   5.976   0.614  15.681 -2.4470 -0.8306  0.9721
 1849TIP3    H227039   6.069   0.631  15.800  0.6384 -0.4273 -1.3559
 1850TIP3   OH227040   5.939   1.939   6.102 -0.0228  0.1351  0.1091
 1850TIP3    H127041   5.938   2.022   6.150  1.0252  0.9382 -1.1847
 1850TIP3    H227042   6.016   1.893   6.135  0.4813  0.5213 -0.5138
 1851TIP3   OH227043   2.870   3.736   4.125  0.4193 -0.8446  0.0141
 1851TIP3    H127044   2.913   3.711   4.207 -0.1865 -0.5166  0.4441
 1851TIP3    H227045   2.793   3.786   4.153  1.6037  1.6010 -0.7809
 1852TIP3   OH227046   0.983   1.701  14.697  0.4819  0.0129 -0.5563
 1852TIP3    H127047   1.005   1.749  14.777  0.9917  0.0802 -0.7308
 1852TIP3    H227048   0.972   1.769  14.631 -0.0892 -0.0332 -0.5106
 1853TIP3   OH227049   1.610   0.058   4.576 -0.3792  0.0335  0.0523
 1853TIP3    H127050   1.586   0.103   4.495 -0.3380  1.7615  0.9585
 1853TIP3    H227051   1.706   0.058   4.577 -0.3664 -1.2177 -0.5466
 1854TIP3   OH227052   5.567   3.181  16.471 -0.4685 -0.1587  0.4351
 1854TIP3    H127053   5.569   3.264  16.518  1.3674 -0.7906  1.5834
 1854TIP3    H227054   5.607   3.118  16.531 -0.3799 -1.5390 -1.0020
 1855TIP3   OH227055   3.827   2.693   4.669  0.3980 -0.8615 -0.1397
 1855TIP3    H127056   3.786   2.608   4.654 -1.6105 -0.7098  3.3142
 1855TIP3    H227057   3.907   2.672   4.718  0.6585 -0.8143 -0.5417
 1856TIP3   OH227058   3.047   4.986  13.015 -0.6401  0.4223  0.3807
 1856TIP3    H127059   3.098   5.067  13.018  0.4098 -0.2561  1.7786
 1856TIP3    H227060   3.097   4.924  13.068 -1.7435 -0.9675 -0.1465
 1857TIP3   OH227061   3.333   5.961   2.985 -0.1893 -0.7103  0.0200
 1857TIP3    H127062   3.297   5.972   2.897 -2.3454 -0.3394  0.8793
 1857TIP3    H227063   3.319   5.869   3.006 -0.8423 -0.5281  0.4237
 1858TIP3   OH227064   0.021   4.283   5.652 -0.0744  0.1648 -0.9681
 1858TIP3    H127065   0.064   4.365   5.675  0.2686 -0.1151 -0.5873
 1858TIP3    H227066   0.067   4.252   5.574  1.0777 -0.6172 -0.0065
 1859TIP3   OH227067   2.194   3.782   2.945 -0.1171 -0.3479 -0.3213
 1859TIP3    H127068   2.117   3.838   2.938  0.3612  0.3091 -0.4477
 1859TIP3    H227069   2.163   3.695   2.919 -0.9459 -0.2212  0.2066
 1860TIP3   OH227070   4.835   3.451   3.320  0.2349 -0.1739  0.4936
 1860TIP3    H127071   4.776   3.519   3.354 -0.9085 -0.3714 -0.9981
 1860TIP3    H227072   4.921   3.491   3.325 -0.2312  0.8173  1.0476
 1861TIP3   OH227073   3.727   5.008   6.393 -0.5298 -0.6301 -0.1087
 1861TIP3    H127074   3.773   4.932   6.359 -1.0074 -1.2139  0.5226
 1861TIP3    H227075   3.722   5.068   6.319  2.3392  0.0246  0.1158
 1862TIP3   OH227076   5.642   2.938  11.503  0.0218  0.6814 -0.0183
 1862TIP3    H127077   5.661   2.849  11.533  2.2957  0.7660 -1.0616
 1862TIP3    H227078   5.564   2.929  11.448  1.0270 -0.9494 -1.2584
 1863TIP3   OH227079   2.186   0.882   0.719 -0.1493  0.1547 -0.2637
 1863TIP3    H127080   2.147   0.955   0.671 -1.8578 -1.0979 -0.8894
 1863TIP3    H227081   2.274   0.912   0.741 -0.8515  2.4703 -0.3097
 1864TIP3   OH227082   6.438   4.629   5.913  0.7026  0.0339 -0.0446
 1864TIP3    H127083   6.380   4.615   5.988  0.6129 -0.6696 -0.2329
 1864TIP3    H227084   6.478   4.543   5.898  1.4243  0.3997 -0.2220
 1865TIP3   OH227085   6.249   5.578   5.819  0.0479 -0.1218  0.0609
 1865TIP3    H127086   6.234   5.484   5.827 -1.0301 -0.1209 -1.4494
 1865TIP3    H227087   6.218   5.616   5.901  0.6151 -1.0867  0.7301
 1866TIP3   OH227088   5.718   5.360  14.291  0.5243  0.6460  0.2263
 1866TIP3    H127089   5.662   5.283  14.285 -0.0742  0.9555  1.5389
 1866TIP3    H227090   5.796   5.330  14.339  0.2886  0.8463  0.7423
 1867TIP3   OH227091   5.659   0.161  16.934  0.1896 -0.8413  0.3448
 1867TIP3    H127092   5.633   0.086  16.987  0.8496 -1.2681  0.0714
 1867TIP3    H227093   5.747   0.140  16.905  0.4508  0.1204  0.4141
 1868TIP3   OH227094   1.651   3.511  11.063  0.0942 -0.1365 -0.2840
 1868TIP3    H127095   1.653   3.438  11.001 -0.9268 -1.1391  0.7975
 1868TIP3    H227096   1.624   3.586  11.011 -0.9046 -0.9807 -1.0379
 1869TIP3   OH227097   5.975   0.361   2.592 -0.0450 -0.0016  0.0595
 1869TIP3    H127098   5.974   0.426   2.662 -0.6802  3.1143 -2.6280
 1869TIP3    H227099   6.056   0.378   2.545 -1.3576  0.5942 -2.1217
 1870TIP3   OH227100   6.608   3.022  12.205 -0.7941 -0.0800  0.2507
 1870TIP3    H127101   6.654   2.940  12.221 -0.3444  0.2389  0.6142
 1870TIP3    H227102   6.661   3.068  12.140  0.4541  1.1085  2.0138
 1871TIP3   OH227103   0.340   6.486  14.921  0.2483  0.5442 -0.1592
 1871TIP3    H127104   0.404   6.510  14.854  0.6209  0.1527  0.0554
 1871TIP3    H227105   0.345   6.556  14.985  0.7584  0.3067  0.0630
 1872TIP3   OH227106   0.577   6.274  11.936  0.0215 -0.2616 -0.0717
 1872TIP3    H127107   0.554   6.310  12.022  1.2912 -0.4581  0.3615
 1872TIP3    H227108   0.673   6.275  11.933  0.0693  2.2898 -2.5515
 1873TIP3   OH227109   3.399   4.082   5.435 -0.1374  0.0928 -0.6914
 1873TIP3    H127110   3.391   3.987   5.449 -1.2065  0.5157  2.3162
 1873TIP3    H227111   3.459   4.111   5.504  1.6394  1.4319 -2.6989
 1874TIP3   OH227112   1.970   4.500   2.352  0.2837 -0.3257  0.7535
 1874TIP3    H127113   2.031   4.518   2.281  0.1623  2.5594  1.2508
 1874TIP3    H227114   1.900   4.565   2.341 -0.3849 -0.6268  2.7612
 1875TIP3   OH227115   1.853   3.597  14.287  0.3333  0.1509 -0.4364
 1875TIP3    H127116   1.791   3.656  14.330  0.4105 -0.2969  0.3179
 1875TIP3    H227117   1.930   3.651  14.271  0.4750  0.2113  0.4213
 1876TIP3   OH227118   6.809   1.884  11.196  0.3933 -0.0039  0.1313
 1876TIP3    H127119   6.847   1.919  11.277  1.8037 -0.2497 -0.3875
 1876TIP3    H227120   6.830   1.791  11.198 -0.4972 -0.2125 -0.0247
 1877TIP3   OH227121   0.988   5.104   3.599  0.1676  0.0834 -0.5770
 1877TIP3    H127122   0.933   5.134   3.528 -0.4064  0.1935 -0.0942
 1877TIP3    H227123   1.065   5.067   3.556  0.5792  1.6022 -1.1960
 1878TIP3   OH227124   0.928   2.688  16.413  0.1381 -0.0795 -0.0951
 1878TIP3    H127125   0.915   2.650  16.326  1.0687 -1.8379  0.4749
 1878TIP3    H227126   1.021   2.709  16.416  0.1018  0.0203  0.4450
 1879TIP3   OH227127   6.528   6.475   2.915 -0.5294  0.1672 -0.1002
 1879TIP3    H127128   6.492   6.552   2.959 -1.5155  0.5129 -1.4272
 1879TIP3    H227129   6.463   6.406   2.929 -0.1925 -0.1024  0.1353
 1880TIP3   OH227130   5.857   2.106  11.685  0.2637  0.1976  0.1032
 1880TIP3    H127131   5.880   2.063  11.767  0.8701  0.9770  0.3489
 1880TIP3    H227132   5.886   2.046  11.617  0.9206  0.1210  0.4455
 1881TIP3   OH227133   6.226   4.580   4.726  0.4053  0.8373  0.3047
 1881TIP3    H127134   6.136   4.606   4.704 -0.4475 -0.9938  1.3580
 1881TIP3    H227135   6.254   4.525   4.653  1.2465  2.5277 -0.6990
 1882TIP3   OH227136   0.471   1.653  15.397  0.3793  0.2440  0.0035
 1882TIP3    H127137   0.463   1.607  15.314 -1.6108 -0.3686  0.4761
 1882TIP3    H227138   0.413   1.606  15.456  0.6136  1.5553  1.3441
 1883TIP3   OH227139   0.445   0.634   5.869 -0.3207  0.6067  0.0686
 1883TIP3    H127140   0.400   0.656   5.950 -0.7685 -1.3142  0.3811
 1883TIP3    H227141   0.397   0.681   5.801 -1.5473  0.1873  0.6263
 1884TIP3   OH227142   0.397   2.250  15.665 -0.2258  0.5997  0.0626
 1884TIP3    H127143   0.392   2.158  15.691 -1.5695  0.2611 -1.2310
 1884TIP3    H227144   0.404   2.298  15.747  1.7397 -0.6876  0.7234
 1885TIP3   OH227145   6.775   3.154   2.624 -0.1455 -0.4913  0.1799
 1885TIP3    H127146   6.863   3.137   2.659 -0.9194 -0.9617  2.0330
 1885TIP3    H227147   6.784   3.140   2.530  1.9066  0.1085  0.2253
 1886TIP3   OH227148   3.351   1.887  14.929 -0.2614 -0.0105  1.2551
 1886TIP3    H127149   3.404   1.809  14.915 -1.5234 -0.9372  1.4094
 1886TIP3    H227150   3.373   1.916  15.018  0.7146  0.2273  0.9423
 1887TIP3   OH227151   3.127   1.342  15.079 -0.2213  0.2102 -0.3685
 1887TIP3    H127152   3.218   1.315  15.066 -0.6287 -0.4130 -2.3883
 1887TIP3    H227153   3.097   1.368  14.991 -1.0017  3.7391  0.7548
 1888TIP3   OH227154   0.281   4.089   6.110 -0.0914 -0.0624 -0.7992
 1888TIP3    H127155   0.190   4.103   6.084 -0.5327 -1.5370 -0.1285
 1888TIP3    H227156   0.312   4.020   6.051  0.3581 -0.0937 -0.5283
 1889TIP3   OH227157   1.316   1.110   4.602  0.2946  0.3841 -0.7234
 1889TIP3    H127158   1.260   1.139   4.529  2.2816  0.6864 -2.2364
 1889TIP3    H227159   1.273   1.143   4.680 -0.4841  2.6010 -1.9826
 1890TIP3   OH227160   2.407   0.463   1.568  0.4273  0.5502  0.3368
 1890TIP3    H127161   2.440   0.419   1.646 -0.1163 -2.7291 -1.0932
 1890TIP3    H227162   2.312   0.463   1.579  0.3840  0.6220 -0.0169
 1891TIP3   OH227163   5.405   2.031  15.790 -0.1971  0.1349  0.2659
 1891TIP3    H127164   5.362   2.045  15.706  0.9934 -0.6660 -0.4954
 1891TIP3    H227165   5.404   1.936  15.803  0.7027  0.1530  0.5584
 1892TIP3   OH227166   0.076   4.918   4.818 -0.2907  0.2841  0.0955
 1892TIP3    H127167   0.124   4.893   4.897  0.6525 -0.0743 -0.5827
 1892TIP3    H227168  -0.016   4.907   4.842 -0.0123 -0.0532  1.0628
 1893TIP3   OH227169   4.552   4.507   2.196 -0.3418 -0.5322 -0.0989
 1893TIP3    H127170   4.457   4.505   2.181 -0.1690  0.4243 -1.5971
 1893TIP3    H227171   4.580   4.590   2.157  1.0417 -0.5012  0.8875
 1894TIP3   OH227172   1.004   6.404  11.733  0.2369 -0.1334  0.2303
 1894TIP3    H127173   0.964   6.357  11.806 -0.6565 -2.1184 -1.4414
 1894TIP3    H227174   1.094   6.374  11.731 -0.2869 -1.7737 -0.7264
 1895TIP3   OH227175   1.280   0.107  16.365  0.3439  0.3714  0.3022
 1895TIP3    H127176   1.295   0.077  16.276 -1.7935 -0.6382  0.2275
 1895TIP3    H227177   1.262   0.200  16.357  0.5231  0.3594 -0.2695
 1896TIP3   OH227178   3.125   4.378   4.870 -0.1961  0.6092 -0.3182
 1896TIP3    H127179   3.052   4.358   4.812 -0.4380  1.1337 -0.2072
 1896TIP3    H227180   3.203   4.351   4.822 -0.2964  2.1001 -1.4043
 1897TIP3   OH227181   3.148   1.753   2.308  0.5242  0.2022 -0.3962
 1897TIP3    H127182   3.145   1.688   2.238 -0.4799 -0.1497 -0.0331
 1897TIP3    H227183   3.215   1.720   2.368  1.1230  0.3148 -0.9793
 1898TIP3   OH227184   2.710   2.846   2.628  0.0005  0.2122 -0.1739
 1898TIP3    H127185   2.773   2.806   2.688 -0.1806 -0.2561 -0.2914
 1898TIP3    H227186   2.635   2.867   2.684  0.2202  0.6862 -0.0515
 1899TIP3   OH227187   4.068   2.664   5.608 -0.3267 -0.1015  0.0627
 1899TIP3    H127188   4.091   2.650   5.700 -1.5879  0.6105  0.5055
 1899TIP3    H227189   3.982   2.706   5.610 -0.5936 -0.5050 -1.4636
 1900TIP3   OH227190   3.884   1.409  14.387  0.4718 -0.0078 -0.2395
 1900TIP3    H127191   3.846   1.476  14.330 -0.0875  0.8058  1.0306
 1900TIP3    H227192   3.835   1.329  14.368 -0.6302  0.5812  0.0331
 1901TIP3   OH227193   5.906   5.823  17.037 -0.1167 -0.1082  0.0693
 1901TIP3    H127194   5.950   5.755  16.987  0.3676  0.9828 -1.0552
 1901TIP3    H227195   5.938   5.812  17.127 -1.4436 -2.4706  0.3184
 1902TIP3   OH227196   4.309   0.424  13.689  0.5937  0.2699 -0.0961
 1902TIP3    H127197   4.288   0.382  13.772 -0.9054  2.3957  0.6797
 1902TIP3    H227198   4.397   0.459  13.701  0.2654  0.8330  0.7160
 1903TIP3   OH227199   1.873   4.184  12.361  0.0646 -0.2893 -0.0012
 1903TIP3    H127200   1.826   4.172  12.443 -0.5420  0.5979 -0.2102
 1903TIP3    H227201   1.808   4.220  12.301  1.4601  3.0166  0.2712
 1904TIP3   OH227202   3.925   5.776   4.068  1.0800 -0.3928  0.2601
 1904TIP3    H127203   3.977   5.718   4.013  0.4090 -0.5264 -0.2382
 1904TIP3    H227204   3.852   5.804   4.013  0.7032 -0.0756  0.8984
 1905TIP3   OH227205   5.774   1.839   4.774 -0.5730  0.3656 -0.1858
 1905TIP3    H127206   5.737   1.919   4.735 -1.6202  0.3137  0.6508
 1905TIP3    H227207   5.796   1.864   4.864 -2.5539 -0.6995  0.6514
 1906TIP3   OH227208   2.559   3.893   2.757  0.4009  0.7456 -0.1067
 1906TIP3    H127209   2.470   3.926   2.769 -0.5879 -1.4265 -0.9428
 1906TIP3    H227210   2.561   3.811   2.807  1.8791  0.6689 -0.2562
 1907TIP3   OH227211   0.493   0.340  14.476  0.3989  0.3422 -0.0634
 1907TIP3    H127212   0.402   0.357  14.452 -0.0761  0.7182  1.8951
 1907TIP3    H227213   0.489   0.296  14.560  2.0303  0.1932 -0.0222
 1908TIP3   OH227214   1.544   0.877   2.056 -0.2450 -0.6607  0.2277
 1908TIP3    H127215   1.573   0.802   2.004 -0.3765  0.3061 -1.3179
 1908TIP3    H227216   1.590   0.868   2.140  0.8184 -1.7041 -0.4373
 1909TIP3   OH227217   6.107   6.068  12.173 -0.9719 -0.2806  0.0530
 1909TIP3    H127218   6.028   6.035  12.130 -1.8474  1.7712 -0.0237
 1909TIP3    H227219   6.090   6.161  12.187  1.6003  0.3150 -0.3091
 1910TIP3   OH227220   6.503   2.529  16.262  0.1974  0.6398 -0.3067
 1910TIP3    H127221   6.422   2.477  16.268  0.2801  0.5607  0.1498
 1910TIP3    H227222   6.573   2.466  16.277  0.3608  0.6792 -0.8594
 1911TIP3   OH227223   3.482   4.746   0.645  0.6156 -0.6090 -0.2819
 1911TIP3    H127224   3.407   4.794   0.611  0.7555 -0.6582 -0.6753
 1911TIP3    H227225   3.555   4.773   0.588  0.8855 -0.5903  0.0706
 1912TIP3   OH227226   3.210   5.247   5.475 -0.8962 -0.0533  0.1655
 1912TIP3    H127227   3.278   5.233   5.408  0.3413  1.2139  1.0897
 1912TIP3    H227228   3.150   5.173   5.464 -1.9928  1.1573 -3.7632
 1913TIP3   OH227229   4.853   0.898   5.597  1.1407  0.1241  0.1199
 1913TIP3    H127230   4.906   0.887   5.676  2.6680  0.3225 -0.8459
 1913TIP3    H227231   4.876   0.985   5.565 -0.1532  0.4145 -0.0652
 1914TIP3   OH227232   5.489   5.632   4.137  0.4687 -0.4553  0.0385
 1914TIP3    H127233   5.487   5.727   4.147 -1.5874 -0.5089  0.4632
 1914TIP3    H227234   5.466   5.617   4.045  1.6076 -0.5519 -0.2519
 1915TIP3   OH227235   0.512   5.829   2.831  0.0488 -0.8190  0.1063
 1915TIP3    H127236   0.539   5.919   2.848 -0.8423 -0.6192  0.5172
 1915TIP3    H227237   0.496   5.792   2.918  0.2445 -1.3344 -0.0677
 1916TIP3   OH227238   5.910   0.992  14.025  0.2522  0.1513 -0.1949
 1916TIP3    H127239   5.885   1.061  14.087  1.7904 -1.0960  1.9713
 1916TIP3    H227240   5.965   1.036  13.961  0.6501  1.0929  0.7619
 1917TIP3   OH227241   0.825   6.082   0.943 -0.7315  0.8975 -0.1749
 1917TIP3    H127242   0.801   6.108   0.854 -3.3935  1.0695  0.5050
 1917TIP3    H227243   0.909   6.125   0.959 -0.6153  1.5563 -2.2821
 1918TIP3   OH227244   1.040   4.732   3.391 -0.1932 -0.0992  0.3873
 1918TIP3    H127245   1.032   4.740   3.486 -0.4530  1.2896  0.2597
 1918TIP3    H227246   1.089   4.809   3.364  2.7662 -2.0232 -0.2990
 1919TIP3   OH227247   1.429   2.373  14.181  0.1708 -0.0945 -0.4856
 1919TIP3    H127248   1.338   2.366  14.210  0.2334 -0.4805 -0.3689
 1919TIP3    H227249   1.450   2.466  14.190 -0.2471  0.0207 -0.6281
 1920TIP3   OH227250   3.767   0.423  11.909  0.3203  0.0831 -0.3918
 1920TIP3    H127251   3.860   0.436  11.888 -0.2891  0.5039 -3.1265
 1920TIP3    H227252   3.768   0.374  11.991  2.9144  3.2241  1.7462
 1921TIP3   OH227253   0.754   1.102   5.483  0.5481  0.2190 -0.2239
 1921TIP3    H127254   0.773   1.082   5.391  2.0045 -0.0311  0.0946
 1921TIP3    H227255   0.741   1.016   5.523  2.1896  0.1392  0.2251
 1922TIP3   OH227256   6.155   2.477  13.011  0.1568  0.0788 -0.0538
 1922TIP3    H127257   6.231   2.521  13.050  0.7994 -0.7493 -0.3234
 1922TIP3    H227258   6.157   2.503  12.919  0.0067  0.2028 -0.0215
 1923TIP3   OH227259   2.228   3.509  14.822  0.2555 -0.2408  0.1142
 1923TIP3    H127260   2.135   3.493  14.840  0.0129  1.3255  0.3779
 1923TIP3    H227261   2.247   3.590  14.869  0.6503  1.8713 -3.3793
 1924TIP3   OH227262   3.728   2.893  15.687  0.4056  0.5472  0.5075
 1924TIP3    H127263   3.756   2.982  15.711  2.4177  0.4749 -1.2105
 1924TIP3    H227264   3.714   2.898  15.592  1.8716 -1.2205  0.1431
 1925TIP3   OH227265   2.410   1.710  15.294  0.3399  0.5666  0.6365
 1925TIP3    H127266   2.376   1.641  15.351 -1.5293 -0.9465 -2.0796
 1925TIP3    H227267   2.460   1.663  15.227 -0.3380  1.8940 -0.8636
 1926TIP3   OH227268   1.542   5.124  11.395  0.0801 -0.1609 -0.0091
 1926TIP3    H127269   1.562   5.129  11.489 -1.0283  1.7871  0.1774
 1926TIP3    H227270   1.464   5.068  11.391  0.3582 -0.5680  0.1830
 1927TIP3   OH227271   6.815   0.750  15.707  0.0553  0.0488 -0.1702
 1927TIP3    H127272   6.894   0.719  15.662  0.6452  0.7363  0.3790
 1927TIP3    H227273   6.835   0.742  15.800 -0.1763  1.0543 -0.0176
 1928TIP3   OH227274   1.570   5.091   5.513  0.1827  0.9643 -0.3580
 1928TIP3    H127275   1.653   5.127   5.544  0.1791 -0.8376  1.9934
 1928TIP3    H227276   1.573   4.998   5.537 -3.2496  1.1945  1.6015
 1929TIP3   OH227277   0.889   0.353  11.066  0.5780 -0.0462  1.2816
 1929TIP3    H127278   0.931   0.439  11.056 -0.1498  0.5339  2.7974
 1929TIP3    H227279   0.911   0.327  11.156  0.6836 -1.4075  0.8764
 1930TIP3   OH227280   5.991   5.443   3.423  0.1970  0.2854  0.2490
 1930TIP3    H127281   5.945   5.479   3.499  1.8868 -1.0392  1.9862
 1930TIP3    H227282   6.081   5.430   3.453  1.3853  1.3563 -2.5585
 1931TIP3   OH227283   5.625   3.985   0.174 -0.1613  0.2126 -0.3430
 1931TIP3    H127284   5.668   4.051   0.121  0.1940 -0.4567 -0.9007
 1931TIP3    H227285   5.556   3.950   0.118 -0.1864 -0.0614 -0.1450
 1932TIP3   OH227286   2.094   3.555   0.268  0.4762  0.0380  0.4603
 1932TIP3    H127287   2.034   3.486   0.297  0.8613 -1.5287 -2.0818
 1932TIP3    H227288   2.181   3.520   0.284  0.7806  1.5105  2.3923
 1933TIP3   OH227289   1.830   5.777   3.396  0.2640 -0.2051 -0.5751
 1933TIP3    H127290   1.759   5.800   3.456  0.2279 -0.2881 -0.5867
 1933TIP3    H227291   1.790   5.718   3.333  0.6880 -1.4380  0.2756
 1934TIP3   OH227292   3.530   2.075  15.772 -0.0659 -0.1026 -0.6730
 1934TIP3    H127293   3.455   2.048  15.825 -1.0494  1.4134 -1.2343
 1934TIP3    H227294   3.598   2.097  15.836  0.0607 -1.8498 -0.1696
 1935TIP3   OH227295   2.687   1.345   4.370 -0.1147  0.5906  0.2173
 1935TIP3    H127296   2.639   1.280   4.319 -1.6049  0.1832  2.0209
 1935TIP3    H227297   2.685   1.312   4.459  0.5616  2.2937  0.9066
 1936TIP3   OH227298   5.197   0.181   3.863 -0.3396  0.1127  0.1431
 1936TIP3    H127299   5.252   0.108   3.891 -1.0287 -0.5693 -0.2465
 1936TIP3    H227300   5.233   0.206   3.777 -2.0428 -1.9160 -1.2757
 1937TIP3   OH227301   6.511   1.621   2.147 -0.2099  0.0070  0.1417
 1937TIP3    H127302   6.540   1.689   2.208  0.6188 -0.5103  0.3430
 1937TIP3    H227303   6.430   1.587   2.185 -0.6522  0.8990  0.0179
 1938TIP3   OH227304   2.378   2.742   1.066  0.4612  0.2218  0.7172
 1938TIP3    H127305   2.366   2.647   1.064  1.3834  0.0744  1.5133
 1938TIP3    H227306   2.389   2.766   0.974  2.7551 -0.8218  0.6394
 1939TIP3   OH227307   3.024   5.612  13.859 -0.2765 -0.0187 -0.1182
 1939TIP3    H127308   2.977   5.588  13.779  0.0991  1.2886 -0.7602
 1939TIP3    H227309   2.999   5.703  13.875  0.9116  0.2385  0.3526
 1940TIP3   OH227310   1.098   6.608  12.070  0.3503  0.4108  0.1032
 1940TIP3    H127311   1.156   6.534  12.088  0.8068  0.9396  0.8361
 1940TIP3    H227312   1.022   6.593  12.126 -0.9583 -1.0520 -1.8928
 1941TIP3   OH227313   3.464   0.393   4.961 -0.3953  0.0994  0.2318
 1941TIP3    H127314   3.488   0.352   5.044 -1.9212 -2.0976 -0.3259
 1941TIP3    H227315   3.369   0.386   4.958 -0.5400  1.8469 -0.9060
 1942TIP3   OH227316   2.119   3.149  17.108  0.5833  0.0546 -0.1871
 1942TIP3    H127317   2.163   3.064  17.113  1.6737  0.6592  1.0242
 1942TIP3    H227318   2.081   3.162  17.195 -1.7136 -0.2476 -1.0675
 1943TIP3   OH227319   5.188   0.188  16.380 -0.5498  0.1527  0.2923
 1943TIP3    H127320   5.163   0.168  16.471 -1.7195 -0.3830 -0.1264
 1943TIP3    H227321   5.107   0.177  16.330  0.1864 -0.0279 -0.8947
 1944TIP3   OH227322   6.338   4.331   2.518  0.5369  0.3688 -0.6622
 1944TIP3    H127323   6.399   4.258   2.524  0.8316  0.6222 -0.5789
 1944TIP3    H227324   6.391   4.406   2.492  0.3225  0.6642 -0.2743
 1945TIP3   OH227325   0.836   3.949   2.941  0.2564  0.2512  0.9653
 1945TIP3    H127326   0.795   4.016   2.995 -0.9497 -0.6112  1.1390
 1945TIP3    H227327   0.886   3.999   2.876  0.5874  1.2986  1.9909
 1946TIP3   OH227328   0.148   1.562  16.935  0.1818 -0.1213 -0.1385
 1946TIP3    H127329   0.203   1.554  17.012  0.0434 -1.1363 -0.1341
 1946TIP3    H227330   0.075   1.502  16.951  0.1899 -0.3963 -1.0901
 1947TIP3   OH227331   4.311   2.415  17.097  0.3780 -0.5739  0.9249
 1947TIP3    H127332   4.286   2.332  17.056 -0.9925  0.7109 -1.0367
 1947TIP3    H227333   4.272   2.482  17.040  3.2849  1.4901  1.1499
 1948TIP3   OH227334   5.527   0.196  13.616  0.1904  0.2401  0.3892
 1948TIP3    H127335   5.575   0.125  13.574  1.1113  0.7577  0.5384
 1948TIP3    H227336   5.586   0.228  13.684  0.1487  1.6738 -0.1972
 1949TIP3   OH227337   0.449   3.829   6.081 -0.5452  0.1143 -0.1011
 1949TIP3    H127338   0.447   3.775   6.160 -2.6754 -0.2716 -0.3600
 1949TIP3    H227339   0.540   3.824   6.051 -0.1462 -1.3443  1.2253
 1950TIP3   OH227340   1.917   5.200  12.752 -0.2292  0.3321 -0.4115
 1950TIP3    H127341   1.890   5.222  12.841  1.6635  0.4756  0.1881
 1950TIP3    H227342   1.987   5.135  12.764 -2.1521 -2.2239 -1.9397
 1951TIP3   OH227343   6.385   0.258  15.698  0.0017 -0.0400 -0.0405
 1951TIP3    H127344   6.347   0.295  15.778  0.7535 -0.0800  0.3377
 1951TIP3    H227345   6.377   0.328  15.634 -0.2529  0.1282  0.1705
 1952TIP3   OH227346   6.760   3.099  11.510 -0.1945 -0.1969  0.7167
 1952TIP3    H127347   6.667   3.081  11.527 -0.2412 -0.9704 -0.2453
 1952TIP3    H227348   6.767   3.195  11.513 -0.7717 -0.1836  2.0036
 1953TIP3   OH227349   6.467   0.405   3.813 -0.4867 -0.7169  0.3401
 1953TIP3    H127350   6.475   0.382   3.721 -1.6468 -0.2202  0.1002
 1953TIP3    H227351   6.381   0.373   3.839 -0.3690 -0.4292  1.1276
 1954TIP3   OH227352   1.622   0.675   3.032  0.2281  0.1215 -0.3727
 1954TIP3    H127353   1.694   0.616   3.054 -0.4026  0.1613  2.0264
 1954TIP3    H227354   1.545   0.633   3.069 -0.5464  1.4708 -0.4212
 1955TIP3   OH227355   4.335   0.157   5.528 -0.1005  0.0236  0.0933
 1955TIP3    H127356   4.414   0.167   5.582 -0.0672 -0.5783  0.1656
 1955TIP3    H227357   4.322   0.062   5.524  0.2994  0.0176 -1.5331
 1956TIP3   OH227358   1.304   2.655  17.032 -0.1954  0.0355 -0.2560
 1956TIP3    H127359   1.268   2.566  17.034 -0.4629  0.1026 -1.5646
 1956TIP3    H227360   1.320   2.676  17.124 -2.2540 -0.4960  0.2670
 1957TIP3   OH227361   3.829   1.373  10.402  0.5081  0.1016  0.2066
 1957TIP3    H127362   3.735   1.373  10.421  0.1127  1.1902 -1.5065
 1957TIP3    H227363   3.838   1.319  10.324  0.9361  1.7600 -0.9632
 1958TIP3   OH227364   0.376   5.322  15.997 -0.5463  0.3690 -0.3234
 1958TIP3    H127365   0.305   5.344  16.056  1.2317 -0.2553  2.2463
 1958TIP3    H227366   0.393   5.229  16.014  2.5278  1.0659  1.2335
 1959TIP3   OH227367   2.635   4.697   2.847 -0.1692  0.2277  0.3485
 1959TIP3    H127368   2.600   4.639   2.779  0.6893  0.5144 -0.3598
 1959TIP3    H227369   2.574   4.771   2.849  0.9353  1.2957 -1.6954
 1960TIP3   OH227370   6.332   6.279   3.000  0.2726  0.1220  0.4393
 1960TIP3    H127371   6.260   6.222   3.028 -0.2233  0.6841  0.3358
 1960TIP3    H227372   6.364   6.319   3.080 -1.1872  1.7780  0.2418
 1961TIP3   OH227373   0.115   5.048  11.966  0.0488 -0.2721 -0.4319
 1961TIP3    H127374   0.200   5.023  12.001 -0.1884  0.0112  0.3841
 1961TIP3    H227375   0.113   5.012  11.878  0.2984 -1.8452  0.1732
 1962TIP3   OH227376   2.596   3.802   5.209 -0.2409  0.2126 -0.2386
 1962TIP3    H127377   2.560   3.858   5.277  0.0898  2.2440 -1.6652
 1962TIP3    H227378   2.691   3.805   5.224 -0.2775 -1.2800  0.5927
 1963TIP3   OH227379   2.339   1.954  11.446 -0.2970 -0.1402  0.1515
 1963TIP3    H127380   2.389   1.974  11.367 -0.3635  1.4994  0.4875
 1963TIP3    H227381   2.251   1.987  11.429  0.1252  1.8901  1.5154
 1964TIP3   OH227382   2.963   4.422   3.218 -0.1115 -0.2556  0.4827
 1964TIP3    H127383   2.910   4.474   3.158  0.2161  0.8125  1.0925
 1964TIP3    H227384   2.908   4.410   3.295 -0.0047 -0.3881  0.5396
 1965TIP3   OH227385   2.747   3.828  14.722  0.0555 -0.5119 -0.0302
 1965TIP3    H127386   2.804   3.751  14.716  1.4756  0.5497 -0.9141
 1965TIP3    H227387   2.671   3.798  14.772 -0.0222 -2.8190 -1.4050
 1966TIP3   OH227388   1.547   0.994  15.876  0.4115  0.0783  0.4969
 1966TIP3    H127389   1.468   0.951  15.843  0.3438  0.0795  0.6602
 1966TIP3    H227390   1.526   1.018  15.966  0.0712  1.3774  0.0912
 1967TIP3   OH227391   5.756   4.704  13.965 -0.1696 -0.2411  0.6665
 1967TIP3    H127392   5.787   4.758  13.893 -1.6768 -1.4057 -0.9631
 1967TIP3    H227393   5.807   4.623  13.959 -0.3182 -0.3556  0.8873
 1968TIP3   OH227394   1.194   5.260  15.475  0.5282 -0.2580 -0.3197
 1968TIP3    H127395   1.240   5.189  15.521  0.4678  0.1177  0.3422
 1968TIP3    H227396   1.109   5.223  15.452  0.0792 -0.0895  0.9655
 1969TIP3   OH227397   1.517   6.363   4.712  0.4729  0.5984 -0.5191
 1969TIP3    H127398   1.537   6.419   4.787  2.3228  3.0319 -2.6382
 1969TIP3    H227399   1.467   6.419   4.653  1.0812 -0.4327 -2.0926
 1970TIP3   OH227400   5.556   6.411   1.115  0.3903  0.8257 -0.2572
 1970TIP3    H127401   5.491   6.383   1.180  0.8549  0.9595  0.2668
 1970TIP3    H227402   5.639   6.407   1.161  0.9280 -0.5521 -1.2812
 1971TIP3   OH227403   5.359   5.545  11.880 -0.2639 -0.0028  0.1895
 1971TIP3    H127404   5.317   5.557  11.794 -0.9373 -3.9038 -0.2498
 1971TIP3    H227405   5.436   5.491  11.861  0.3670  0.2476  1.8971
 1972TIP3   OH227406   1.239   4.723   4.038 -0.2061 -0.4249  0.4437
 1972TIP3    H127407   1.306   4.690   4.099 -0.1654 -0.8134  0.1931
 1972TIP3    H227408   1.267   4.813   4.018  0.1376 -0.5202  0.4876
 1973TIP3   OH227409   3.206   6.225   2.930 -0.4775  0.4599  0.2683
 1973TIP3    H127410   3.218   6.142   2.977  1.0662 -0.2058 -1.2221
 1973TIP3    H227411   3.294   6.251   2.905 -0.8787  2.8103  1.0391
 1974TIP3   OH227412   3.687   4.645  15.469 -0.1964 -0.1049  0.5105
 1974TIP3    H127413   3.735   4.563  15.467 -0.4190 -0.2338  0.3974
 1974TIP3    H227414   3.673   4.663  15.562 -0.9084 -0.6431  0.5153
 1975TIP3   OH227415   4.477   6.189   0.901 -0.0884  0.8084  0.2314
 1975TIP3    H127416   4.554   6.244   0.886 -0.5416  1.3619 -0.1161
 1975TIP3    H227417   4.415   6.216   0.833  0.2342 -1.2095 -0.9586
 1976TIP3   OH227418   2.159   0.377  13.397  0.1496 -0.0779 -0.0908
 1976TIP3    H127419   2.065   0.362  13.386 -0.8094  4.1755  0.8029
 1976TIP3    H227420   2.180   0.443  13.331  2.0758  0.3891  0.9355
 1977TIP3   OH227421   4.666   3.317  11.589  0.2860  0.5062  0.3708
 1977TIP3    H127422   4.708   3.258  11.527 -1.6750 -0.6595  0.1064
 1977TIP3    H227423   4.647   3.263  11.665  1.1148  1.5237  1.3402
 1978TIP3   OH227424   0.084   6.290  12.991  0.0670 -0.4386 -0.1588
 1978TIP3    H127425   0.142   6.225  13.030  1.0933 -0.8602 -2.2481
 1978TIP3    H227426   0.094   6.277  12.897 -0.5561  2.0062 -0.6162
 1979TIP3   OH227427   0.622   6.566  15.783  0.0043  0.4597  0.2742
 1979TIP3    H127428   0.646   6.635  15.845 -0.3444  0.6875  0.1560
 1979TIP3    H227429   0.705   6.543  15.741  0.0458  1.1768 -0.0636
 1980TIP3   OH227430   2.536   2.084  15.028 -0.4085 -0.3490  0.2365
 1980TIP3    H127431   2.482   2.116  14.955 -1.0488 -1.5801  0.1285
 1980TIP3    H227432   2.536   1.989  15.017  1.5257 -0.4118  0.4474
 1981TIP3   OH227433   2.661   0.680   4.595 -0.7085 -0.2408 -0.5669
 1981TIP3    H127434   2.655   0.626   4.673 -0.5076  0.9680  0.3165
 1981TIP3    H227435   2.740   0.651   4.551 -0.8687 -0.9891 -0.3686
 1982TIP3   OH227436   2.007   2.060   4.022  0.1165  0.1392  0.1384
 1982TIP3    H127437   1.999   1.976   4.067 -0.6439  0.2248  0.1732
 1982TIP3    H227438   2.016   2.125   4.093 -0.3983  0.2030  0.1445
 1983TIP3   OH227439   4.072   5.130  12.354  0.5742  0.0629 -0.0777
 1983TIP3    H127440   4.079   5.168  12.266  0.8768  0.7905  0.2534
 1983TIP3    H227441   4.161   5.127  12.387  0.3885  0.4694  0.4808
 1984TIP3   OH227442   5.930   0.070  12.976  0.3064 -0.0610 -0.2227
 1984TIP3    H127443   5.844   0.111  12.964 -0.3299  0.0412  3.5142
 1984TIP3    H227444   5.981   0.134  13.025  2.4397 -0.3266 -1.9388
 1985TIP3   OH227445   4.059   6.305   5.049  0.4534  0.2071 -0.2708
 1985TIP3    H127446   4.147   6.280   5.077  0.0222 -3.3915 -1.5528
 1985TIP3    H227447   4.063   6.305   4.954 -1.1516 -1.1407 -0.3730
 1986TIP3   OH227448   0.668   4.356   6.568  0.5520 -0.0496  0.1466
 1986TIP3    H127449   0.660   4.334   6.661 -1.3635 -0.4403 -0.0748
 1986TIP3    H227450   0.672   4.451   6.566  1.0093 -0.0503  0.6432
 1987TIP3   OH227451   2.997   2.315   5.628 -0.2128 -0.6137  0.3193
 1987TIP3    H127452   3.086   2.350   5.618 -0.0382 -1.0969  0.1324
 1987TIP3    H227453   2.957   2.324   5.542 -0.6830  0.4812  0.6342
 1988TIP3   OH227454   0.003   3.514  14.629  0.6635 -0.3046 -0.1385
 1988TIP3    H127455   0.007   3.542  14.721  1.0977 -0.9337  0.0411
 1988TIP3    H227456   0.090   3.481  14.610  0.3834 -0.8015 -0.5801
 1989TIP3   OH227457   2.526   2.608  13.631  0.5264 -0.2581  0.0555
 1989TIP3    H127458   2.553   2.562  13.551 -0.3596  1.9359 -1.6102
 1989TIP3    H227459   2.572   2.692  13.628 -0.0197  0.1285  1.5288
 1990TIP3   OH227460   1.784   1.378  11.584 -0.1471 -0.0981  0.5809
 1990TIP3    H127461   1.767   1.454  11.640  1.4485  0.3986  0.4490
 1990TIP3    H227462   1.875   1.390  11.554 -1.1644  0.1441 -2.8157
 1991TIP3   OH227463   0.864   5.515  15.292  0.2460  0.4707  0.3189
 1991TIP3    H127464   0.877   5.536  15.385 -0.1225 -0.9600  0.7110
 1991TIP3    H227465   0.948   5.479  15.264  0.6751  1.7874 -0.1925
 1992TIP3   OH227466   5.525   5.086   4.553 -0.5319  0.2566 -0.5054
 1992TIP3    H127467   5.560   5.167   4.515 -0.5147  0.3761 -0.2385
 1992TIP3    H227468   5.542   5.095   4.647 -0.0205 -0.3057 -0.5361
 1993TIP3   OH227469   6.342   4.813   6.136 -0.0828 -0.0280  0.1742
 1993TIP3    H127470   6.399   4.850   6.203  1.4236 -1.5044 -0.2311
 1993TIP3    H227471   6.324   4.724   6.166 -1.9057  0.2650  0.0878
 1994TIP3   OH227472   3.706   4.032  15.110 -0.2453  0.1451 -0.1837
 1994TIP3    H127473   3.714   4.067  15.022 -1.6742  2.7236  0.6121
 1994TIP3    H227474   3.618   3.992  15.112  0.1772 -0.8098 -0.1935
 1995TIP3   OH227475   0.611   5.794  14.386  0.1678 -0.2780 -0.1480
 1995TIP3    H127476   0.608   5.824  14.477 -0.3091  3.2990 -1.1688
 1995TIP3    H227477   0.702   5.767  14.372  1.0682  2.0412  0.6896
 1996TIP3   OH227478   3.684   4.065   5.691  0.1101  0.4277 -0.0496
 1996TIP3    H127479   3.700   4.109   5.774  0.2235 -0.4885  0.4194
 1996TIP3    H227480   3.589   4.071   5.679  0.0363  0.1362  0.3872
 1997TIP3   OH227481   4.951   6.195  11.625  0.4521 -0.0210 -0.0436
 1997TIP3    H127482   5.037   6.157  11.644  0.0670 -0.7479  0.2976
 1997TIP3    H227483   4.970   6.273  11.574  1.2586 -1.0997 -1.4985
 1998TIP3   OH227484   4.551   0.564  10.896 -0.0681  0.3395 -0.3874
 1998TIP3    H127485   4.626   0.601  10.941  1.9566 -1.2734 -2.1788
 1998TIP3    H227486   4.540   0.477  10.935  0.8107 -0.5062 -1.9147
 1999TIP3   OH227487   0.680   2.978  15.834 -0.0847 -0.0979  0.1679
 1999TIP3    H127488   0.726   2.962  15.752  0.3316 -1.2778  0.6096
 1999TIP3    H227489   0.636   3.062  15.821  1.2572  0.5111 -0.6915
 2000TIP3   OH227490   5.564   1.588   0.673  0.2208  0.1582  0.1930
 2000TIP3    H127491   5.490   1.539   0.637  0.6436  0.7935 -1.6371
 2000TIP3    H227492   5.641   1.547   0.634  0.7694  0.4091  0.9750
 2001TIP3   OH227493   4.887   3.019  13.807  0.8092  0.4947 -0.0812
 2001TIP3    H127494   4.797   3.041  13.782  1.4582  0.3216 -2.9555
 2001TIP3    H227495   4.878   2.946  13.868 -1.0011 -0.1285 -1.0093
 2002TIP3   OH227496   2.688   6.424  12.159  0.0680 -0.0739  0.1588
 2002TIP3    H127497   2.672   6.505  12.111  1.5879  2.5536  3.6871
 2002TIP3    H227498   2.778   6.431  12.190 -0.4408 -2.0613  2.3885
 2003TIP3   OH227499   1.975   4.147  13.885  0.3995 -0.5067  0.3690
 2003TIP3    H127500   1.966   4.082  13.815  0.6347 -0.9113  0.7117
 2003TIP3    H227501   1.953   4.100  13.965 -3.2635  0.7875  0.3023
 2004TIP3   OH227502   6.601   1.703  14.174  0.0322  0.2757 -0.2694
 2004TIP3    H127503   6.686   1.747  14.179 -0.2061  0.6950  0.0846
 2004TIP3    H227504   6.563   1.712  14.261  0.3135 -1.3256  0.0605
 2005TIP3   OH227505   6.824   0.742  16.143 -0.8668 -0.2150  0.2438
 2005TIP3    H127506   6.769   0.795  16.085 -1.0019 -1.5265 -0.8721
 2005TIP3    H227507   6.902   0.796  16.158 -0.9566  0.2666 -0.9444
 2006TIP3   OH227508   1.244   1.318  12.432  0.1130 -0.1782  1.0767
 2006TIP3    H127509   1.215   1.245  12.376 -0.5609  0.4351  0.6146
 2006TIP3    H227510   1.339   1.307  12.437 -0.0395 -1.4997  1.6033
 2007TIP3   OH227511   1.601   5.290  15.352 -0.0218 -0.4896 -0.1789
 2007TIP3    H127512   1.565   5.272  15.439  0.4831 -1.3404 -0.1322
 2007TIP3    H227513   1.676   5.231  15.345 -0.1292 -0.5086 -1.2404
 2008TIP3   OH227514   4.091   2.317  14.678 -0.7924 -0.0231  0.2505
 2008TIP3    H127515   4.174   2.359  14.700  0.1977 -1.9690  0.4825
 2008TIP3    H227516   4.082   2.247  14.743 -1.9213 -0.7072 -0.6019
 2009TIP3   OH227517   0.804   4.667   1.641  0.6118 -0.0109 -0.3548
 2009TIP3    H127518   0.726   4.685   1.589  0.4027 -0.9265 -0.3867
 2009TIP3    H227519   0.778   4.595   1.699  1.3931 -0.2618 -0.2961
 2010TIP3   OH227520   4.332   6.030   0.469  0.1582  0.3602 -0.5889
 2010TIP3    H127521   4.391   6.050   0.541 -0.2430  0.4278 -0.2735
 2010TIP3    H227522   4.246   6.022   0.510  0.1296 -0.9564 -0.8599
 2011TIP3   OH227523   4.171   1.686  15.033 -0.2811 -0.5817 -0.2158
 2011TIP3    H127524   4.219   1.676  14.950  1.7027 -1.6022  0.9730
 2011TIP3    H227525   4.160   1.596  15.064 -0.9806 -0.2023  0.6600
 2012TIP3   OH227526   6.314   5.586  12.693  0.3681  0.0164  0.2247
 2012TIP3    H127527   6.317   5.670  12.647 -0.5905 -0.3004 -0.4492
 2012TIP3    H227528   6.342   5.521  12.629  0.2771 -0.2808  0.4798
 2013TIP3   OH227529   4.031   2.066  10.613 -0.0848  0.2114  0.3664
 2013TIP3    H127530   4.020   1.976  10.584  0.6681 -0.0070  0.7400
 2013TIP3    H227531   4.124   2.085  10.600 -0.1566  0.7932  0.6653
 2014TIP3   OH227532   4.145   1.739  14.020 -0.0384  0.3312  0.2420
 2014TIP3    H127533   4.192   1.701  14.095 -0.4214  0.5674  0.6015
 2014TIP3    H227534   4.187   1.824  14.006  1.2224 -0.4457 -0.9414
 2015TIP3   OH227535   0.819   1.882   0.752 -0.0932 -0.3293 -0.2486
 2015TIP3    H127536   0.907   1.850   0.774 -0.5493 -0.9147  0.8599
 2015TIP3    H227537   0.805   1.957   0.811 -0.2316 -0.0707 -0.6092
 2016TIP3   OH227538   2.940   1.144  15.075  0.0819  0.6513  0.2623
 2016TIP3    H127539   2.900   1.154  14.989 -0.3308  0.9391  0.4843
 2016TIP3    H227540   3.002   1.217  15.082  0.8329  0.0731 -0.1745
 2017TIP3   OH227541   2.748   4.909   3.805  0.5159  0.2346  0.1042
 2017TIP3    H127542   2.669   4.922   3.858 -0.2148  0.7576 -1.0579
 2017TIP3    H227543   2.793   4.993   3.808  0.5417  0.2241  0.0242
 2018TIP3   OH227544   5.843   0.619  12.065 -0.4123 -0.5018 -0.6871
 2018TIP3    H127545   5.794   0.594  11.987 -0.2743 -0.8613 -0.6606
 2018TIP3    H227546   5.858   0.537  12.111 -2.5832 -0.0632  0.9610
 2019TIP3   OH227547   6.550   4.530   2.518 -0.2727 -0.0010  0.2616
 2019TIP3    H127548   6.527   4.609   2.568  1.8660  0.0626  1.2952
 2019TIP3    H227549   6.582   4.564   2.434 -1.5894  0.0443 -0.2453
 2020TIP3   OH227550   1.685   3.145  16.177  0.3432 -1.0782  0.3033
 2020TIP3    H127551   1.617   3.186  16.124  0.2515 -0.3068  1.0034
 2020TIP3    H227552   1.684   3.053  16.151 -1.5427 -1.2648  0.9118
 2021TIP3   OH227553   4.714   6.309  12.154  0.2570  0.1839  0.7264
 2021TIP3    H127554   4.778   6.242  12.177  1.4203  0.5238 -1.2251
 2021TIP3    H227555   4.667   6.272  12.078  0.6910  1.4054 -0.1713
 2022TIP3   OH227556   1.661   1.761   3.664 -0.5950 -0.0716 -0.3652
 2022TIP3    H127557   1.741   1.813   3.669  0.8343 -2.1972  0.8803
 2022TIP3    H227558   1.603   1.799   3.729 -0.2122  0.8661 -0.5499
 2023TIP3   OH227559   6.326   5.880   4.029  0.0375 -0.5321  0.2846
 2023TIP3    H127560   6.302   5.917   4.114 -1.5892 -1.1357  0.1158
 2023TIP3    H227561   6.377   5.949   3.987 -1.5028  0.9039  0.6355
 2024TIP3   OH227562   3.803   6.200  15.609  0.5524  0.4129 -0.5602
 2024TIP3    H127563   3.886   6.156  15.593  0.8778  0.8886 -0.1983
 2024TIP3    H227564   3.758   6.199  15.524  0.8648  0.0331 -0.7230
 2025TIP3   OH227565   2.633   2.665   1.434 -0.6090 -0.1976  0.4866
 2025TIP3    H127566   2.552   2.614   1.424  0.0269 -1.2682  0.6501
 2025TIP3    H227567   2.636   2.720   1.355  0.4988 -3.0517 -1.6195
 2026TIP3   OH227568   3.756   3.096  16.899 -0.3314  0.1310 -0.5079
 2026TIP3    H127569   3.762   3.055  16.813 -1.8855  2.4097 -1.8184
 2026TIP3    H227570   3.693   3.043  16.947  0.1106 -0.8202 -0.9570
 2027TIP3   OH227571   5.575   2.810  16.962  0.2540  0.6254 -0.1888
 2027TIP3    H127572   5.662   2.770  16.962 -0.5045 -1.2524  1.6539
 2027TIP3    H227573   5.546   2.806  16.871  0.9663 -1.4832 -0.3901
 2028TIP3   OH227574   2.190   4.461  12.049  0.1130  0.0309  0.8970
 2028TIP3    H127575   2.207   4.531  12.112  0.3023 -0.7792  1.7869
 2028TIP3    H227576   2.126   4.405  12.093 -0.8519  0.2083 -0.2374
 2029TIP3   OH227577   5.434   2.720  10.233  0.6588 -0.0165  0.3200
 2029TIP3    H127578   5.428   2.672  10.316  1.8658 -0.6183  0.0972
 2029TIP3    H227579   5.521   2.696  10.199  0.5797  0.9979 -0.6366
 2030TIP3   OH227580   6.013   2.893   4.821 -0.0672 -0.1466 -0.7330
 2030TIP3    H127581   6.053   2.965   4.772  0.7403 -1.5531 -2.2438
 2030TIP3    H227582   6.081   2.862   4.879  0.0309 -0.5431 -1.0558
 2031TIP3   OH227583   2.555   6.485   4.123 -0.2844  1.3553 -1.0484
 2031TIP3    H127584   2.539   6.541   4.047  0.7943  1.0248 -1.5410
 2031TIP3    H227585   2.535   6.541   4.199 -0.2830  2.0523 -1.5553
 2032TIP3   OH227586   2.837   5.220   4.403  0.1300  0.4594  0.6310
 2032TIP3    H127587   2.804   5.142   4.448 -2.0811  1.3168  0.6338
 2032TIP3    H227588   2.911   5.249   4.456  0.8852 -1.4932  0.7308
 2033TIP3   OH227589   1.052   2.502   4.009 -0.1683  0.3903 -0.4624
 2033TIP3    H127590   1.021   2.477   4.096 -1.2798  2.1430 -0.2995
 2033TIP3    H227591   0.991   2.459   3.949  0.6452 -0.8831 -0.4094
 2034TIP3   OH227592   1.513   6.453   5.816 -0.0985 -0.2717  0.2599
 2034TIP3    H127593   1.436   6.481   5.866  0.8861  2.1028  0.5577
 2034TIP3    H227594   1.483   6.451   5.725 -0.6448  0.1525  0.4207
 2035TIP3   OH227595   1.644   3.029  11.332  0.6055 -0.3907 -0.0390
 2035TIP3    H127596   1.615   2.938  11.337 -0.1236 -0.1737 -0.1609
 2035TIP3    H227597   1.701   3.041  11.408  1.6468 -1.2657 -0.6510
 2036TIP3   OH227598   2.704   6.662   2.660 -0.3606 -0.1353  0.4382
 2036TIP3    H127599   2.660   6.744   2.637  0.5342  0.6287  1.3573
 2036TIP3    H227600   2.687   6.651   2.754 -0.0096 -0.7116  0.4400
 2037TIP3   OH227601   3.120   1.382   3.674 -0.0342  0.1065 -0.2072
 2037TIP3    H127602   3.202   1.335   3.657  0.9036  1.7203 -0.4037
 2037TIP3    H227603   3.089   1.407   3.587 -0.1971  0.3631 -0.0759
 2038TIP3   OH227604   3.217   6.125   1.485  0.5502 -0.3757  0.7526
 2038TIP3    H127605   3.195   6.074   1.407  0.5907 -0.7623  0.9911
 2038TIP3    H227606   3.150   6.194   1.488 -0.2349 -1.1323  1.0992
 2039TIP3   OH227607   5.529   0.178   5.227 -0.0366 -0.3524 -0.6451
 2039TIP3    H127608   5.453   0.226   5.194 -1.5780 -0.1000  2.8410
 2039TIP3    H227609   5.580   0.244   5.273  0.6424 -1.0893 -0.3256
 2040TIP3   OH227610   4.695   0.676  15.196  0.3688  0.6343  0.2602
 2040TIP3    H127611   4.674   0.743  15.131 -0.8057  0.9798  0.9789
 2040TIP3    H227612   4.758   0.619  15.151 -0.0024  1.1747 -0.9917
 2041TIP3   OH227613   4.587   0.304   2.433 -0.0445  0.1420 -0.4393
 2041TIP3    H127614   4.634   0.279   2.353 -0.9372 -1.2043 -0.5888
 2041TIP3    H227615   4.511   0.245   2.435 -0.6906  0.9756  0.7734
 2042TIP3   OH227616   4.984   0.107   5.108  0.2288  0.1530  0.1533
 2042TIP3    H127617   4.971   0.114   5.203  0.0379  1.2906  0.0604
 2042TIP3    H227618   5.011   0.017   5.094  0.2237 -0.0401  1.2905
 2043TIP3   OH227619   6.244   1.029  15.879  0.3503  0.2059 -0.5444
 2043TIP3    H127620   6.174   1.007  15.817  0.7380 -2.0730 -0.2689
 2043TIP3    H227621   6.200   1.083  15.946 -1.1367 -1.0172 -0.4743
 2044TIP3   OH227622   2.820   0.199   1.525 -0.0179 -0.2246  0.1418
 2044TIP3    H127623   2.772   0.265   1.475  0.8494 -0.1480 -0.6402
 2044TIP3    H227624   2.844   0.243   1.606 -0.7947 -0.0975  0.3102
 2045TIP3   OH227625   5.235   6.560   3.658  0.3828 -0.7308  0.3660
 2045TIP3    H127626   5.318   6.514   3.673  0.3553 -1.1701 -0.7850
 2045TIP3    H227627   5.256   6.652   3.675  1.0349 -0.8704  0.3584
 2046TIP3   OH227628   3.608   5.585   6.349 -0.0072 -0.0093 -0.0200
 2046TIP3    H127629   3.543   5.610   6.414  0.3904  2.9122 -0.6364
 2046TIP3    H227630   3.563   5.523   6.292 -2.0975  1.4912 -0.1079
 2047TIP3   OH227631   6.134   6.733   5.438 -0.6409  0.5355  0.4488
 2047TIP3    H127632   6.179   6.677   5.501  0.7566 -1.5610 -2.2506
 2047TIP3    H227633   6.116   6.677   5.363 -1.4295  3.1144 -1.4415
 2048TIP3   OH227634   0.642   6.182   4.175  0.6074 -0.4933  0.4487
 2048TIP3    H127635   0.731   6.202   4.206  0.7958 -0.2044 -0.2467
 2048TIP3    H227636   0.654   6.157   4.083  0.1171 -1.8022  0.7293
 2049TIP3   OH227637   4.862   1.223  12.248  0.8698  0.1646  0.5019
 2049TIP3    H127638   4.887   1.304  12.292 -1.0609  0.1784  1.6782
 2049TIP3    H227639   4.931   1.161  12.271  1.8911  1.2048  0.3279
 2050TIP3   OH227640   6.267   4.095   4.468  0.3787  0.2929 -0.0397
 2050TIP3    H127641   6.240   4.046   4.390 -0.7883  0.4698  0.2428
 2050TIP3    H227642   6.283   4.183   4.436 -2.5340  1.0381  0.2702
 2051TIP3   OH227643   1.501   1.241   0.104  0.4886  0.2544 -0.8426
 2051TIP3    H127644   1.432   1.187   0.065  0.9178 -1.8883  1.1648
 2051TIP3    H227645   1.570   1.243   0.038  1.0153 -2.8857 -0.5498
 2052TIP3   OH227646   4.461   2.372   4.764  0.4630  0.9141 -0.6561
 2052TIP3    H127647   4.470   2.296   4.706  0.3320  0.6865 -0.3824
 2052TIP3    H227648   4.446   2.446   4.706 -0.1647  0.6059 -0.8828
 2053TIP3   OH227649   4.014   1.706   0.188 -0.2437  0.3875  0.9014
 2053TIP3    H127650   4.100   1.700   0.229  0.3000  0.2677 -0.2013
 2053TIP3    H227651   3.956   1.656   0.245  0.7375 -0.8225  0.8837
 2054TIP3   OH227652   0.406   5.868  16.213  0.0307  0.0798  0.4944
 2054TIP3    H127653   0.364   5.854  16.297  0.8921 -2.3687  0.6232
 2054TIP3    H227654   0.390   5.786  16.165 -1.1293  1.6930 -2.0628
 2055TIP3   OH227655   3.312   2.728  15.942  0.3218  0.1271  0.6203
 2055TIP3    H127656   3.318   2.823  15.934  0.1660  0.1388  0.6596
 2055TIP3    H227657   3.291   2.712  16.034 -0.5477  0.0909  0.4181
 2056TIP3   OH227658   5.201   2.657  12.963  0.5199 -0.1844  0.1865
 2056TIP3    H127659   5.216   2.616  12.878  1.2678  0.0947  0.1757
 2056TIP3    H227660   5.123   2.614  12.997 -0.3609  0.3792 -1.0601
 2057TIP3   OH227661   3.350   6.381  15.134 -0.3960 -0.1619 -0.0384
 2057TIP3    H127662   3.312   6.317  15.073 -1.8533 -0.2422  0.8899
 2057TIP3    H227663   3.405   6.328  15.192  0.2672 -0.2169 -0.7038
 2058TIP3   OH227664   5.541   1.028   3.018  0.0513  0.2016 -0.1563
 2058TIP3    H127665   5.447   1.042   3.006 -0.4946  0.0159  3.0395
 2058TIP3    H227666   5.579   1.115   3.019  0.0256  0.2579 -1.9287
 2059TIP3   OH227667   0.497   2.862  13.607 -0.0902 -0.4266  0.4497
 2059TIP3    H127668   0.415   2.827  13.572 -1.8418  2.1469  1.6507
 2059TIP3    H227669   0.529   2.921  13.538 -1.5841  1.7922  1.5284
 2060TIP3   OH227670   0.125   6.009   3.661  0.1276  0.2197  0.6117
 2060TIP3    H127671   0.192   5.941   3.654  0.0014  0.2332 -0.9201
 2060TIP3    H227672   0.077   5.987   3.741  1.9599  0.2337  1.8015
 2061TIP3   OH227673   5.929   4.138   6.183 -0.5511  0.4184 -0.2942
 2061TIP3    H127674   5.980   4.191   6.244 -4.8319  1.9689  2.3507
 2061TIP3    H227675   5.930   4.050   6.220 -2.2358  1.1288  1.6250
 2062TIP3   OH227676   1.791   6.450   2.774  0.5686  0.7397  0.1879
 2062TIP3    H127677   1.799   6.385   2.843 -0.9292  2.5427  2.2276
 2062TIP3    H227678   1.881   6.474   2.753  1.0729  0.3065  1.7155
 2063TIP3   OH227679   4.915   1.028  11.125 -0.0012  0.1045  0.0698
 2063TIP3    H127680   4.988   1.090  11.128 -1.5750  2.1829 -1.4717
 2063TIP3    H227681   4.866   1.044  11.206  0.7526 -0.6835  0.6946
 2064TIP3   OH227682   2.843   5.255   1.938 -0.8026  0.3732  0.1466
 2064TIP3    H127683   2.815   5.303   2.016 -1.4375 -1.5371  1.1492
 2064TIP3    H227684   2.763   5.243   1.887 -0.2287  2.4685 -1.3468
 2065TIP3   OH227685   3.445   0.407   2.868 -0.2298  0.5587  0.5682
 2065TIP3    H127686   3.438   0.338   2.802  0.3927  1.7036 -0.7403
 2065TIP3    H227687   3.358   0.447   2.870 -1.4526 -1.8622  3.2660
 2066TIP3   OH227688   1.729   1.910  16.844 -0.0895 -0.0149  0.0038
 2066TIP3    H127689   1.700   1.954  16.924  0.7314 -0.2739  0.4438
 2066TIP3    H227690   1.804   1.962  16.814  0.5758 -0.8248  0.2527
 2067TIP3   OH227691   1.160   0.496  12.631 -0.1692 -0.9920 -0.4454
 2067TIP3    H127692   1.245   0.494  12.588  0.5178 -1.2141  0.8966
 2067TIP3    H227693   1.122   0.580  12.603  1.2721 -0.0132  0.4082
 2068TIP3   OH227694   0.722   4.250  17.114 -0.0109 -0.3308  0.1991
 2068TIP3    H127695   0.763   4.218  17.034 -0.5085 -0.5548  0.0334
 2068TIP3    H227696   0.735   4.345  17.111  0.6808 -0.4134  0.2550
 2069TIP3   OH227697   4.636   5.385  11.783 -0.2301 -0.3976  0.4573
 2069TIP3    H127698   4.674   5.302  11.810 -1.0900 -0.3980  1.7275
 2069TIP3    H227699   4.621   5.433  11.865  0.8253  1.2809 -0.2595
 2070TIP3   OH227700   3.772   6.086   0.902  0.0960 -0.0685  0.5880
 2070TIP3    H127701   3.701   6.106   0.841  1.0349  2.2174  0.1477
 2070TIP3    H227702   3.836   6.037   0.849  0.2103  0.5455  0.1510
 2071TIP3   OH227703   0.550   2.907   2.136 -0.2585  0.0142  0.1140
 2071TIP3    H127704   0.560   2.836   2.074 -0.6488 -0.6239  0.7605
 2071TIP3    H227705   0.635   2.914   2.179  0.4378  1.3400 -1.3684
 2072TIP3   OH227706   0.703   5.926  12.498 -0.1459 -0.1436 -0.4391
 2072TIP3    H127707   0.663   5.945  12.583  0.3820  1.8703 -0.5727
 2072TIP3    H227708   0.628   5.909  12.440 -0.5119 -1.4334  0.3793
 2073TIP3   OH227709   3.091   1.871  12.033  0.1664 -0.3281  0.1228
 2073TIP3    H127710   3.044   1.859  11.950 -0.9270  0.5105  0.5982
 2073TIP3    H227711   3.169   1.923  12.009 -0.8082  1.0305 -0.2109
 2074TIP3   OH227712   1.143   0.744  12.500  0.7024  0.4927 -0.0903
 2074TIP3    H127713   1.123   0.831  12.536 -2.3987 -0.6812  1.4104
 2074TIP3    H227714   1.074   0.729  12.435  0.6082 -1.1815  0.3432
 2075TIP3   OH227715   2.168   2.165   1.352 -0.4919  0.3823 -0.4022
 2075TIP3    H127716   2.166   2.074   1.382 -0.6917  0.1927 -0.9889
 2075TIP3    H227717   2.232   2.165   1.281 -2.0302  0.2512 -1.8281
 2076TIP3   OH227718   3.469   2.950   0.630  0.2287  0.2668  0.5632
 2076TIP3    H127719   3.517   2.888   0.685 -0.3292  0.3207  1.1166
 2076TIP3    H227720   3.537   3.009   0.596  0.8789 -1.1241 -0.6300
 2077TIP3   OH227721   5.328   4.817   5.476 -0.4043 -0.4091 -0.2251
 2077TIP3    H127722   5.268   4.891   5.469  0.1840 -0.0440 -1.8308
 2077TIP3    H227723   5.375   4.816   5.392 -0.0490 -2.3024 -0.0468
 2078TIP3   OH227724   2.792   6.328  13.437 -0.2910  0.6507  0.2859
 2078TIP3    H127725   2.762   6.285  13.517  1.6602  3.5235  2.7998
 2078TIP3    H227726   2.718   6.320  13.377 -1.7021 -2.0345  2.1546
 2079TIP3   OH227727   1.599   6.641  13.983  0.0424 -0.0989 -0.3838
 2079TIP3    H127728   1.550   6.583  14.042  0.0300 -1.1055 -1.3440
 2079TIP3    H227729   1.645   6.701  14.042  0.4372 -1.3855  0.6872
 2080TIP3   OH227730   1.665   1.767   2.849 -0.0869 -0.0589  0.7044
 2080TIP3    H127731   1.610   1.698   2.888 -2.5415  1.9645  1.0319
 2080TIP3    H227732   1.724   1.719   2.790 -2.1909 -2.3865  0.3031
 2081TIP3   OH227733   3.632   2.355  15.465  0.1847 -0.4044 -0.2845
 2081TIP3    H127734   3.680   2.422  15.417 -0.5947  0.4612  0.1156
 2081TIP3    H227735   3.666   2.361  15.554 -0.1746 -0.2592 -0.1567
 2082TIP3   OH227736   5.637   1.639  11.881 -0.2276  1.0865  0.5369
 2082TIP3    H127737   5.560   1.695  11.868 -0.9678 -0.2178 -1.2323
 2082TIP3    H227738   5.602   1.550  11.878  1.2976  0.4659  0.1361
 2083TIP3   OH227739   5.814   2.011  16.934  0.3541 -0.0101 -0.2128
 2083TIP3    H127740   5.820   2.097  16.977  1.3552  1.7127 -3.4339
 2083TIP3    H227741   5.843   2.028  16.845 -0.6281 -3.5215 -1.3323
 2084TIP3   OH227742   0.583   6.687  13.325 -0.0074  0.5568  0.5030
 2084TIP3    H127743   0.557   6.780  13.323 -3.0406 -0.1819  0.4450
 2084TIP3    H227744   0.515   6.645  13.378  0.4376 -1.8647 -0.7294
 2085TIP3   OH227745   0.598   1.177  13.590 -0.4011 -0.2099  0.7274
 2085TIP3    H127746   0.623   1.090  13.620  0.9371 -0.1386 -0.1350
 2085TIP3    H227747   0.679   1.228  13.591 -1.1638  1.0772  1.3045
 2086TIP3   OH227748   3.072   5.941   4.877 -0.1358 -0.5855  0.2839
 2086TIP3    H127749   3.116   6.006   4.822  3.1866 -1.1949  1.9778
 2086TIP3    H227750   3.060   5.865   4.821  0.1749 -0.1032 -0.4525
 2087TIP3   OH227751   1.385   0.813  14.671 -0.2834  0.2647  0.5533
 2087TIP3    H127752   1.353   0.881  14.729  1.3969  1.8710 -0.3036
 2087TIP3    H227753   1.352   0.731  14.709 -1.8090  1.4777  1.9677
 2088TIP3   OH227754   2.779   6.785   5.356  0.3295  0.4099  0.2331
 2088TIP3    H127755   2.841   6.792   5.284 -0.6186  1.9657 -0.4942
 2088TIP3    H227756   2.830   6.809   5.434  1.0594 -0.0763 -0.0899
 2089TIP3   OH227757   5.217   6.625  13.076 -0.0124 -0.5986 -0.3578
 2089TIP3    H127758   5.236   6.718  13.060  0.8997 -0.7554 -0.2658
 2089TIP3    H227759   5.175   6.624  13.163  1.1154 -0.3752  0.2102
 2090TIP3   OH227760   4.219   6.551  14.089 -0.1891  0.0135  0.2610
 2090TIP3    H127761   4.148   6.596  14.042 -1.5020 -0.5851  1.5894
 2090TIP3    H227762   4.283   6.620  14.106 -1.2158  0.9406  0.4691
 2091TIP3   OH227763   2.546   5.877   0.683 -0.4085  0.1727 -0.0450
 2091TIP3    H127764   2.514   5.851   0.770 -0.4006 -0.6715 -0.2786
 2091TIP3    H227765   2.466   5.889   0.631 -0.4361 -2.4753 -0.7810
 2092TIP3   OH227766   6.266   2.690  14.155  0.0484  0.0831 -0.3127
 2092TIP3    H127767   6.171   2.683  14.149 -0.1353  2.0053 -0.0911
 2092TIP3    H227768   6.297   2.600  14.143 -1.8035 -0.6509  0.0890
 2093TIP3   OH227769   5.240   2.505  11.464  0.1680  0.1791 -0.1011
 2093TIP3    H127770   5.334   2.493  11.475  0.4012  1.6525 -0.2267
 2093TIP3    H227771   5.231   2.550  11.380 -0.7022 -0.4824 -0.3795
 2094TIP3   OH227772   0.360   2.892  16.768  0.0031 -0.2581  0.1587
 2094TIP3    H127773   0.282   2.919  16.816  0.3978  1.5565 -0.1547
 2094TIP3    H227774   0.329   2.874  16.679 -0.2713 -0.9171  0.3825
 2095TIP3   OH227775   2.088   0.366   0.737  0.0329 -0.7525 -0.4334
 2095TIP3    H127776   2.151   0.303   0.773  0.9299 -0.3529 -1.2615
 2095TIP3    H227777   2.070   0.426   0.809  2.5112  0.5887 -0.7819
 2096TIP3   OH227778   2.603   2.010   2.013  0.0600 -0.4212  0.3536
 2096TIP3    H127779   2.671   2.070   2.043  0.0341 -0.2806  0.1295
 2096TIP3    H227780   2.546   2.063   1.957 -2.0210  0.2743  2.9271
 2097TIP3   OH227781   4.839   0.558  12.475  0.2454 -0.2074  0.1074
 2097TIP3    H127782   4.889   0.494  12.525 -0.0405 -1.4227 -1.1085
 2097TIP3    H227783   4.845   0.528  12.385 -1.2241  0.5919 -0.2876
 2098TIP3   OH227784   1.903   4.376   3.416 -0.3380  0.7571  0.1761
 2098TIP3    H127785   1.902   4.463   3.456  0.9070  0.8990 -0.0871
 2098TIP3    H227786   1.968   4.327   3.466  1.3110  0.9551 -1.6376
 2099TIP3   OH227787   3.571   0.987   0.816  0.0057 -0.0918 -0.3955
 2099TIP3    H127788   3.646   1.038   0.847  1.2981 -1.5181 -1.0447
 2099TIP3    H227789   3.526   0.961   0.896  0.3034  0.6297  0.0204
 2100TIP3   OH227790   3.007   6.556  13.677  0.1559  0.3706  0.0231
 2100TIP3    H127791   2.985   6.559  13.584  0.5211 -0.3828 -0.0909
 2100TIP3    H227792   2.931   6.516  13.719  0.1995  0.2389 -0.0222
 2101TIP3   OH227793   1.284   1.882  14.832  0.1758  0.0169  0.2172
 2101TIP3    H127794   1.303   1.952  14.895 -1.2859 -0.3379  1.1127
 2101TIP3    H227795   1.358   1.822  14.838 -0.2926 -0.4255  2.2483
 2102TIP3   OH227796   0.860   4.790  13.230 -0.1392 -0.5242  0.0995
 2102TIP3    H127797   0.950   4.820  13.220 -0.2676 -0.6687 -1.9875
 2102TIP3    H227798   0.866   4.694  13.228 -0.4411 -0.5433 -1.8173
 2103TIP3   OH227799   2.770   5.605  16.474  0.0200 -0.7362  0.1284
 2103TIP3    H127800   2.833   5.538  16.449 -0.0706  0.2760 -3.1857
 2103TIP3    H227801   2.781   5.614  16.569  4.2777 -1.1514 -0.1676
 2104TIP3   OH227802   4.158   6.745   2.619  0.7134 -0.8391 -0.2486
 2104TIP3    H127803   4.209   6.697   2.553  0.6520  0.5840 -1.3757
 2104TIP3    H227804   4.119   6.676   2.673  2.3723 -2.0030 -0.4629
 2105TIP3   OH227805   1.309   1.444   3.966 -0.6490  0.0699  0.0043
 2105TIP3    H127806   1.360   1.472   4.042  0.3939  0.0431 -0.6596
 2105TIP3    H227807   1.231   1.499   3.968 -0.9785 -0.4147  1.4802
 2106TIP3   OH227808   3.046   6.151  14.776  0.5750  0.3122  0.1110
 2106TIP3    H127809   3.136   6.177  14.756  1.3034 -0.8322  1.6837
 2106TIP3    H227810   3.026   6.197  14.858  0.9743 -1.9225  1.5614
 2107TIP3   OH227811   3.800   2.022  13.644 -0.0634  0.3376 -0.6540
 2107TIP3    H127812   3.772   1.942  13.600 -0.5824  0.3661 -0.3762
 2107TIP3    H227813   3.720   2.058  13.683 -0.3848  2.3123 -2.8651
 2108TIP3   OH227814   3.743   2.389  13.116  0.0913  0.7867 -0.1557
 2108TIP3    H127815   3.763   2.480  13.094  0.9648  0.3557 -1.2430
 2108TIP3    H227816   3.740   2.344  13.032 -0.9773 -0.0796  0.3169
 2109TIP3   OH227817   5.765   5.471   0.005  0.2974  0.0999 -0.4369
 2109TIP3    H127818   5.715   5.546  -0.029 -0.0212 -0.5411 -1.4470
 2109TIP3    H227819   5.808   5.504   0.084 -2.2152  0.5297  0.8573
 2110TIP3   OH227820   3.302   6.221  11.377  0.5436  0.2714  0.4550
 2110TIP3    H127821   3.329   6.142  11.329  1.3521  0.4348  0.6283
 2110TIP3    H227822   3.320   6.200  11.468  1.7023  1.0083  0.4178
 2111TIP3   OH227823   6.667   2.831   5.299  0.0096  0.2218 -0.3980
 2111TIP3    H127824   6.632   2.821   5.388  0.3056  0.7554 -0.2166
 2111TIP3    H227825   6.608   2.779   5.244 -0.4680  0.2920  0.0390
 2112TIP3   OH227826   1.507   6.298  14.698  0.5030 -0.7520  0.4192
 2112TIP3    H127827   1.532   6.320  14.788  0.8952 -0.1698  0.1731
 2112TIP3    H227828   1.496   6.203  14.699  1.9802 -0.9466  0.7316
 2113TIP3   OH227829   4.395   0.978  13.072 -0.1345  0.0596  0.0644
 2113TIP3    H127830   4.360   1.000  12.985  1.7356  1.1309 -0.4689
 2113TIP3    H227831   4.484   0.949  13.055  0.1996  0.1276  1.6214
 2114TIP3   OH227832   5.386   0.639  13.336 -0.1407 -0.3847  0.2867
 2114TIP3    H127833   5.368   0.568  13.275  1.1899 -1.0599  0.6458
 2114TIP3    H227834   5.435   0.598  13.408 -0.7292  0.5961  1.2805
 2115TIP3   OH227835   1.755   6.149   5.098  0.1873 -0.4623 -0.5591
 2115TIP3    H127836   1.691   6.093   5.054 -0.7194  1.2060 -1.4750
 2115TIP3    H227837   1.816   6.174   5.028  0.6614 -0.4260 -0.1311
 2116TIP3   OH227838   4.403   5.526  14.797 -0.4980 -0.2576 -0.1597
 2116TIP3    H127839   4.313   5.500  14.816 -0.4918  0.2141  0.5547
 2116TIP3    H227840   4.457   5.456  14.835 -0.5819 -1.7034 -2.4963
 2117TIP3   OH227841   6.772   1.622   2.803 -0.4642 -0.3363 -0.4314
 2117TIP3    H127842   6.781   1.707   2.760  1.1043 -0.4357 -0.3875
 2117TIP3    H227843   6.711   1.573   2.749 -0.7917  0.5529 -0.8826
 2118TIP3   OH227844   6.071   0.884   1.055  0.0890 -0.3846 -0.3859
 2118TIP3    H127845   5.995   0.887   0.997 -1.4355  0.4520  1.5505
 2118TIP3    H227846   6.098   0.975   1.064  0.7326 -0.5807 -0.3066
 2119TIP3   OH227847   3.193   3.808  17.137 -0.7869  0.0909 -0.6422
 2119TIP3    H127848   3.288   3.809  17.124 -0.8746  0.4540 -1.2975
 2119TIP3    H227849   3.178   3.863  17.214 -0.4338 -0.3721 -0.2317
 2120TIP3   OH227850   4.344   5.941   3.093 -0.2257  0.7376 -0.2171
 2120TIP3    H127851   4.395   5.868   3.058 -1.2416  0.6802 -1.6391
 2120TIP3    H227852   4.264   5.900   3.126  0.1075  0.9701  0.9271
 2121TIP3   OH227853   4.550   1.485   5.281 -0.0633  0.0849 -0.4771
 2121TIP3    H127854   4.608   1.444   5.217  1.9412  0.3118  1.0879
 2121TIP3    H227855   4.591   1.570   5.299 -1.0188  0.3546  0.5219
 2122TIP3   OH227856   0.370   2.210  11.640  0.1760 -0.5010  0.5498
 2122TIP3    H127857   0.321   2.241  11.564 -1.1157 -0.7100  1.2676
 2122TIP3    H227858   0.324   2.131  11.668  0.2977 -0.1355  1.8614
 2123TIP3   OH227859   2.683   3.458   0.862  0.2846 -0.2374  0.4559
 2123TIP3    H127860   2.710   3.437   0.773  0.2843  1.2038  0.0894
 2123TIP3    H227861   2.753   3.514   0.896 -0.5874  0.7543  0.6823
 2124TIP3   OH227862   5.605   2.110   5.272 -0.1730  0.7226  0.4581
 2124TIP3    H127863   5.589   2.017   5.288 -0.2404  0.0366 -2.8841
 2124TIP3    H227864   5.698   2.122   5.294 -0.1019 -0.1921  0.7034
 2125TIP3   OH227865   5.617   0.489  15.778  0.4046 -0.4547  0.7703
 2125TIP3    H127866   5.587   0.403  15.807 -2.5734  0.5474  1.0145
 2125TIP3    H227867   5.651   0.531  15.857  1.7137 -1.2947  0.6800
 2126TIP3   OH227868   6.741   6.645  13.279  0.3438 -0.2403 -0.1196
 2126TIP3    H127869   6.677   6.716  13.295  0.3418  0.1540 -1.7375
 2126TIP3    H227870   6.708   6.601  13.201  2.4582  0.4881 -1.5013
 2127TIP3   OH227871   0.524   2.802  15.484 -0.1904  0.0967  0.2697
 2127TIP3    H127872   0.552   2.865  15.417  0.0223 -0.6996 -0.4038
 2127TIP3    H227873   0.486   2.730  15.434 -1.8664  0.3668  1.0789
 2128TIP3   OH227874   5.203   6.505  12.350 -0.5422 -0.5346  0.1080
 2128TIP3    H127875   5.235   6.595  12.342 -2.2450  0.0738 -0.2431
 2128TIP3    H227876   5.274   6.451  12.316  1.4748  0.4563  2.4310
 2129TIP3   OH227877   3.655   6.265   5.626  0.0017 -0.0436  0.2783
 2129TIP3    H127878   3.717   6.246   5.555 -0.2794 -2.3472  0.5778
 2129TIP3    H227879   3.569   6.252   5.588 -0.5437  4.0221 -0.3946
 2130TIP3   OH227880   1.717   2.963  13.935 -0.0510  0.0997 -0.1339
 2130TIP3    H127881   1.693   3.049  13.971  2.3571  1.0123 -0.5640
 2130TIP3    H227882   1.643   2.940  13.879  0.0978  2.9004 -1.6635
 2131TIP3   OH227883   1.695   5.391   6.138  0.0811 -0.1434 -0.0046
 2131TIP3    H127884   1.645   5.322   6.181 -1.9823  1.0871 -0.3171
 2131TIP3    H227885   1.747   5.430   6.209 -0.2556 -0.7015  0.5601
 2132TIP3   OH227886   6.369   3.772   5.366  0.0506 -0.0977 -0.5010
 2132TIP3    H127887   6.448   3.769   5.313  0.2041  0.2277 -0.2940
 2132TIP3    H227888   6.358   3.864   5.387 -0.2696 -0.1693 -0.3585
 2133TIP3   OH227889   3.216   0.789  15.347 -0.2064 -0.1534 -0.1360
 2133TIP3    H127890   3.247   0.875  15.317  0.7104 -0.5226 -0.2807
 2133TIP3    H227891   3.143   0.809  15.406 -1.2399  0.6521 -1.6154
 2134TIP3   OH227892   4.073   5.558  16.620  0.2899 -0.3419 -0.3238
 2134TIP3    H127893   4.033   5.645  16.624  1.3469  0.1456 -0.2276
 2134TIP3    H227894   4.065   5.524  16.710 -0.2312 -0.4124 -0.3892
 2135TIP3   OH227895   0.919   3.909   3.259 -0.0193  0.2107  0.2484
 2135TIP3    H127896   0.934   3.832   3.204 -1.9818 -0.2533  0.2925
 2135TIP3    H227897   0.909   3.981   3.197  2.3029  0.5656  0.2244
 2136TIP3   OH227898   6.187   0.487  15.855  0.0592  0.0855 -0.0070
 2136TIP3    H127899   6.134   0.412  15.830  0.1820  0.0633 -0.1996
 2136TIP3    H227900   6.194   0.481  15.950  1.6704 -1.2370 -0.1659
 2137TIP3   OH227901   1.911   4.894  14.712 -0.3267  0.5857  0.1326
 2137TIP3    H127902   1.960   4.843  14.647  0.3565 -0.8842  1.7496
 2137TIP3    H227903   1.851   4.831  14.752 -0.0681  1.2379  1.5881
 2138TIP3   OH227904   1.166   3.595  12.853  0.5608  0.6967  0.6565
 2138TIP3    H127905   1.147   3.659  12.784  0.8625 -0.7830 -0.8592
 2138TIP3    H227906   1.255   3.616  12.881  1.1290  0.2037 -0.7077
 2139TIP3   OH227907   2.971   2.816  15.508  0.2398  0.6649  0.5201
 2139TIP3    H127908   3.015   2.895  15.476 -0.7970  0.6244 -1.1612
 2139TIP3    H227909   2.878   2.841  15.512  0.2244  0.4626  3.0411
 2140TIP3   OH227910   6.340   2.976  11.158  0.0878  0.3431 -0.3200
 2140TIP3    H127911   6.410   2.912  11.152  0.9859  1.3054 -0.3266
 2140TIP3    H227912   6.327   2.989  11.252 -0.5897 -0.3494 -0.3017
 2141TIP3   OH227913   2.308   5.399   2.538  0.7437 -0.2882  0.1052
 2141TIP3    H127914   2.397   5.408   2.504  1.0753 -1.4137  0.6520
 2141TIP3    H227915   2.319   5.363   2.626 -0.2129  0.5502  0.5945
 2142TIP3   OH227916   1.089   1.346   0.783  0.1363  0.0475  0.6308
 2142TIP3    H127917   1.089   1.420   0.722 -0.2355 -0.6750 -0.2671
 2142TIP3    H227918   1.178   1.310   0.776  0.9652  1.5712  2.5536
 2143TIP3   OH227919   1.113   6.452  12.854 -0.4948  0.4236 -0.4115
 2143TIP3    H127920   1.039   6.491  12.809  0.6361  1.3864 -1.5077
 2143TIP3    H227921   1.093   6.462  12.947 -2.9318 -1.6970 -0.5916
 2144TIP3   OH227922   4.556   0.078  14.318  0.3063  0.0924 -0.0108
 2144TIP3    H127923   4.581   0.127  14.239  0.2556 -1.7247 -1.2055
 2144TIP3    H227924   4.512  -0.000  14.285  1.8556 -1.6178  1.7512
 2145TIP3   OH227925   6.220   1.832   2.142  0.0367  0.5959  0.4188
 2145TIP3    H127926   6.273   1.849   2.064 -0.5959 -0.1027 -0.1749
 2145TIP3    H227927   6.145   1.783   2.110  0.4605 -0.9528  1.6532
 2146TIP3   OH227928   6.739   5.654  12.656  0.1564  0.2712 -0.6018
 2146TIP3    H127929   6.801   5.628  12.725  2.1280 -0.9958 -2.7101
 2146TIP3    H227930   6.675   5.709  12.701  0.6847 -1.3870  2.4547
 2147TIP3   OH227931   1.647   2.043   3.473 -0.2732 -0.4678 -0.0553
 2147TIP3    H127932   1.618   2.056   3.383  0.4995  1.6481 -0.0443
 2147TIP3    H227933   1.742   2.031   3.466 -0.0697  0.6866  0.5347
 2148TIP3   OH227934   0.491   6.275   5.684 -0.5629  0.0534  0.3782
 2148TIP3    H127935   0.471   6.327   5.762 -0.8335 -0.2294  0.4994
 2148TIP3    H227936   0.576   6.236   5.704  0.1655  1.2942 -0.1588
 2149TIP3   OH227937   6.597   3.091  13.948 -0.1944 -0.0924  0.5582
 2149TIP3    H127938   6.640   3.031  13.887  0.5873  0.7894  0.2257
 2149TIP3    H227939   6.617   3.054  14.035  0.9198  0.0835  0.3931
 2150TIP3   OH227940   3.532   3.632  11.996  0.3250  0.1032 -0.6139
 2150TIP3    H127941   3.626   3.636  11.979  0.2804  0.5882 -0.7532
 2150TIP3    H227942   3.505   3.724  12.005 -0.0689 -0.0460 -0.2145
 2151TIP3   OH227943   1.585   3.057  14.572 -0.2141 -0.2436  0.0627
 2151TIP3    H127944   1.678   3.066  14.552 -0.4958 -1.3537 -2.0249
 2151TIP3    H227945   1.572   2.963  14.589 -1.1189 -0.2960 -0.7969
 2152TIP3   OH227946   3.875   5.486  14.506  0.3980  0.0035  0.6267
 2152TIP3    H127947   3.920   5.522  14.430  1.7376 -1.1409  0.8202
 2152TIP3    H227948   3.787   5.524  14.503  0.6276  0.4858 -1.1183
 2153TIP3   OH227949   1.805   4.885   0.100 -0.2164 -0.0704  0.0621
 2153TIP3    H127950   1.731   4.932   0.138 -0.9842 -0.6719 -0.6422
 2153TIP3    H227951   1.879   4.906   0.157 -0.6452  1.5530  0.0619
 2154TIP3   OH227952   1.097   4.711   1.745  0.3356 -0.4434 -0.0318
 2154TIP3    H127953   1.118   4.643   1.809 -0.2018 -1.9980 -1.4186
 2154TIP3    H227954   1.062   4.662   1.670  2.4694  1.1050 -2.1853
 2155TIP3   OH227955   1.129   2.698   2.661 -0.1229  0.0258 -0.0137
 2155TIP3    H127956   1.098   2.674   2.749  0.9442 -2.6011 -0.2562
 2155TIP3    H227957   1.224   2.694   2.667  0.0126  1.3132 -0.9490
 2156TIP3   OH227958   1.355   5.587  10.662  0.2546  0.2232 -0.1008
 2156TIP3    H127959   1.288   5.636  10.711  0.1402 -1.1669  1.1982
 2156TIP3    H227960   1.307   5.544  10.591 -0.0355  0.1617  0.1300
 2157TIP3   OH227961   3.565   5.721   0.701 -0.5047  0.1609 -0.6176
 2157TIP3    H127962   3.635   5.769   0.656  0.6630 -1.3788 -0.5425
 2157TIP3    H227963   3.527   5.785   0.761 -0.4684  1.5774 -2.0333
 2158TIP3   OH227964   5.198   0.848  17.069 -0.4573  0.7330 -0.6828
 2158TIP3    H127965   5.234   0.764  17.041  1.3611  1.5045 -0.7797
 2158TIP3    H227966   5.139   0.826  17.141 -3.1179 -1.0090 -3.1766
 2159TIP3   OH227967   5.816   6.385  11.483  0.5028 -0.3918 -0.6158
 2159TIP3    H127968   5.848   6.468  11.518  0.3031 -0.6117  0.1092
 2159TIP3    H227969   5.730   6.373  11.524  0.5627 -0.9978 -0.6556
 2160TIP3   OH227970   5.063   1.567  13.826  0.4728 -0.3413 -0.4370
 2160TIP3    H127971   4.980   1.520  13.833  1.7347 -2.5892  0.9462
 2160TIP3    H227972   5.041   1.650  13.784 -2.3111 -1.1811 -0.8379
 2161TIP3   OH227973   6.261   1.915   4.548  0.0602 -0.5974 -0.8234
 2161TIP3    H127974   6.216   1.995   4.575 -1.1758 -1.4168 -0.3769
 2161TIP3    H227975   6.260   1.918   4.452  1.6984  0.8018 -0.8461
 2162TIP3   OH227976   6.180   3.081  11.964  0.0028  0.5966  0.2403
 2162TIP3    H127977   6.105   3.137  11.985 -0.9981  0.5321 -2.6359
 2162TIP3    H227978   6.231   3.133  11.902  0.2359 -0.7860 -0.7765
 2163TIP3   OH227979   3.171   3.074   4.376  0.3233 -0.1551  0.1426
 2163TIP3    H127980   3.246   3.042   4.326 -0.9184 -0.5194 -1.5650
 2163TIP3    H227981   3.124   2.995   4.402 -0.8699  0.1065 -1.0941
 2164TIP3   OH227982   5.018   5.968   3.071 -0.4915 -0.1119  0.0335
 2164TIP3    H127983   5.103   5.977   3.029  0.7855 -0.8543  2.3034
 2164TIP3    H227984   5.033   5.908   3.144 -2.2151  2.0703  2.3713
 2165TIP3   OH227985   3.305   5.998  14.178 -0.0637  0.1405 -0.3866
 2165TIP3    H127986   3.376   6.062  14.169  1.6078 -1.5988 -0.2166
 2165TIP3    H227987   3.328   5.929  14.116 -0.9866 -1.0173  0.5256
 2166TIP3   OH227988   3.673   3.538  13.501 -0.3984  0.3161  0.1683
 2166TIP3    H127989   3.711   3.541  13.588  1.0910  0.6357 -0.4546
 2166TIP3    H227990   3.658   3.630  13.477 -1.0833  0.2191  0.1863
 2167TIP3   OH227991   5.295   1.476   2.040 -0.3383 -0.4818 -0.2169
 2167TIP3    H127992   5.218   1.523   2.006 -0.1257  1.0186  1.2526
 2167TIP3    H227993   5.273   1.383   2.029 -2.6821 -0.1206  0.7566
 2168TIP3   OH227994   5.314   5.108   0.797 -0.0859 -0.0510 -0.3802
 2168TIP3    H127995   5.358   5.151   0.871  3.1904  0.3248 -2.3695
 2168TIP3    H227996   5.224   5.143   0.800  0.5634  1.7415  2.0153
 2169TIP3   OH227997   6.075   2.711  15.620  0.4902 -0.3189 -0.2843
 2169TIP3    H127998   6.080   2.757  15.537 -1.7557 -1.8269 -1.3688
 2169TIP3    H227999   6.024   2.632  15.601  1.3176 -1.5743  2.1753
 2170TIP3   OH228000   4.456   0.777   6.266 -0.4133  0.0202 -0.2248
 2170TIP3    H128001   4.488   0.777   6.356 -1.1841  1.0254  0.0708
 2170TIP3    H228002   4.513   0.839   6.220 -1.3092  1.1013  0.0827
 2171TIP3   OH228003   1.218   2.169   0.653  0.1505 -0.3075 -0.4763
 2171TIP3    H128004   1.298   2.184   0.603  1.3817  0.7424  1.6698
 2171TIP3    H228005   1.211   2.073   0.658 -0.3818 -0.4962 -3.0519
 2172TIP3   OH228006   4.764   6.787  16.114  0.3222 -0.2170  0.6116
 2172TIP3    H128007   4.720   6.868  16.140 -0.0667 -0.0358 -0.5313
 2172TIP3    H228008   4.782   6.799  16.021  1.0002 -1.1164  0.6129
 2173TIP3   OH228009   4.416   4.958  13.091  0.5672  0.4158  0.0045
 2173TIP3    H128010   4.430   5.033  13.034  0.1695 -0.2080 -0.9490
 2173TIP3    H228011   4.490   4.900  13.074  0.7469  0.4781  0.5530
 2174TIP3   OH228012   3.233   3.768  15.320  0.2705  0.4331  0.2173
 2174TIP3    H128013   3.185   3.778  15.402 -1.2887  0.6495 -0.6727
 2174TIP3    H228014   3.300   3.702  15.338  0.4645  1.0335  1.8516
 2175TIP3   OH228015   0.083   1.180  11.098 -0.1390  0.3712 -0.5071
 2175TIP3    H128016   0.053   1.091  11.114  1.7473 -0.4725 -1.3880
 2175TIP3    H228017   0.074   1.191  11.003  0.0139  0.9745 -0.4549
 2176TIP3   OH228018   3.782   5.890  11.200  0.4812  0.2848 -0.3880
 2176TIP3    H128019   3.842   5.816  11.209 -1.8454 -1.6779 -0.0052
 2176TIP3    H228020   3.748   5.882  11.111 -1.7643 -0.8186  0.4845
 2177TIP3   OH228021   1.722   1.109  15.704 -0.1319  0.4837  0.1266
 2177TIP3    H128022   1.679   1.071  15.781 -0.9464 -1.0245 -1.0012
 2177TIP3    H228023   1.659   1.173  15.671 -0.6631 -0.2618 -0.3560
 2178TIP3   OH228024   5.200   1.197   1.951  0.1684 -0.3712 -0.0087
 2178TIP3    H128025   5.146   1.159   2.020 -0.7364  1.0247  0.1020
 2178TIP3    H228026   5.139   1.213   1.879  0.7853 -0.3303 -0.5278
 2179TIP3   OH228027   6.696   0.906  15.955  0.2797  0.7924  0.4811
 2179TIP3    H128028   6.625   0.915  15.891  1.7275  0.6879 -1.2210
 2179TIP3    H228029   6.743   0.990  15.951  1.5079  0.1103 -0.0424
 2180TIP3   OH228030   3.918   3.069  11.324  0.0290 -0.5017 -0.1718
 2180TIP3    H128031   3.979   3.142  11.311  1.0264 -1.3122 -0.1540
 2180TIP3    H228032   3.865   3.068  11.245 -0.8813  1.0287  0.3626
 2181TIP3   OH228033   4.239   5.446   0.461  0.1626 -0.1473 -0.0696
 2181TIP3    H128034   4.267   5.477   0.375 -1.1481 -0.9454 -0.8071
 2181TIP3    H228035   4.174   5.510   0.490 -0.6901 -0.8100 -0.4754
 2182TIP3   OH228036   1.224   4.707  16.404  0.5702  0.2369 -0.0542
 2182TIP3    H128037   1.320   4.698  16.407  0.4395 -1.4961 -0.0722
 2182TIP3    H228038   1.191   4.619  16.418 -0.9782  0.2585 -2.7660
 2183TIP3   OH228039   6.594   1.734   3.077  0.0660  0.1480  0.0295
 2183TIP3    H128040   6.512   1.764   3.038  0.5204 -0.1639 -1.2234
 2183TIP3    H228041   6.606   1.645   3.042  0.7244  0.0200  0.5489
 2184TIP3   OH228042   6.291   4.655   4.988  0.4291  0.2410 -0.3808
 2184TIP3    H128043   6.250   4.587   5.041 -1.9979  2.8349  1.3275
 2184TIP3    H228044   6.268   4.632   4.898  0.5024 -1.6728  0.0474
 2185TIP3   OH228045   2.444   4.473   0.930 -0.3570  0.2898 -0.3281
 2185TIP3    H128046   2.506   4.421   0.879  0.7091 -0.6573  1.8145
 2185TIP3    H228047   2.378   4.410   0.959 -0.5593  0.6702  0.0379
 2186TIP3   OH228048   3.242   1.488   4.504  0.3079  0.5016  0.4233
 2186TIP3    H128049   3.168   1.482   4.564  0.6012 -0.4397  0.7127
 2186TIP3    H228050   3.202   1.515   4.421 -0.7774 -2.2116 -0.0628
 2187TIP3   OH228051   3.947   1.631  13.425 -0.2545 -0.6793  0.1463
 2187TIP3    H128052   4.018   1.664  13.480 -0.1437 -2.1001  0.9116
 2187TIP3    H228053   3.991   1.585  13.354 -0.3336  2.6314 -2.3056
 2188TIP3   OH228054   1.065   4.716   5.157  0.0830 -0.0533 -0.1679
 2188TIP3    H128055   1.013   4.673   5.089 -1.2134  0.9978  0.1187
 2188TIP3    H228056   1.069   4.808   5.130  0.5460  0.1608  0.5815
 2189TIP3   OH228057   6.159   3.089   0.478  0.0300  0.4026  0.0324
 2189TIP3    H128058   6.081   3.108   0.529 -0.5581 -0.0658 -0.6787
 2189TIP3    H228059   6.129   3.084   0.388  1.1081  1.5259 -0.4236
 2190TIP3   OH228060   1.041   5.179  12.793 -0.0402 -0.5223  0.1708
 2190TIP3    H128061   1.023   5.133  12.710 -1.4427  0.3412 -0.0299
 2190TIP3    H228062   1.031   5.112  12.860 -0.3977 -0.8943 -0.2450
 2191TIP3   OH228063   3.220   5.658  13.540  0.3092  0.5160 -0.2403
 2191TIP3    H128064   3.276   5.678  13.465 -0.3422  0.4377 -0.7515
 2191TIP3    H228065   3.182   5.573  13.520 -0.3155  0.7561 -0.0924
 2192TIP3   OH228066   5.427   1.907   4.937  0.5023  0.1459 -0.2386
 2192TIP3    H128067   5.484   1.854   4.992 -0.9437  0.2989  1.4756
 2192TIP3    H228068   5.344   1.911   4.984 -0.2384  1.7897 -1.5668
 2193TIP3   OH228069   2.325   4.204  16.779  0.4987  0.5102 -0.7349
 2193TIP3    H128070   2.231   4.193  16.764  0.4114  0.2891 -0.0603
 2193TIP3    H228071   2.338   4.173  16.868  0.9604  1.9992 -0.2682
 2194TIP3   OH228072   5.377   1.505   3.407 -0.3504 -0.3452 -0.2036
 2194TIP3    H128073   5.368   1.529   3.315 -0.4781 -0.7900 -0.3058
 2194TIP3    H228074   5.295   1.460   3.429 -0.1086 -0.6993 -0.0122
 2195TIP3   OH228075   2.380   5.645   6.301 -0.0783  0.2613 -0.3554
 2195TIP3    H128076   2.471   5.674   6.305  0.1752 -0.5937  0.4686
 2195TIP3    H228077   2.360   5.618   6.390 -0.3525 -1.8461 -1.0064
 2196TIP3   OH228078   2.785   5.937   5.648 -0.6384 -0.1567  0.0832
 2196TIP3    H128079   2.715   5.879   5.620 -1.2077  0.1193  0.8764
 2196TIP3    H228080   2.740   6.018   5.672 -0.0240  0.0931  0.4112
 2197TIP3   OH228081   5.969   3.697   3.253 -0.2709  0.5567 -0.0912
 2197TIP3    H128082   5.896   3.637   3.268 -0.3016  0.4711 -0.5903
 2197TIP3    H228083   6.028   3.650   3.195 -0.0618  0.8254 -0.0971
 2198TIP3   OH228084   3.188   6.735  13.790  0.1065 -0.1100  0.0530
 2198TIP3    H128085   3.159   6.761  13.877 -0.1626  2.6877 -0.7638
 2198TIP3    H228086   3.119   6.676  13.758 -0.8505  0.4747  0.9684
 2199TIP3   OH228087   4.292   5.038   2.422  0.1865 -0.2358  0.5740
 2199TIP3    H128088   4.251   5.056   2.338 -0.3937  1.0367  1.1023
 2199TIP3    H228089   4.386   5.050   2.407  0.1736 -0.9801 -0.1145
 2200TIP3   OH228090   6.223   2.233   2.937  0.0772 -0.3634  0.7605
 2200TIP3    H128091   6.286   2.203   3.003 -0.6503 -1.2114  1.0854
 2200TIP3    H228092   6.157   2.164   2.933 -1.5437  1.0752  1.3610
 2201TIP3   OH228093   4.135   3.251   2.231  0.7286 -0.0953 -0.2528
 2201TIP3    H128094   4.151   3.200   2.152  1.9206  0.3816 -0.3309
 2201TIP3    H228095   4.044   3.282   2.221  0.5845 -0.7447 -1.0180
 2202TIP3   OH228096   3.234   0.696   1.356 -0.4165  0.3100  0.3677
 2202TIP3    H128097   3.228   0.682   1.262 -1.5483  1.6802  0.1971
 2202TIP3    H228098   3.154   0.657   1.391 -1.4083  2.2692  0.3919
 2203TIP3   OH228099   1.596   2.742  14.586 -0.6363 -0.0038 -0.2276
 2203TIP3    H128100   1.656   2.676  14.620 -1.4150 -0.9425 -0.6507
 2203TIP3    H228101   1.585   2.720  14.494 -0.1462  1.3137 -0.6342
 2204TIP3   OH228102   4.813   4.669  11.166 -0.0928  0.2273  0.1580
 2204TIP3    H128103   4.774   4.699  11.247 -0.9398 -0.4114 -0.0002
 2204TIP3    H228104   4.768   4.718  11.097 -0.7391 -0.6061 -0.0331
 2205TIP3   OH228105   5.554   2.965  10.443 -0.3730  0.5650  0.0688
 2205TIP3    H128106   5.587   2.876  10.430 -0.8929  0.3449  0.2358
 2205TIP3    H228107   5.622   3.008  10.495  0.5767  0.7183 -1.2606
 2206TIP3   OH228108   3.312   2.595   0.408 -0.6611 -0.2943  0.5528
 2206TIP3    H128109   3.344   2.685   0.414  0.3078 -0.6562  0.8960
 2206TIP3    H228110   3.249   2.588   0.479  0.7014 -0.4609  1.7812
 2207TIP3   OH228111   1.190   2.941  13.826 -0.1813  0.3486  0.0938
 2207TIP3    H128112   1.201   2.854  13.788  0.2095  0.3263  0.2545
 2207TIP3    H228113   1.205   2.929  13.920 -1.4767  0.3439  0.3121
 2208TIP3   OH228114   6.475   5.418   2.257  0.5846  0.1174 -0.4059
 2208TIP3    H128115   6.381   5.436   2.252  0.4624  0.2069  1.6126
 2208TIP3    H228116   6.516   5.503   2.247  0.4374  0.1622 -0.6552
 2209TIP3   OH228117   4.970   0.666  15.826  0.1518  0.1703 -0.1162
 2209TIP3    H128118   4.960   0.681  15.920  0.9252 -1.1074  0.1844
 2209TIP3    H228119   5.047   0.719  15.802  0.6683 -0.4187  0.2143
 2210TIP3   OH228120   4.607   5.317   1.379 -0.2232  0.5293 -0.5227
 2210TIP3    H128121   4.566   5.366   1.308 -0.1097  1.7577  0.2330
 2210TIP3    H228122   4.594   5.371   1.457  1.6503  0.3367 -0.0146
 2211TIP3   OH228123   5.673   6.631  15.111  0.2834  0.3804 -0.6957
 2211TIP3    H128124   5.700   6.606  15.200 -0.9433  1.2193 -0.0457
 2211TIP3    H228125   5.693   6.555  15.057 -0.1174 -0.6320  0.5429
 2212TIP3   OH228126   4.699   2.818   4.436 -0.3138  0.1258 -0.6516
 2212TIP3    H128127   4.787   2.782   4.449 -0.1366  0.9113  0.4906
 2212TIP3    H228128   4.692   2.832   4.342  1.6053  1.9604 -0.6057
 2213TIP3   OH228129   2.875   5.261  12.094  0.2374  0.0699 -0.8845
 2213TIP3    H128130   2.944   5.326  12.105  0.2236 -0.0454 -0.0519
 2213TIP3    H228131   2.802   5.310  12.057 -0.0471  0.7207  0.4587
 2214TIP3   OH228132   3.481   3.735  11.655  0.0343 -0.3152 -0.0960
 2214TIP3    H128133   3.570   3.700  11.658  0.4229  0.6660  0.9129
 2214TIP3    H228134   3.475   3.778  11.570  1.6415  2.2334  0.9439
 2215TIP3   OH228135   6.711   5.014   5.581 -0.3235 -0.8854 -0.0326
 2215TIP3    H128136   6.756   5.032   5.663 -0.9975 -2.2894  0.6789
 2215TIP3    H228137   6.760   5.064   5.515  0.5041 -0.1099  1.1376
 2216TIP3   OH228138   3.848   2.178   2.468  0.5072  0.1561  0.0632
 2216TIP3    H128139   3.818   2.231   2.541  0.2639  0.4745 -0.2669
 2216TIP3    H228140   3.908   2.235   2.419  0.1698  0.1648 -0.3448
 2217TIP3   OH228141   0.644   0.225   3.810 -0.0561  0.0642  0.0478
 2217TIP3    H128142   0.610   0.142   3.842 -1.1593 -0.1211 -1.5334
 2217TIP3    H228143   0.589   0.291   3.851  0.0291 -0.0520  0.3490
 2218TIP3   OH228144   2.597   5.183   5.784 -0.0715  0.4316 -0.0021
 2218TIP3    H128145   2.544   5.235   5.724  0.7420  1.0652 -0.2011
 2218TIP3    H228146   2.688   5.206   5.761  0.3094 -1.0749 -0.0924
 2219TIP3   OH228147   2.012   4.021  17.087 -0.2264  0.1691 -0.3881
 2219TIP3    H128148   1.918   4.027  17.068 -0.1905 -0.0521 -0.6373
 2219TIP3    H228149   2.046   4.108  17.066 -0.5716  0.6047  0.8149
 2220TIP3   OH228150   5.005   4.338   3.228 -0.1464 -0.2852 -0.2354
 2220TIP3    H128151   4.941   4.272   3.253 -0.9567  0.8461  0.7886
 2220TIP3    H228152   5.012   4.330   3.133 -0.0223 -1.9906 -0.1077
 2221TIP3   OH228153   6.247   5.263  15.879 -0.2617 -0.1377 -0.0975
 2221TIP3    H128154   6.332   5.241  15.842  0.1247  0.8237  0.1962
 2221TIP3    H228155   6.258   5.249  15.973 -0.8493 -1.3260 -0.1915
 2222TIP3   OH228156   5.340   4.610  14.105  0.0776  0.4776  0.6038
 2222TIP3    H128157   5.413   4.650  14.150  0.1046  0.1733  0.8362
 2222TIP3    H228158   5.287   4.570  14.174  0.5908 -0.7711  0.3177
 2223TIP3   OH228159   1.243   6.357   0.685 -0.7353  0.0612  0.1562
 2223TIP3    H128160   1.229   6.392   0.773  0.1774  0.4778  0.1498
 2223TIP3    H228161   1.338   6.347   0.679 -0.7819  0.1843 -0.8445
 2224TIP3   OH228162   6.767   6.692  16.764 -0.0559 -0.3603 -0.6886
 2224TIP3    H128163   6.792   6.764  16.821 -0.9647  0.1611 -0.9350
 2224TIP3    H228164   6.696   6.648  16.811 -0.8554  0.1130 -1.4239
 2225TIP3   OH228165   4.180   1.173   0.813  0.2841 -0.3773  0.0516
 2225TIP3    H128166   4.192   1.148   0.905 -1.6661  1.5215  0.9102
 2225TIP3    H228167   4.121   1.106   0.777  1.8247 -1.6918 -0.1872
 2226TIP3   OH228168   0.635   5.049  14.472  0.1613 -0.3133  0.4341
 2226TIP3    H128169   0.665   5.053  14.381  1.4070 -0.4224  0.8237
 2226TIP3    H228170   0.676   5.125  14.514  2.2087 -1.9515  1.6125
 2227TIP3   OH228171   4.338   6.501   1.211  0.1043 -0.3034 -0.1180
 2227TIP3    H128172   4.369   6.590   1.228  0.4089 -0.4826  0.2834
 2227TIP3    H228173   4.257   6.513   1.162 -0.4721  0.2176  0.9424
 2228TIP3   OH228174   1.020   0.981  14.187 -0.2734  0.3370  0.8777
 2228TIP3    H128175   1.019   1.067  14.228 -0.9541  1.7583 -1.8808
 2228TIP3    H228176   0.945   0.935  14.224 -1.2796  1.7961  0.7013
 2229TIP3   OH228177   0.258   1.166  14.491  0.0705 -0.4238 -0.4890
 2229TIP3    H128178   0.202   1.183  14.567  0.2218  0.2834 -0.5257
 2229TIP3    H228179   0.206   1.193  14.416  0.1727 -0.4850 -0.5821
 2230TIP3   OH228180   6.811   3.211  14.584  0.4688 -0.2181  0.0969
 2230TIP3    H128181   6.855   3.232  14.501 -0.3927  0.8390 -0.1144
 2230TIP3    H228182   6.750   3.284  14.597 -0.8480 -1.3832  0.6388
 2231TIP3   OH228183   5.400   0.050  14.933  0.1123 -0.0112  0.5481
 2231TIP3    H128184   5.379   0.039  14.840  0.7182 -1.4725  0.5655
 2231TIP3    H228185   5.351  -0.019  14.977 -0.2742  0.7551  1.3493
 2232TIP3   OH228186   4.095   1.263  14.393  0.6378  0.4863  0.0987
 2232TIP3    H128187   4.161   1.288  14.457  0.4281  1.7397 -0.1299
 2232TIP3    H228188   4.021   1.321  14.412  0.6617  1.0673 -1.4176
 2233TIP3   OH228189   1.573   4.905   5.854 -0.5348  0.0419  0.1208
 2233TIP3    H128190   1.528   4.833   5.899  0.7043 -0.8305 -0.0008
 2233TIP3    H228191   1.664   4.896   5.879  0.2399 -0.5220 -2.6177
 2234TIP3   OH228192   6.087   5.466   2.434 -0.1063  0.0391 -0.4971
 2234TIP3    H128193   6.031   5.536   2.467 -0.7734 -0.6425 -0.1812
 2234TIP3    H228194   6.126   5.503   2.355  0.5252  1.2263  0.3307
 2235TIP3   OH228195   2.157   4.609   3.129 -0.1683 -0.1527  0.2762
 2235TIP3    H128196   2.179   4.591   3.220 -0.4123  0.1285  0.3960
 2235TIP3    H228197   2.178   4.529   3.082  2.7731  0.6461  0.0575
 2236TIP3   OH228198   6.470   5.036  14.203  0.1147  0.4113 -0.0604
 2236TIP3    H128199   6.531   5.080  14.261  0.7206  0.3253 -0.6218
 2236TIP3    H228200   6.416   5.106  14.166  0.6854  0.6183 -0.5032
 2237TIP3   OH228201   5.664   1.990   6.325  0.1605 -0.1902 -0.0652
 2237TIP3    H128202   5.585   1.963   6.371 -0.1889 -0.9809 -1.0803
 2237TIP3    H228203   5.723   2.019   6.394 -1.1960  0.9421  0.6767
 2238TIP3   OH228204   6.196   2.958  15.246  0.3518  0.1734 -0.3263
 2238TIP3    H128205   6.140   2.953  15.323  0.7770  1.8141  0.1208
 2238TIP3    H228206   6.183   3.047  15.212  1.2691 -0.0430 -1.2943
 2239TIP3   OH228207   5.534   1.749  14.012  0.3997 -0.0506 -0.3454
 2239TIP3    H128208   5.559   1.815  13.948  1.2507  1.3591  1.3697
 2239TIP3    H228209   5.438   1.757  14.019  0.5513  1.4173  0.2501
 2240TIP3   OH228210   0.500   5.426  12.350  0.8520 -0.1615  0.0638
 2240TIP3    H128211   0.489   5.521  12.343  0.2354 -0.1988  0.4186
 2240TIP3    H228212   0.506   5.395  12.260  1.4935  0.2539 -0.0464
 2241TIP3   OH228213   0.593   2.130   3.786 -0.1186 -0.3710 -0.4147
 2241TIP3    H128214   0.613   2.182   3.708 -0.9929  0.6023 -0.0013
 2241TIP3    H228215   0.512   2.083   3.764 -0.2081 -0.3194 -0.1982
 2242TIP3   OH228216   5.825   6.502   2.570 -0.1389 -0.0687  0.5870
 2242TIP3    H128217   5.919   6.506   2.551 -0.1603 -0.2451  0.4482
 2242TIP3    H228218   5.810   6.573   2.632  0.0317  0.1505  0.3769
 2243TIP3   OH228219   0.671   3.305   1.922 -0.4857 -0.3644 -0.0057
 2243TIP3    H128220   0.687   3.371   1.989  0.9645  1.1721 -1.7461
 2243TIP3    H228221   0.729   3.233   1.945  0.1753  0.2451  0.2631
 2244TIP3   OH228222   3.434   5.200  16.172 -0.1374  0.3292 -0.1940
 2244TIP3    H128223   3.369   5.132  16.153  0.0524  0.5437 -1.7271
 2244TIP3    H228224   3.507   5.180  16.115 -0.3153  2.1734 -1.1428
 2245TIP3   OH228225   4.192   3.535  14.128 -0.1529 -0.1056 -0.1769
 2245TIP3    H128226   4.100   3.537  14.104 -0.6907 -0.1031  1.7070
 2245TIP3    H228227   4.231   3.472  14.067 -0.9769  1.2527 -2.2111
 2246TIP3   OH228228   5.990   1.642   2.892  0.1356  0.4275 -0.4333
 2246TIP3    H128229   5.933   1.719   2.887  0.4081  0.6680  0.0285
 2246TIP3    H228230   6.026   1.645   2.981  0.9639  0.3625 -0.7572
 2247TIP3   OH228231   0.654   2.455  13.277 -0.1622 -0.0310 -0.4002
 2247TIP3    H128232   0.686   2.370  13.245 -0.4171 -0.0662 -0.5672
 2247TIP3    H228233   0.657   2.447  13.373  0.5195  0.0419 -0.4162
 2248TIP3   OH228234   6.044   4.824  11.883  0.0273 -0.2953 -0.1713
 2248TIP3    H128235   5.961   4.832  11.835  1.0375  0.1126 -1.8976
 2248TIP3    H228236   6.111   4.819  11.816  1.6641  1.8131  1.1918
 2249TIP3   OH228237   4.940   3.082   2.998 -0.1351 -0.1148 -0.3631
 2249TIP3    H128238   4.916   3.158   3.051  2.2534  0.5253 -0.0401
 2249TIP3    H228239   4.926   3.007   3.055 -0.9575  0.2270 -0.1030
 2250TIP3   OH228240   0.156   3.835  11.416  0.2412 -0.0756 -0.6583
 2250TIP3    H128241   0.219   3.791  11.360 -1.4183 -1.2930 -1.6552
 2250TIP3    H228242   0.112   3.765  11.463 -1.2718  0.6035 -0.9812
 2251TIP3   OH228243   5.158   2.852  16.866  0.1571  0.5919 -0.9795
 2251TIP3    H128244   5.222   2.786  16.892  1.7448  1.6707 -1.9599
 2251TIP3    H228245   5.176   2.867  16.773 -0.5939  1.9287 -0.9387
 2252TIP3   OH228246   4.569   2.459  15.007 -0.5012 -0.0090  0.8850
 2252TIP3    H128247   4.578   2.384  15.065  1.1195 -0.1050  0.5685
 2252TIP3    H228248   4.554   2.421  14.920 -1.7580  0.1043  1.0380
 2253TIP3   OH228249   2.612   0.276  15.580 -0.0076 -0.2552 -0.1956
 2253TIP3    H128250   2.662   0.195  15.568  1.1817  0.6146 -1.4949
 2253TIP3    H228251   2.632   0.303  15.671  0.9559 -0.5607 -0.3000
 2254TIP3   OH228252   3.822   4.104  15.407  0.7454 -0.1422  0.5323
 2254TIP3    H128253   3.899   4.062  15.443  0.5853 -1.8160 -0.9249
 2254TIP3    H228254   3.748   4.061  15.450  0.6114  0.3625  0.8061
 2255TIP3   OH228255   6.494   6.276  14.688  0.0817  0.4556  0.1414
 2255TIP3    H128256   6.501   6.225  14.769  1.1123  0.1762 -0.1145
 2255TIP3    H228257   6.561   6.239  14.631  1.8173  2.9463  0.4042
 2256TIP3   OH228258   0.103   0.576   2.093  0.3252 -0.4025 -0.2824
 2256TIP3    H128259   0.149   0.616   2.020  0.5818 -2.4413 -1.3335
 2256TIP3    H228260   0.080   0.648   2.151  1.5930  1.0764 -1.5557
 2257TIP3   OH228261   3.881   3.240  13.585  0.2555 -0.2653 -0.2882
 2257TIP3    H128262   3.813   3.173  13.589 -1.1163  1.0656 -0.0430
 2257TIP3    H228263   3.862   3.297  13.660  0.5306  1.1534 -1.2581
 2258TIP3   OH228264   3.649   0.505  16.522  1.0714 -0.0979  0.1816
 2258TIP3    H128265   3.573   0.563  16.528  2.2703  1.6326 -0.4453
 2258TIP3    H228266   3.658   0.469  16.610 -0.8085 -0.8254  0.1102
 2259TIP3   OH228267   2.821   1.357  12.503  0.0987  0.0366 -0.1147
 2259TIP3    H128268   2.909   1.394  12.506  0.0299  0.1636  0.4115
 2259TIP3    H228269   2.763   1.431  12.484  0.1116 -0.0641 -0.5634
 2260TIP3   OH228270   2.980   6.548  13.394  0.4825  0.4822  0.0191
 2260TIP3    H128271   3.054   6.488  13.385  0.3782  0.6193 -2.5241
 2260TIP3    H228272   2.903   6.491  13.393  0.4052  0.5570 -1.9236
 2261TIP3   OH228273   6.774   1.561  15.696  0.2388  0.1193  0.1680
 2261TIP3    H128274   6.684   1.556  15.663 -0.2727  2.0627  1.0659
 2261TIP3    H228275   6.829   1.536  15.622 -0.9782  1.2001 -1.1665
 2262TIP3   OH228276   5.502   3.789   1.345  0.8424 -0.2768  0.4063
 2262TIP3    H128277   5.407   3.776   1.337  0.9339  0.0348 -2.0343
 2262TIP3    H228278   5.540   3.706   1.317  1.2655  0.6168 -1.8925
 2263TIP3   OH228279   5.251   3.917   2.767 -0.3798 -0.2624 -0.8728
 2263TIP3    H128280   5.172   3.971   2.773 -0.6121 -0.7644  1.1689
 2263TIP3    H228281   5.278   3.925   2.675 -2.0370  0.9776 -1.3043
 2264TIP3   OH228282   0.771   5.343   3.184  0.4624  0.1809  0.0660
 2264TIP3    H128283   0.706   5.369   3.118 -0.4519  0.3689  1.0035
 2264TIP3    H228284   0.855   5.360   3.143 -0.0653  2.4939 -0.2452
 2265TIP3   OH228285   6.465   4.397   2.006 -0.1219 -0.4894 -0.1425
 2265TIP3    H128286   6.483   4.387   1.913 -0.3870  0.5145 -0.3134
 2265TIP3    H228287   6.377   4.433   2.010 -0.0271 -0.3069  0.4858
 2266TIP3   OH228288   4.863   4.674   4.093 -0.0922  0.5115  0.6029
 2266TIP3    H128289   4.913   4.696   4.172 -0.4875  0.3581  0.8976
 2266TIP3    H228290   4.771   4.681   4.120 -0.2302 -0.5120  0.4292
 2267TIP3   OH228291   0.391   6.027   4.210 -0.0271 -0.7097  0.1030
 2267TIP3    H128292   0.400   6.003   4.302 -0.9708  0.8957  0.6403
 2267TIP3    H228293   0.475   6.068   4.188  0.5079 -1.8191 -0.0187
 2268TIP3   OH228294   0.100   4.232  12.846  0.1491 -0.1276 -0.0857
 2268TIP3    H128295   0.019   4.223  12.795  0.1297  0.1459 -0.1044
 2268TIP3    H228296   0.162   4.172  12.803  0.9194  1.9428 -2.0352
 2269TIP3   OH228297   6.144   2.151   4.551  0.5208 -0.0608 -0.0219
 2269TIP3    H128298   6.183   2.233   4.581 -0.2152  0.5432 -0.6587
 2269TIP3    H228299   6.061   2.178   4.511 -0.3342 -1.2630  0.8873
 2270TIP3   OH228300   5.031   0.982  14.135  0.1292 -0.1370 -0.1866
 2270TIP3    H128301   5.046   1.072  14.165  2.0336  0.2387 -2.0517
 2270TIP3    H228302   5.067   0.927  14.204 -2.7911  0.3477  1.9289
 2271TIP3   OH228303   4.505   1.362  15.983  0.4947 -0.7977  0.2355
 2271TIP3    H128304   4.546   1.447  15.966 -3.3041  1.3614  0.5558
 2271TIP3    H228305   4.519   1.347  16.076 -1.0720  1.0114  0.8367
 2272TIP3   OH228306   2.169   0.453   1.196 -0.0077 -0.6664  0.8468
 2272TIP3    H128307   2.130   0.516   1.136 -0.1753 -0.9818  0.6167
 2272TIP3    H228308   2.143   0.483   1.283 -1.1992 -1.1332  0.6793
 2273TIP3   OH228309   0.439   0.395   5.742 -0.0941  0.0873  0.1190
 2273TIP3    H128310   0.519   0.346   5.722  1.0357  0.2632  3.5228
 2273TIP3    H228311   0.469   0.472   5.790 -2.1138  2.3947 -1.9993
 2274TIP3   OH228312   0.536   2.625   0.394  0.0447  0.2869 -0.9130
 2274TIP3    H128313   0.529   2.715   0.425  0.7317  0.4074 -1.0758
 2274TIP3    H228314   0.477   2.575   0.450 -0.0502  0.7791 -0.5667
 2275TIP3   OH228315   6.086   2.508  12.121  0.1475  0.2446 -0.2890
 2275TIP3    H128316   5.994   2.505  12.097  0.0189 -0.5881  0.2366
 2275TIP3    H228317   6.086   2.532  12.214  0.4994  0.9332 -0.4602
 2276TIP3   OH228318   1.978   0.440  15.276  0.1574  0.6564 -0.2340
 2276TIP3    H128319   1.917   0.506  15.241 -1.6178 -0.1185  1.2549
 2276TIP3    H228320   1.934   0.405  15.353  3.4493  1.5554  2.2415
 2277TIP3   OH228321   0.982   1.604   0.712  0.2747 -0.1060 -0.0809
 2277TIP3    H128322   1.017   1.683   0.754 -1.0915  0.4851  0.0106
 2277TIP3    H228323   0.935   1.559   0.782 -1.5044  0.5733 -0.7723
 2278TIP3   OH228324   0.262   2.153  15.320 -0.0472 -0.1338 -0.2822
 2278TIP3    H128325   0.337   2.095  15.335 -0.7091 -1.3412 -1.3779
 2278TIP3    H228326   0.299   2.240  15.314  1.3828 -0.7817 -1.4715
 2279TIP3   OH228327   5.758   6.458   4.259  0.2324  0.4101  0.3520
 2279TIP3    H128328   5.709   6.377   4.273  1.9344 -0.5317  1.3350
 2279TIP3    H228329   5.792   6.479   4.346  0.1297  1.9793  0.0257
 2280TIP3   OH228330   3.870   0.381  15.517  0.3502  0.6107  0.0847
 2280TIP3    H128331   3.875   0.336  15.432 -0.0391  0.9815 -0.1414
 2280TIP3    H228332   3.805   0.332  15.567  2.3717 -1.1473  1.1373
 2281TIP3   OH228333   3.899   1.854   0.461  0.2574  0.0071  0.3576
 2281TIP3    H128334   3.884   1.776   0.408  2.0631  0.0465 -0.2588
 2281TIP3    H228335   3.983   1.839   0.504  0.7727  1.6928  0.0394
 2282TIP3   OH228336   2.835   3.654  12.554  0.0712 -0.2971 -0.2103
 2282TIP3    H128337   2.770   3.611  12.611 -0.7127  1.2977  0.1566
 2282TIP3    H228338   2.919   3.615  12.581 -0.4660 -0.7684  0.8927
 2283TIP3   OH228339   3.557   4.151   3.736  0.0729  0.5359  0.5550
 2283TIP3    H128340   3.644   4.137   3.773 -0.0773 -0.9476  0.3834
 2283TIP3    H228341   3.498   4.105   3.795 -0.3044 -0.7396 -0.7743
 2284TIP3   OH228342   0.470   3.759  11.832  0.4692  0.4163 -0.8817
 2284TIP3    H128343   0.408   3.818  11.790  0.4271  1.3248  0.4190
 2284TIP3    H228344   0.464   3.678  11.781 -1.7206  0.4976 -0.8389
 2285TIP3   OH228345   5.252   0.464   4.138  0.2036  0.2373 -0.0192
 2285TIP3    H128346   5.302   0.546   4.143 -0.4516  0.6880 -0.4839
 2285TIP3    H228347   5.220   0.463   4.047 -1.5511  0.5431  0.5637
 2286TIP3   OH228348   3.154   3.112  17.044  0.6475  0.1972 -0.0366
 2286TIP3    H128349   3.199   3.150  17.120  1.8236 -2.0397  0.4627
 2286TIP3    H228350   3.191   3.025  17.035 -0.4782 -0.1164 -2.3738
 2287TIP3   OH228351   6.034   3.684   2.105 -0.0506  0.0845  0.1674
 2287TIP3    H128352   6.073   3.597   2.113 -0.5364 -0.2668 -1.0685
 2287TIP3    H228353   5.959   3.672   2.047  1.0996  1.6740 -1.7975
 2288TIP3   OH228354   4.303   3.223  11.750  0.1390 -0.0066  0.3623
 2288TIP3    H128355   4.294   3.169  11.828  0.0242 -0.8625 -0.2300
 2288TIP3    H228356   4.396   3.218  11.727 -0.0984 -1.0913 -0.4672
 2289TIP3   OH228357   1.630   3.452   0.117 -0.7201 -0.1180 -0.1038
 2289TIP3    H128358   1.717   3.434   0.081  0.3455  1.8689  1.2872
 2289TIP3    H228359   1.632   3.414   0.204 -1.3167 -0.2064 -0.1292
 2290TIP3   OH228360   0.194   1.361   2.325 -0.3978 -0.6734 -0.3643
 2290TIP3    H128361   0.258   1.290   2.318 -1.2721 -1.5079 -0.2128
 2290TIP3    H228362   0.227   1.429   2.267  2.1092  0.1362  1.8505
 2291TIP3   OH228363   0.960   3.966  13.652  0.4631 -0.0337  0.5336
 2291TIP3    H128364   0.937   3.893  13.710  0.7275  0.1481  0.8671
 2291TIP3    H228365   0.889   4.030  13.664 -0.5826 -0.8619 -0.8839
 2292TIP3   OH228366   0.584   0.204   1.995 -0.7504  0.4688  0.6534
 2292TIP3    H128367   0.642   0.146   1.946 -2.1219  1.2459 -2.1288
 2292TIP3    H228368   0.643   0.268   2.036  0.5506 -0.9830  1.1321
 2293TIP3   OH228369   3.559   4.498   2.685 -0.0825 -0.5025 -0.4189
 2293TIP3    H128370   3.625   4.430   2.690  0.6262  0.2131  0.3893
 2293TIP3    H228371   3.500   4.480   2.759  0.3202 -0.0409  0.0241
 2294TIP3   OH228372   3.381   1.043  12.280  0.3842 -0.4220 -0.2938
 2294TIP3    H128373   3.315   1.092  12.329 -0.1198  0.4128 -1.7693
 2294TIP3    H228374   3.412   1.103  12.213  0.2300 -1.8899 -1.7434
 2295TIP3   OH228375   1.508   5.490   5.507  0.2829 -0.1130 -0.2806
 2295TIP3    H128376   1.482   5.580   5.487 -1.2532 -0.9910 -2.6088
 2295TIP3    H228377   1.602   5.488   5.488 -0.0782  0.4970 -2.4687
 2296TIP3   OH228378   5.117   1.695   1.539  0.0710  0.0943 -0.5383
 2296TIP3    H128379   5.068   1.723   1.616  0.5107  0.2546 -0.3117
 2296TIP3    H228380   5.056   1.705   1.466  0.2151  1.7342 -0.4891
 2297TIP3   OH228381   2.503   6.674  13.120  0.3772 -0.2624 -0.2666
 2297TIP3    H128382   2.567   6.699  13.053  0.3692 -0.4537 -0.3454
 2297TIP3    H228383   2.481   6.584  13.099  0.8718 -0.5422  0.3924
 2298TIP3   OH228384   6.183   6.459   1.065 -0.3916  0.5938  0.3371
 2298TIP3    H128385   6.169   6.380   1.118 -0.4127 -0.0738 -0.6432
 2298TIP3    H228386   6.202   6.528   1.129  0.3230 -0.3508  1.1741
 2299TIP3   OH228387   3.106   4.699   4.392  0.7859  0.2966  0.8371
 2299TIP3    H128388   3.118   4.789   4.361 -1.9768  0.5037  0.1006
 2299TIP3    H228389   3.055   4.708   4.472 -1.6775 -0.6171 -0.5293
 2300TIP3   OH228390   1.897   2.776   4.162  0.2156 -0.2268 -0.1772
 2300TIP3    H128391   1.967   2.829   4.198 -0.5042  0.6227  0.0096
 2300TIP3    H228392   1.860   2.830   4.092 -2.0701  0.5920  1.5403
 2301TIP3   OH228393   6.586   5.419  14.802 -1.0720 -0.0022  0.5997
 2301TIP3    H128394   6.514   5.458  14.852 -0.0379 -0.6030  2.6814
 2301TIP3    H228395   6.635   5.495  14.769 -1.9302  0.4100  0.2449
 2302TIP3   OH228396   3.473   4.317   0.374  0.2163  0.0630  0.5999
 2302TIP3    H128397   3.520   4.400   0.370 -0.7254  0.5884  0.0656
 2302TIP3    H228398   3.526   4.257   0.321 -0.4126  1.0212 -1.2144
 2303TIP3   OH228399   5.648   0.848  13.251  0.1681  0.6010 -0.4239
 2303TIP3    H128400   5.620   0.757  13.251  0.8981  0.3706 -0.0408
 2303TIP3    H228401   5.652   0.872  13.158  1.5477 -0.2668 -0.6199
 2304TIP3   OH228402   0.942   4.536  13.035 -0.6895 -0.5184  0.2759
 2304TIP3    H128403   1.014   4.512  13.094 -0.6103 -1.6199 -0.2354
 2304TIP3    H228404   0.959   4.627  13.012  1.2820 -1.1250 -0.8534
 2305TIP3   OH228405   5.063   2.134   2.783  0.2868 -0.2997 -0.6726
 2305TIP3    H128406   5.023   2.052   2.754  0.1420  0.0292 -1.4075
 2305TIP3    H228407   5.154   2.127   2.755  0.8575 -1.1711  1.2468
 2306TIP3   OH228408   6.273   4.513   5.466 -0.1509  0.4344 -0.1058
 2306TIP3    H128409   6.270   4.563   5.548 -1.1575  0.0284  0.1268
 2306TIP3    H228410   6.366   4.499   5.449  0.2466  3.1357 -0.6459
 2307TIP3   OH228411   4.094   0.279  14.727  0.1542  0.0273  0.0544
 2307TIP3    H128412   4.139   0.339  14.786 -1.2462  0.2700  0.9358
 2307TIP3    H228413   4.023   0.330  14.690  1.0642 -0.1012 -1.9761
 2308TIP3   OH228414   4.717   5.180  15.238 -0.0113 -0.0970  0.0055
 2308TIP3    H128415   4.718   5.093  15.277 -0.2286  0.0203  0.2734
 2308TIP3    H228416   4.703   5.164  15.144 -0.3162 -0.3387  0.0919
 2309TIP3   OH228417   3.875   2.828   5.362  0.5395  0.5744  0.2767
 2309TIP3    H128418   3.910   2.859   5.279  0.0723  0.4820  0.0444
 2309TIP3    H228419   3.838   2.742   5.343 -0.3716  0.9285  0.3725
 2310TIP3   OH228420   5.696   6.536   0.921 -0.2185  0.2560  1.0009
 2310TIP3    H128421   5.641   6.506   0.994  0.2172  0.8092  1.5724
 2310TIP3    H228422   5.769   6.474   0.919 -0.4226  0.0229  0.7963
 2311TIP3   OH228423   3.204   0.618   4.907  0.1939  0.0253  0.3197
 2311TIP3    H128424   3.128   0.566   4.881 -0.3548  1.1664 -0.4432
 2311TIP3    H228425   3.268   0.606   4.837  0.6194 -0.6906  0.8130
 2312TIP3   OH228426   4.933   3.848  16.266  0.2764 -0.2362 -0.1580
 2312TIP3    H128427   5.013   3.901  16.264 -0.2790  0.6392  0.3860
 2312TIP3    H228428   4.930   3.811  16.354 -0.0258 -0.0875 -0.1044
 2313TIP3   OH228429   1.592   2.518  13.551  0.2132 -0.0237  0.1615
 2313TIP3    H128430   1.646   2.480  13.621 -1.7859  0.9619  2.3805
 2313TIP3    H228431   1.597   2.613  13.566 -1.5885  0.1225  0.0557
 2314TIP3   OH228432   0.093   3.868  12.889  0.1598 -0.1505  0.3553
 2314TIP3    H128433   0.147   3.860  12.968  0.8821 -0.2021 -0.1419
 2314TIP3    H228434   0.111   3.956  12.856  0.7831 -0.5646 -0.4210
 2315TIP3   OH228435   3.237   6.777  14.885  0.2930  0.5037  0.1141
 2315TIP3    H128436   3.206   6.711  14.947  1.1095 -0.7714 -0.7773
 2315TIP3    H228437   3.203   6.748  14.800  1.5184  0.6393 -0.4456
 2316TIP3   OH228438   3.402   0.502  16.773 -0.5095 -0.0342  0.2631
 2316TIP3    H128439   3.393   0.531  16.864  1.5993 -0.8153  0.7702
 2316TIP3    H228440   3.335   0.434  16.763 -0.5990 -0.1131  1.3130
 2317TIP3   OH228441   4.814   2.042  13.037  0.2940 -0.0599 -0.5448
 2317TIP3    H128442   4.909   2.033  13.043  0.1152 -1.7247  0.2217
 2317TIP3    H228443   4.798   2.135  13.057  1.7090  0.0978 -0.0268
 2318TIP3   OH228444   2.499   3.133  15.235 -0.0851 -0.6708 -0.4354
 2318TIP3    H128445   2.457   3.194  15.174  0.0820 -1.9516 -1.8961
 2318TIP3    H228446   2.478   3.168  15.321  0.8019  1.9800 -1.1884
 2319TIP3   OH228447   2.352   3.995  11.271 -0.0493 -0.0723 -0.2032
 2319TIP3    H128448   2.376   4.088  11.276  0.3945 -0.1983  0.0382
 2319TIP3    H228449   2.263   3.996  11.236 -0.4175  0.4958  0.7200
 2320TIP3   OH228450   1.213   4.813   2.912  0.1008  0.3307  0.0432
 2320TIP3    H128451   1.147   4.785   2.977  2.3490 -1.1936  1.8350
 2320TIP3    H228452   1.171   4.885   2.865 -2.8989 -0.6856  0.9292
 2321TIP3   OH228453   0.825   5.536   6.881 -0.8097 -0.0017 -0.4116
 2321TIP3    H128454   0.883   5.497   6.816  0.2777  3.5053 -1.7961
 2321TIP3    H228455   0.860   5.507   6.965  1.8757  0.4886 -1.2610
 2322TIP3   OH228456   3.964   3.718  14.044  0.7131  0.0111 -0.3947
 2322TIP3    H128457   3.885   3.668  14.025  1.2476 -0.3616 -1.7593
 2322TIP3    H228458   3.970   3.719  14.139 -0.5531 -0.5505 -0.2963
 2323TIP3   OH228459   3.624   3.510  12.995  0.2240  0.6432 -0.6332
 2323TIP3    H128460   3.656   3.421  12.981  1.1503  1.0703 -1.3542
 2323TIP3    H228461   3.563   3.502  13.068 -0.3031 -0.7057 -1.1862
 2324TIP3   OH228462   6.647   1.921  16.376 -0.0351 -0.5482  0.1204
 2324TIP3    H128463   6.737   1.943  16.402 -0.2867 -0.4735  0.9419
 2324TIP3    H228464   6.652   1.912  16.281  0.3550  1.8218 -0.1410
 2325TIP3   OH228465   2.803   2.451  17.026 -0.2817 -0.5854  0.2241
 2325TIP3    H128466   2.815   2.377  16.966 -0.0224  0.2080 -0.7319
 2325TIP3    H228467   2.820   2.528  16.972  1.4923  0.1230  1.7068
 2326TIP3   OH228468   0.232   1.353  12.428 -0.1571 -0.6671 -0.7317
 2326TIP3    H128469   0.240   1.258  12.419 -0.6692 -0.9809  1.5505
 2326TIP3    H228470   0.167   1.365  12.498  1.7439  1.3087  0.8087
 2327TIP3   OH228471   4.080   6.406   5.296 -0.1061 -0.2952  0.6958
 2327TIP3    H128472   4.171   6.435   5.301  0.4001 -1.7787  0.5662
 2327TIP3    H228473   4.065   6.390   5.202 -0.4359 -0.2417  0.7389
 2328TIP3   OH228474   5.980   1.961   5.665  0.5314 -0.3653  0.3363
 2328TIP3    H128475   5.909   1.897   5.666  0.7479 -0.6950 -1.3754
 2328TIP3    H228476   6.057   1.912   5.696  0.5638 -0.7974 -0.3853
 2329TIP3   OH228477   5.276   6.477   2.710 -0.2296 -0.2660  0.5659
 2329TIP3    H128478   5.255   6.389   2.739 -0.8908 -0.6001 -0.8200
 2329TIP3    H228479   5.371   6.483   2.717 -0.0108 -1.6424 -0.7296
 2330TIP3   OH228480   1.432   2.462  11.457  0.0215 -0.0851 -0.7297
 2330TIP3    H128481   1.395   2.396  11.516  1.2303  0.1357  0.3286
 2330TIP3    H228482   1.417   2.426  11.369 -1.7793 -0.4488 -0.3224
 2331TIP3   OH228483   6.084   4.698   5.935 -0.1134  0.0531 -0.3168
 2331TIP3    H128484   6.043   4.612   5.946  1.5708 -1.0081 -1.7715
 2331TIP3    H228485   6.112   4.722   6.024  0.8158 -1.6876 -0.0941
 2332TIP3   OH228486   4.911   0.708  16.438 -0.5029  0.0345  0.6240
 2332TIP3    H128487   4.969   0.777  16.405  0.8842 -1.2650  0.2175
 2332TIP3    H228488   4.840   0.705  16.374  0.2313  0.0580 -0.2234
 2333TIP3   OH228489   2.646   4.195  15.867 -0.6099 -0.0589 -0.1870
 2333TIP3    H128490   2.650   4.268  15.929  0.9430  0.2067 -0.5759
 2333TIP3    H228491   2.658   4.236  15.781 -0.3530 -0.7048 -0.4644
 2334TIP3   OH228492   0.702   3.443  15.909 -0.1230 -0.4272 -0.0961
 2334TIP3    H128493   0.661   3.523  15.878 -2.0848 -0.5859  1.8010
 2334TIP3    H228494   0.678   3.439  16.002  0.7067 -2.7311  0.0790
 2335TIP3   OH228495   2.388   5.702  11.377 -0.3086 -0.0544 -0.5141
 2335TIP3    H128496   2.450   5.660  11.317 -1.6504 -1.3641 -1.0479
 2335TIP3    H228497   2.376   5.639  11.448 -1.7165 -0.2674 -0.9003
 2336TIP3   OH228498   3.541   5.079  10.842  0.4431 -0.2148  0.0994
 2336TIP3    H128499   3.632   5.054  10.859  0.7096  1.4103  1.4332
 2336TIP3    H228500   3.495   4.997  10.828  2.1990 -1.0481 -1.1164
 2337TIP3   OH228501   6.150   3.909   4.306 -0.5329 -0.0427 -0.3090
 2337TIP3    H128502   6.180   3.840   4.248  0.3295 -0.1849  0.2723
 2337TIP3    H228503   6.071   3.875   4.347  0.1389 -0.8835  0.3174
 2338TIP3   OH228504   0.137   5.381  13.232  0.0542  0.6139  0.0351
 2338TIP3    H128505   0.118   5.353  13.143  1.3790  3.7766 -1.4015
 2338TIP3    H228506   0.231   5.401  13.231  0.3726 -0.3949  2.5177
 2339TIP3   OH228507   4.754   1.018   0.990 -0.4041  0.3021  0.2422
 2339TIP3    H128508   4.691   1.042   1.058 -1.3387 -0.6515 -0.2692
 2339TIP3    H228509   4.725   0.933   0.958  0.5557  0.3094 -0.7193
 2340TIP3   OH228510   0.663   3.794  14.324  0.0468  0.4891 -0.0959
 2340TIP3    H128511   0.707   3.814  14.407 -0.6055 -0.2266  0.4439
 2340TIP3    H228512   0.583   3.748  14.351  0.1287 -0.2899 -1.1504
 2341TIP3   OH228513   2.648   6.174  17.055  0.1134  0.6857  0.0021
 2341TIP3    H128514   2.666   6.134  17.140  2.4998  1.2068 -0.1931
 2341TIP3    H228515   2.575   6.123  17.020 -0.0624 -0.3789  1.7756
 2342TIP3   OH228516   6.202   5.443   2.177 -0.1076  0.0042  0.7362
 2342TIP3    H128517   6.128   5.393   2.211  0.1042  0.0574  1.2890
 2342TIP3    H228518   6.205   5.423   2.084  0.9455 -2.2699  1.1965
 2343TIP3   OH228519   2.685   1.452  16.811 -0.6555  0.7869  0.4158
 2343TIP3    H128520   2.625   1.387  16.776 -1.3266  1.8163 -0.3786
 2343TIP3    H228521   2.695   1.517  16.742  2.4518  0.0046 -0.0516
 2344TIP3   OH228522   4.903   0.142  16.360  0.4093  0.3485  0.1298
 2344TIP3    H128523   4.903   0.189  16.443  1.4302  1.7368 -0.6156
 2344TIP3    H228524   4.831   0.181  16.311  0.2360  0.0026  0.1074
 2345TIP3   OH228525   0.141   5.740  16.974  0.5662 -0.3774  0.3086
 2345TIP3    H128526   0.181   5.653  16.969 -1.1361 -1.2063  0.3596
 2345TIP3    H228527   0.131   5.756  17.067 -0.9553 -1.0576  0.2962
 2346TIP3   OH228528   5.399   4.467   5.302 -0.3911  0.7760  0.5199
 2346TIP3    H128529   5.361   4.501   5.383  0.3027  1.6423  0.5104
 2346TIP3    H228530   5.481   4.426   5.330  0.0734  1.4801  0.2162
 2347TIP3   OH228531   3.943   5.011   5.082  0.2427 -0.3658  0.5747
 2347TIP3    H128532   4.035   4.983   5.081  0.3413 -0.0235 -0.2308
 2347TIP3    H228533   3.943   5.096   5.039 -0.5828 -0.7785 -0.2651
 2348TIP3   OH228534   2.996   0.625   0.787 -0.2152  0.1217  0.0114
 2348TIP3    H128535   3.086   0.597   0.773  1.2887  2.9829  2.7509
 2348TIP3    H228536   2.983   0.619   0.882 -0.5529  5.4720  0.6288
 2349TIP3   OH228537   2.040   3.031   2.502 -0.4457  0.0231 -0.3387
 2349TIP3    H128538   2.047   2.952   2.448  0.9925  0.7398 -1.2397
 2349TIP3    H228539   1.952   3.025   2.541 -1.1242 -1.0455 -1.9188
 2350TIP3   OH228540   6.603   2.405  14.713  0.1247  0.5948 -0.4151
 2350TIP3    H128541   6.585   2.363  14.629 -0.5299  1.5201 -0.7571
 2350TIP3    H228542   6.557   2.489  14.708  0.8251  1.0517  0.5166
 2351TIP3   OH228543   5.156   5.069  16.169  0.1167 -0.3666 -1.2298
 2351TIP3    H128544   5.235   5.107  16.209 -1.1715  0.5962  0.5532
 2351TIP3    H228545   5.116   5.141  16.121 -0.1993 -0.5858 -1.2979
 2352TIP3   OH228546   3.460   2.210  16.586 -0.2137 -0.1804  0.3999
 2352TIP3    H128547   3.534   2.149  16.579 -0.3390 -0.3198  0.2696
 2352TIP3    H228548   3.500   2.296  16.593  0.0120 -0.4111  2.3055
 2353TIP3   OH228549   1.049   4.456  16.765 -0.2859  0.2674  0.3698
 2353TIP3    H128550   1.127   4.427  16.811  0.8188 -1.1726 -2.2300
 2353TIP3    H228551   1.030   4.386  16.703 -3.2000  0.9382  0.3513
 2354TIP3   OH228552   3.006   3.998   1.332 -0.7549 -0.2072 -0.1602
 2354TIP3    H128553   3.026   4.071   1.391  1.1902 -0.3982 -0.5257
 2354TIP3    H228554   3.006   4.038   1.244  0.8900 -0.7233 -0.4142
 2355TIP3   OH228555   2.199   0.276   4.758  0.1540 -0.6854  0.5692
 2355TIP3    H128556   2.275   0.224   4.786  1.0109 -0.5966 -1.4282
 2355TIP3    H228557   2.132   0.211   4.738  0.8864 -1.0123 -0.9549
 2356TIP3   OH228558   4.020   4.750   1.517  0.0193 -0.0214 -0.0012
 2356TIP3    H128559   4.021   4.676   1.456 -0.7825  1.3563 -1.7937
 2356TIP3    H228560   4.012   4.827   1.461  1.5995  1.5153  1.7487
 2357TIP3   OH228561   6.818   3.906   1.071 -0.2868  0.0434 -0.1555
 2357TIP3    H128562   6.850   3.819   1.048  0.5373 -0.0910  1.3704
 2357TIP3    H228563   6.751   3.925   1.005 -1.0982 -2.0973 -0.0336
 2358TIP3   OH228564   1.884   6.069  16.388 -0.0337 -0.0152 -0.3234
 2358TIP3    H128565   1.803   6.042  16.344 -1.6850  1.9449  1.2854
 2358TIP3    H228566   1.938   6.106  16.319  0.7312 -3.6485 -1.9136
 2359TIP3   OH228567   0.322   3.139  14.481 -0.2768 -0.2001 -0.4499
 2359TIP3    H128568   0.285   3.056  14.512  1.8272 -1.8441 -1.9355
 2359TIP3    H228569   0.291   3.146  14.391  0.3541  0.0746 -0.6525
 2360TIP3   OH228570   1.464   6.596  14.236  0.0357 -0.3540  0.1062
 2360TIP3    H128571   1.510   6.655  14.295 -0.4253 -0.7196  0.8500
 2360TIP3    H228572   1.414   6.654  14.178 -1.6815  0.0108  1.8503
 2361TIP3   OH228573   1.627   2.807  11.778  0.4249 -0.2276 -0.2574
 2361TIP3    H128574   1.557   2.868  11.800  1.4196  1.4401 -1.4617
 2361TIP3    H228575   1.590   2.751  11.710 -0.0775 -0.0778 -0.1089
 2362TIP3   OH228576   0.620   5.270   3.987  0.2745  0.0605 -0.4272
 2362TIP3    H128577   0.713   5.290   4.002 -0.0856  0.4897  1.6038
 2362TIP3    H228578   0.589   5.341   3.931  0.9115  0.5575 -0.1667
 2363TIP3   OH228579   2.772   5.585  16.124 -0.5265 -0.4199 -0.2758
 2363TIP3    H128580   2.812   5.564  16.209 -0.4275  1.4120  0.1864
 2363TIP3    H228581   2.682   5.555  16.131 -0.2393 -1.2173  0.0861
 2364TIP3   OH228582   3.250   4.485   3.415  0.7233 -0.2188  0.5146
 2364TIP3    H128583   3.208   4.410   3.374 -0.1109  0.3192  0.3696
 2364TIP3    H228584   3.241   4.556   3.352  1.3042  0.0703  0.7451
 2365TIP3   OH228585   2.765   1.411   0.057  0.0072 -0.2254  0.2607
 2365TIP3    H128586   2.761   1.493   0.008  2.1745  0.6618  1.4064
 2365TIP3    H228587   2.834   1.360   0.013 -1.4103 -1.5620 -0.5298
 2366TIP3   OH228588   1.648   5.242  13.649  0.6204  0.2918 -0.2690
 2366TIP3    H128589   1.623   5.322  13.603  1.1281  0.5013 -0.1860
 2366TIP3    H228590   1.678   5.183  13.581 -1.7219 -0.6375 -0.6122
 2367TIP3   OH228591   2.270   6.732  12.193  0.3064 -0.0202 -0.0799
 2367TIP3    H128592   2.329   6.806  12.180 -0.4672  0.5673 -0.3037
 2367TIP3    H228593   2.328   6.657  12.201  1.1549  0.7145  1.0221
 2368TIP3   OH228594   0.387   4.383   1.131 -0.7265  0.2127 -0.0351
 2368TIP3    H128595   0.353   4.443   1.197  0.4190  1.3654 -0.4365
 2368TIP3    H228596   0.427   4.441   1.066  3.0050 -0.9654  0.9507
 2369TIP3   OH228597   4.964   5.651   5.517 -0.3818 -0.3623  0.0363
 2369TIP3    H128598   4.987   5.743   5.508 -1.0053 -0.1621  0.3985
 2369TIP3    H228599   4.868   5.649   5.509 -0.4943 -0.8156  1.2147
 2370TIP3   OH228600   4.681   3.445  15.692  0.1103 -0.3212  1.1278
 2370TIP3    H128601   4.586   3.437  15.697  0.0290  0.1814  0.6234
 2370TIP3    H228602   4.696   3.503  15.617  0.8480 -1.0330  0.7100
 2371TIP3   OH228603   0.159   5.465  17.005  0.6934  0.9030 -0.3510
 2371TIP3    H128604   0.177   5.395  16.943  0.5703  2.0391 -1.7074
 2371TIP3    H228605   0.200   5.436  17.087  1.7821 -0.1371 -1.2377
 2372TIP3   OH228606   0.414   3.076   6.413  0.0319  0.8319 -0.3994
 2372TIP3    H128607   0.342   3.083   6.350 -1.3879 -0.0786  1.0231
 2372TIP3    H228608   0.430   2.982   6.420 -0.8451  0.7867  1.6192
 2373TIP3   OH228609   0.800   5.782  15.373  0.4298 -0.5277  0.0005
 2373TIP3    H128610   0.801   5.696  15.332 -1.3211 -1.1378  1.1299
 2373TIP3    H228611   0.892   5.805  15.384  0.9919 -3.1403  1.4547
 2374TIP3   OH228612   0.764   0.282  16.559  0.5516  0.1929  0.6253
 2374TIP3    H128613   0.769   0.305  16.466  0.9815  1.5945  0.9727
 2374TIP3    H228614   0.738   0.190  16.559  2.3405 -0.3942 -0.9297
 2375TIP3   OH228615   0.800   3.791  11.304 -0.1818  0.4212 -0.1185
 2375TIP3    H128616   0.767   3.724  11.364 -0.1914  0.4512 -0.0902
 2375TIP3    H228617   0.895   3.777  11.302 -0.3193 -0.4653 -1.1666
 2376TIP3   OH228618   0.827   6.395  11.962 -0.4916  0.0243  0.0866
 2376TIP3    H128619   0.784   6.479  11.948  0.7404  0.5495 -0.7359
 2376TIP3    H228620   0.876   6.406  12.044 -1.8539 -0.5631  1.0064
 2377TIP3   OH228621   4.464   1.052   0.703 -0.1826  0.5104  0.1278
 2377TIP3    H128622   4.418   0.972   0.729  0.5038  0.3803  0.9890
 2377TIP3    H228623   4.552   1.021   0.679 -0.4277  0.7849 -1.2289
 2378TIP3   OH228624   5.770   2.275   4.704  0.2402  0.3937  0.2581
 2378TIP3    H128625   5.739   2.198   4.751  1.1005  0.1342  0.4181
 2378TIP3    H228626   5.727   2.348   4.748 -0.4676  0.0235  0.1994
 2379TIP3   OH228627   1.250   5.267   3.721 -0.2977 -0.1650 -0.4431
 2379TIP3    H128628   1.172   5.265   3.776 -0.6698  0.4066 -0.9364
 2379TIP3    H228629   1.281   5.176   3.718 -0.1965 -0.1761  0.8041
 2380TIP3   OH228630   2.632   3.910   4.203 -0.1882  0.5095 -0.0039
 2380TIP3    H128631   2.601   3.986   4.252 -0.8147 -0.7190  1.5589
 2380TIP3    H228632   2.566   3.897   4.135 -0.4823  0.9090  0.1996
 2381TIP3   OH228633   5.449   6.176   6.557 -0.6539  0.3509 -0.0934
 2381TIP3    H128634   5.518   6.140   6.501 -1.1464  2.3845 -2.1854
 2381TIP3    H228635   5.394   6.101   6.579  0.8473 -0.8895 -0.4283
 2382TIP3   OH228636   6.665   1.443  14.043 -0.3082  0.3416  0.5233
 2382TIP3    H128637   6.754   1.441  14.007 -0.2365  2.6536  0.3608
 2382TIP3    H228638   6.662   1.525  14.092 -1.7866 -0.6322  2.1564
 2383TIP3   OH228639   3.812   2.595  11.822 -0.0895 -0.2625  0.5709
 2383TIP3    H128640   3.805   2.646  11.741  2.5781 -0.1071  0.3422
 2383TIP3    H228641   3.894   2.625  11.862  0.7510 -3.1793  1.2682
 2384TIP3   OH228642   3.713   3.420  15.107  0.2840 -0.0805 -0.6097
 2384TIP3    H128643   3.686   3.413  15.015  0.0807 -0.3308 -0.5333
 2384TIP3    H228644   3.808   3.410  15.104  0.3059  0.1723 -0.8189
 2385TIP3   OH228645   2.271   5.891  13.892  0.1091  0.1145 -0.1999
 2385TIP3    H128646   2.358   5.913  13.859 -0.0701  1.4585  0.1459
 2385TIP3    H228647   2.212   5.951  13.845 -0.5198 -0.1598  0.2212
 2386TIP3   OH228648   5.634   6.134  11.790  0.5612  0.2404 -0.1574
 2386TIP3    H128649   5.560   6.087  11.828 -0.1284  1.1558 -0.3435
 2386TIP3    H228650   5.695   6.145  11.863  0.3329 -0.1415  0.0947
 2387TIP3   OH228651   2.647   2.341  11.398  0.1717 -0.0991  0.0429
 2387TIP3    H128652   2.650   2.374  11.308  0.0561 -0.6789 -0.1750
 2387TIP3    H228653   2.556   2.353  11.425  0.0073 -0.7342 -0.2245
 2388TIP3   OH228654   3.260   4.709  12.853  0.1382  0.4951 -0.6488
 2388TIP3    H128655   3.168   4.732  12.862 -0.0349  0.5987 -2.3007
 2388TIP3    H228656   3.291   4.695  12.943 -1.3461  0.9517 -0.0416
 2389TIP3   OH228657   3.335   4.925  12.301  0.4590 -0.1854  0.4639
 2389TIP3    H128658   3.307   4.839  12.271 -2.0362  0.5513  0.4102
 2389TIP3    H228659   3.337   4.979  12.222 -2.1321  0.7576  0.9406
 2390TIP3   OH228660   0.212   6.362  16.471 -0.6272 -0.0249  0.0102
 2390TIP3    H128661   0.170   6.437  16.429  2.6727  1.4403 -1.0539
 2390TIP3    H228662   0.250   6.311  16.399  0.2304 -0.6978  0.8935
 2391TIP3   OH228663   6.538   0.404   5.042  0.3073  0.5375  0.5410
 2391TIP3    H128664   6.501   0.393   5.129 -0.5273 -0.5830  0.0745
 2391TIP3    H228665   6.619   0.354   5.044 -1.0093 -1.7608 -0.0662
 2392TIP3   OH228666   4.783   0.176   4.511 -0.7445  0.3718  0.0974
 2392TIP3    H128667   4.743   0.240   4.570  0.0840 -1.5145  2.9117
 2392TIP3    H228668   4.722   0.103   4.510  0.0012 -0.2628 -0.0681
 2393TIP3   OH228669   1.183   1.946   2.543 -0.3629 -0.5100 -0.6108
 2393TIP3    H128670   1.089   1.927   2.539 -1.1715  2.7629  0.0448
 2393TIP3    H228671   1.213   1.904   2.623 -1.2482 -1.5389 -0.7938
 2394TIP3   OH228672   5.581   5.111  14.298 -0.2986  0.0695  0.0873
 2394TIP3    H128673   5.487   5.095  14.301 -0.3382  0.2566 -0.0765
 2394TIP3    H228674   5.608   5.117  14.389 -0.0174 -2.3853  0.2480
 2395TIP3   OH228675   4.308   1.931   6.360 -0.0096 -0.2463  0.0384
 2395TIP3    H128676   4.384   1.872   6.359  1.7133  1.8115  0.1725
 2395TIP3    H228677   4.327   1.993   6.430 -1.6250  0.6027 -0.2202
 2396TIP3   OH228678   6.006   5.296  14.405  0.2985  0.1159 -1.1502
 2396TIP3    H128679   6.039   5.386  14.397  1.0108  0.1827  1.5717
 2396TIP3    H228680   6.084   5.242  14.413 -0.1306 -0.3814 -0.0537
 2397TIP3   OH228681   0.413   2.788   4.498 -0.2460 -0.5000 -0.2575
 2397TIP3    H128682   0.442   2.810   4.586  0.2229 -3.2300  0.3471
 2397TIP3    H228683   0.365   2.866   4.468 -2.7596 -0.4240  3.4171
 2398TIP3   OH228684   0.734   5.350   1.026 -0.2233 -0.2587  0.1059
 2398TIP3    H128685   0.821   5.373   0.991 -0.6793  0.9871 -0.2615
 2398TIP3    H228686   0.695   5.294   0.959  0.0610 -0.3146 -0.0142
 2399TIP3   OH228687   2.448   3.096   3.914  0.2945  0.3541 -0.7341
 2399TIP3    H128688   2.497   3.039   3.855 -0.1177  1.0114 -1.7362
 2399TIP3    H228689   2.511   3.163   3.942  0.5356 -0.0580 -0.2839
 2400TIP3   OH228690   1.943   0.061   3.090  0.1180 -0.0901  0.4615
 2400TIP3    H128691   2.001   0.112   3.147  1.3953 -2.3576  1.3414
 2400TIP3    H228692   1.982   0.070   3.003  0.1728  0.6162  0.5514
 2401TIP3   OH228693   3.617   5.605  11.199  0.3537 -0.4502  0.2264
 2401TIP3    H128694   3.690   5.624  11.140 -1.9319  0.5756 -2.5062
 2401TIP3    H228695   3.658   5.561  11.274  3.6883 -0.1925 -1.2401
 2402TIP3   OH228696   6.135   5.404  11.678  0.0200  0.2475  0.2734
 2402TIP3    H128697   6.075   5.429  11.609 -1.7471 -1.5811  1.0468
 2402TIP3    H228698   6.082   5.353  11.739  2.1010 -0.4512  1.6168
 2403TIP3   OH228699   0.797   6.254   1.977 -0.3979  0.0960  0.4002
 2403TIP3    H128700   0.779   6.196   1.904  0.2171  0.4762 -0.0653
 2403TIP3    H228701   0.714   6.260   2.024 -0.7434 -0.3161 -0.1404
 2404TIP3   OH228702   0.921   4.422   5.209  0.1246  0.6241  0.3230
 2404TIP3    H128703   0.977   4.495   5.182  2.8388 -1.8379 -1.2493
 2404TIP3    H228704   0.840   4.434   5.159  0.5555  2.4457  0.0084
 2405TIP3   OH228705   2.182   4.437  12.463 -0.5005  0.2911 -0.0807
 2405TIP3    H128706   2.203   4.528  12.486 -0.5109 -0.0869  1.5742
 2405TIP3    H228707   2.117   4.411  12.529  0.3467 -1.2663  0.1835
 2406TIP3   OH228708   3.483   5.822   3.399 -0.2424  0.2058  0.2552
 2406TIP3    H128709   3.404   5.876   3.392 -1.1430 -0.6756  2.6509
 2406TIP3    H228710   3.462   5.757   3.466  2.1093 -0.8164  0.1018
 2407TIP3   OH228711   5.575   2.532  15.858 -0.0592  0.4895 -0.3799
 2407TIP3    H128712   5.559   2.444  15.891  1.4040 -0.1436 -1.2085
 2407TIP3    H228713   5.611   2.580  15.933  1.3338 -0.3360 -0.4778
 2408TIP3   OH228714   4.654   0.305  14.820  0.1036 -0.3450 -0.8281
 2408TIP3    H128715   4.727   0.363  14.798  0.1308  0.3170  0.8224
 2408TIP3    H228716   4.628   0.265  14.737  1.1378  0.8092 -1.7370
 2409TIP3   OH228717   0.605   1.595   1.629  0.4958  0.1971 -0.7433
 2409TIP3    H128718   0.564   1.598   1.542  0.7519 -1.3384 -0.9382
 2409TIP3    H228719   0.532   1.594   1.690  0.3009  0.6612 -0.9640
 2410TIP3   OH228720   1.157   5.147   2.181 -0.2289 -0.0878 -0.4193
 2410TIP3    H128721   1.089   5.186   2.127  0.0367 -0.6941 -1.2047
 2410TIP3    H228722   1.168   5.208   2.254 -1.6314 -0.0094 -0.2574
 2411TIP3   OH228723   6.267   1.602  17.009  0.3766 -0.5131 -0.0568
 2411TIP3    H128724   6.237   1.617  17.099  0.5229 -1.0707  0.0903
 2411TIP3    H228725   6.216   1.663  16.956 -0.3955 -0.8295  0.2991
 2412TIP3   OH228726   0.534   4.710  12.887  0.6061 -0.2982  0.1766
 2412TIP3    H128727   0.438   4.718  12.886  0.6315  0.0489  0.3388
 2412TIP3    H228728   0.550   4.619  12.912  0.3081 -0.6179 -0.7753
 2413TIP3   OH228729   3.447   1.088  14.735  0.1761  0.0314  0.5256
 2413TIP3    H128730   3.421   1.140  14.659  1.1051  1.5596  1.2152
 2413TIP3    H228731   3.529   1.045  14.708 -0.5890 -1.1182 -0.0428
 2414TIP3   OH228732   0.893   4.279  15.688  0.1198 -0.4343  0.3721
 2414TIP3    H128733   0.853   4.201  15.649 -0.7880 -0.7434  1.8528
 2414TIP3    H228734   0.831   4.307  15.755  1.9839 -0.4131  2.1695
 2415TIP3   OH228735   2.517   3.951   3.209  0.3470  0.2704  0.1266
 2415TIP3    H128736   2.575   4.027   3.199  1.0271 -0.3393 -0.7001
 2415TIP3    H228737   2.465   3.950   3.129 -0.8901  0.8515  0.8913
 2416TIP3   OH228738   1.222   2.788  16.438  0.0980  0.0241  0.2827
 2416TIP3    H128739   1.295   2.839  16.402  0.3422  0.2469  1.0643
 2416TIP3    H228740   1.259   2.744  16.515 -0.2189 -1.0174 -0.1510
 2417TIP3   OH228741   2.486   0.447   1.826 -0.0205 -0.2832 -0.5264
 2417TIP3    H128742   2.564   0.484   1.785  0.3057 -1.5438 -1.0756
 2417TIP3    H228743   2.505   0.451   1.920 -1.3310  3.8955 -0.2197
 2418TIP3   OH228744   6.154   3.894   0.928  0.0407  0.1418 -0.4672
 2418TIP3    H128745   6.067   3.878   0.962  0.4190 -0.0251  0.4438
 2418TIP3    H228746   6.160   3.839   0.850 -0.5065 -0.1876 -0.2756
 2419TIP3   OH228747   3.231   6.813   2.473  0.1368 -0.0655 -0.2542
 2419TIP3    H128748   3.217   6.892   2.421  3.1664  1.6729  1.3131
 2419TIP3    H228749   3.143   6.778   2.487 -1.3187  2.8656 -1.2676
 2420TIP3   OH228750   1.145   1.599  15.471  0.2312 -0.2418 -0.7874
 2420TIP3    H128751   1.124   1.620  15.562 -1.0195  1.8476 -1.4912
 2420TIP3    H228752   1.124   1.506  15.462 -3.6939  0.3731  0.0589
 2421TIP3   OH228753   1.029   0.578   3.439 -0.0658 -0.5186  0.2928
 2421TIP3    H128754   1.033   0.483   3.453 -3.2653 -0.5878  1.6876
 2421TIP3    H228755   1.084   0.614   3.508 -0.1601 -1.3434  0.8228
 2422TIP3   OH228756   0.804   1.455   3.204  0.2764  0.0729  0.1196
 2422TIP3    H128757   0.894   1.443   3.235  0.1250 -1.0872  0.1763
 2422TIP3    H228758   0.794   1.392   3.133 -0.8814 -0.8126  1.0061
 2423TIP3   OH228759   4.150   3.795   3.636 -0.0490 -0.2372  0.0047
 2423TIP3    H128760   4.213   3.797   3.564  0.6298  0.1468  0.6033
 2423TIP3    H228761   4.125   3.703   3.644  0.2220 -0.3494 -0.4129
 2424TIP3   OH228762   0.225   4.788   5.599 -0.0538  0.7233 -0.0242
 2424TIP3    H128763   0.180   4.723   5.545  0.4511 -0.2588  0.7094
 2424TIP3    H228764   0.318   4.779   5.576 -0.0175  1.4528 -0.1916
 2425TIP3   OH228765   3.867   6.493  14.156  0.2213 -0.5464 -0.1899
 2425TIP3    H128766   3.909   6.557  14.213 -0.5120 -0.3322  0.1203
 2425TIP3    H228767   3.845   6.542  14.076  1.6211 -0.9455 -0.8410
 2426TIP3   OH228768   5.642   3.433  12.070  0.2134  0.5877 -0.1418
 2426TIP3    H128769   5.582   3.507  12.071 -0.2091  0.2436  0.8366
 2426TIP3    H228770   5.662   3.417  12.162 -1.6223 -2.0492 -0.0939
 2427TIP3   OH228771   5.656   6.794  10.338  0.0427 -0.1472  0.5340
 2427TIP3    H128772   5.646   6.706  10.300  0.1422  0.6269 -1.3610
 2427TIP3    H228773   5.606   6.789  10.420 -0.3383 -1.8321  0.2523
 2428TIP3   OH228774   1.366   6.500   6.050 -0.1957 -0.4244  0.3506
 2428TIP3    H128775   1.439   6.442   6.030 -0.5302 -1.5210  2.1330
 2428TIP3    H228776   1.359   6.499   6.145 -0.7253  1.9520  0.3998
 2429TIP3   OH228777   5.580   4.283   5.402  0.0690  0.8379 -0.5614
 2429TIP3    H128778   5.598   4.189   5.400 -4.5409 -0.2545 -0.9295
 2429TIP3    H228779   5.570   4.303   5.495 -0.9866  0.4229 -0.5711
 2430TIP3   OH228780   4.334   1.320  13.208 -0.0217 -0.9515 -0.9577
 2430TIP3    H128781   4.376   1.354  13.128  0.9433 -1.5404 -0.7100
 2430TIP3    H228782   4.365   1.379  13.277 -0.5486 -0.6793 -0.9499
 2431TIP3   OH228783   5.141   4.602   4.595 -0.1827 -0.1113  0.0207
 2431TIP3    H128784   5.149   4.666   4.524 -1.6358 -0.7320 -0.7462
 2431TIP3    H228785   5.076   4.539   4.564 -2.5465  0.7565  2.7635
 2432TIP3   OH228786   1.818   2.243   2.159 -0.1509 -0.0973 -0.3266
 2432TIP3    H128787   1.805   2.179   2.089 -0.1444  0.3291 -0.7222
 2432TIP3    H228788   1.779   2.324   2.125  0.1954  0.2119  0.0066
 2433TIP3   OH228789   4.827   4.539   5.415  0.8811  0.3855 -0.0744
 2433TIP3    H128790   4.745   4.555   5.461  0.5829  1.4465 -0.9359
 2433TIP3    H228791   4.806   4.553   5.322  1.8289 -0.1830 -0.3894
 2434TIP3   OH228792   3.518   0.166   2.711 -0.4065  0.0041  0.1250
 2434TIP3    H128793   3.565   0.174   2.794  0.0324  0.0313 -0.1216
 2434TIP3    H228794   3.578   0.204   2.646 -0.5361 -0.4598 -0.2730
 2435TIP3   OH228795   2.657   6.412  16.455  0.0282 -0.1995  0.2097
 2435TIP3    H128796   2.566   6.422  16.428  0.3963  0.8514 -0.6986
 2435TIP3    H228797   2.658   6.442  16.546 -0.5325 -0.2165  0.2243
 2436TIP3   OH228798   3.380   3.773   5.734  0.3889  0.4454 -0.0850
 2436TIP3    H128799   3.401   3.712   5.804  0.0552  0.3397 -0.0763
 2436TIP3    H228800   3.315   3.832   5.771  0.3821  0.5332 -0.2326
 2437TIP3   OH228801   4.135   1.374  12.226  0.6779 -0.0813 -0.7525
 2437TIP3    H128802   4.132   1.451  12.170  0.7810 -0.7895 -1.7658
 2437TIP3    H228803   4.044   1.363  12.256  0.9874  1.4742  0.9157
 2438TIP3   OH228804   4.731   1.047  11.329 -0.2553  0.3649 -0.1300
 2438TIP3    H128805   4.764   0.958  11.338  0.3564  0.7873  2.7774
 2438TIP3    H228806   4.672   1.058  11.404 -0.2395  2.4160 -0.3613
 2439TIP3   OH228807   6.748   4.104   0.193 -0.5518 -0.1989 -0.5144
 2439TIP3    H128808   6.762   4.024   0.142  3.0377 -1.4756  2.0947
 2439TIP3    H228809   6.799   4.170   0.147 -1.7345  0.0840 -1.4630
 2440TIP3   OH228810   3.920   4.592   2.600  0.4557  0.5600 -0.2065
 2440TIP3    H128811   3.861   4.584   2.675  0.1448  0.4235 -0.4624
 2440TIP3    H228812   3.961   4.678   2.611 -0.1419  0.8550 -0.2787
 2441TIP3   OH228813   5.097   3.262  12.407  0.3066  0.2860  0.1973
 2441TIP3    H128814   5.185   3.285  12.378  0.4371 -0.4800 -0.0407
 2441TIP3    H228815   5.070   3.335  12.464 -0.3810  2.3774 -2.6160
 2442TIP3   OH228816   5.774   0.121  14.339 -0.0401  0.4587  0.3526
 2442TIP3    H128817   5.729   0.052  14.290  1.1147  0.0591 -0.1839
 2442TIP3    H228818   5.853   0.138  14.288  0.9006  0.4683  1.7589
 2443TIP3   OH228819   4.349   2.175   2.541  0.2373  0.5637 -0.4821
 2443TIP3    H128820   4.398   2.184   2.459  0.8030 -0.9015 -0.3440
 2443TIP3    H228821   4.341   2.080   2.554  1.1073  0.7109  1.6862
 2444TIP3   OH228822   6.655   2.518   4.810 -0.3448 -0.4994  0.0791
 2444TIP3    H128823   6.649   2.613   4.820 -1.2063 -0.5914  0.5280
 2444TIP3    H228824   6.705   2.489   4.886 -0.8637 -0.4921  0.4268
 2445TIP3   OH228825   4.528   2.220  15.344  0.2989 -0.0381  0.1735
 2445TIP3    H128826   4.503   2.219  15.437 -1.0632 -0.7664 -0.1770
 2445TIP3    H228827   4.544   2.312  15.325  4.0892 -0.1277  1.9701
 2446TIP3   OH228828   1.852   0.854   1.991  0.1690 -0.1756 -0.1946
 2446TIP3    H128829   1.855   0.771   1.943 -0.9902  0.2223 -0.9878
 2446TIP3    H228830   1.889   0.918   1.931  1.2029 -0.1213  0.4754
 2447TIP3   OH228831   5.736   5.375  12.187 -0.6073 -0.2603  0.4826
 2447TIP3    H128832   5.809   5.327  12.226 -0.4561  0.8666  1.6809
 2447TIP3    H228833   5.740   5.355  12.094  0.5452 -1.1075  0.6968
 2448TIP3   OH228834   1.065   1.181  11.997  0.2166 -0.5731 -0.6188
 2448TIP3    H128835   1.134   1.220  11.943  0.9061  0.8447  1.1686
 2448TIP3    H228836   0.996   1.247  11.999  0.6096 -0.1566  0.9486
 2449TIP3   OH228837   2.263   3.399   3.360 -0.3368 -0.4094 -0.1588
 2449TIP3    H128838   2.302   3.314   3.340  1.0692  0.1411  0.1748
 2449TIP3    H228839   2.332   3.449   3.403 -1.5058  0.4929  0.7698
 2450TIP3   OH228840   6.171   2.455  11.110  0.2885  0.6832  0.0510
 2450TIP3    H128841   6.162   2.479  11.017  1.3684 -1.5984 -0.7069
 2450TIP3    H228842   6.261   2.479  11.132  0.6999 -0.6470 -0.1143
 2451TIP3   OH228843   2.443   2.668   4.035  0.2697 -0.2608 -0.2203
 2451TIP3    H128844   2.502   2.705   3.969  0.7446  0.7906  0.7448
 2451TIP3    H228845   2.362   2.717   4.024  0.1613 -0.4783 -0.3918
 2452TIP3   OH228846   5.076   2.859   1.744 -0.4750  0.4109 -0.0829
 2452TIP3    H128847   5.158   2.850   1.695 -1.5826 -1.7514 -1.6998
 2452TIP3    H228848   5.078   2.787   1.807 -1.2291  0.1984 -0.2968
 2453TIP3   OH228849   4.522   4.412  11.286 -0.5863  0.4917  0.1461
 2453TIP3    H128850   4.443   4.397  11.339 -0.5870  1.1229  0.3263
 2453TIP3    H228851   4.493   4.470  11.216 -0.1299  1.3006  0.6127
 2454TIP3   OH228852   3.755   4.846   4.976 -0.2152  0.1596 -0.1567
 2454TIP3    H128853   3.807   4.921   5.004  1.7166 -1.2867  0.3674
 2454TIP3    H228854   3.819   4.775   4.965 -2.1035 -1.8780  1.0115
 2455TIP3   OH228855   2.382   4.220   3.603 -0.1308 -0.2009 -0.2333
 2455TIP3    H128856   2.428   4.153   3.653  1.4122  0.6957 -0.3755
 2455TIP3    H228857   2.370   4.182   3.516 -2.1696 -1.4886  0.5616
 2456TIP3   OH228858   4.016   6.162  10.577  0.1228  0.0834 -0.8261
 2456TIP3    H128859   4.078   6.209  10.521  1.6750  1.7338  2.0534
 2456TIP3    H228860   3.985   6.227  10.639  0.0315 -1.9971  1.4693
 2457TIP3   OH228861   6.588   4.894  12.061  0.0150 -0.3597  0.4452
 2457TIP3    H128862   6.644   4.942  12.122 -0.2671  0.7303 -0.1309
 2457TIP3    H228863   6.562   4.815  12.109  2.0726 -0.9235  0.6866
 2458TIP3   OH228864   4.943   1.824  14.858 -0.1494  0.2321  0.3675
 2458TIP3    H128865   4.956   1.865  14.772 -0.1300 -0.7103 -0.0880
 2458TIP3    H228866   4.851   1.800  14.859  0.0380 -0.5219  0.2581
 2459TIP3   OH228867   2.426   0.245   1.310 -0.0214 -0.7116  0.1484
 2459TIP3    H128868   2.347   0.214   1.354 -0.2102 -0.5743 -0.0930
 2459TIP3    H228869   2.453   0.322   1.360 -0.8383  0.0785 -0.6052
 2460TIP3   OH228870   3.419   0.409   5.417 -0.1829 -0.3797 -0.8038
 2460TIP3    H128871   3.388   0.416   5.508 -2.2686 -0.4084 -1.4492
 2460TIP3    H228872   3.446   0.317   5.409 -1.0402 -0.6726 -0.5010
 2461TIP3   OH228873   3.515   0.205  12.145  0.3565 -0.2469 -0.3185
 2461TIP3    H128874   3.504   0.206  12.050 -1.4272 -1.7535 -0.1742
 2461TIP3    H228875   3.479   0.289  12.174  1.6542  0.5824 -0.9928
 2462TIP3   OH228876   4.507   5.820   6.426 -0.0881 -0.0621 -0.1981
 2462TIP3    H128877   4.459   5.858   6.499  0.1292 -0.1813  0.0063
 2462TIP3    H228878   4.458   5.741   6.404  0.0384 -0.2059  0.0371
 2463TIP3   OH228879   0.743   0.928  15.457 -0.2783  0.6072  0.1392
 2463TIP3    H128880   0.734   0.835  15.440 -0.0024  0.8448 -1.5416
 2463TIP3    H228881   0.822   0.954  15.409  0.0425  1.5789  1.1485
 2464TIP3   OH228882   5.904   4.951   2.280 -0.2911  0.0285  0.5072
 2464TIP3    H128883   5.834   4.900   2.321 -0.4703 -0.4509 -0.3755
 2464TIP3    H228884   5.984   4.918   2.320 -0.5765  1.0886  2.0760
 2465TIP3   OH228885   1.667   1.321   0.336 -0.2179  0.2653  0.2064
 2465TIP3    H128886   1.576   1.305   0.360  0.3428  0.2114  2.6726
 2465TIP3    H228887   1.713   1.243   0.366  0.6435  0.2996 -0.9900
 2466TIP3   OH228888   5.808   4.684  14.679  0.0813 -0.1311  0.2551
 2466TIP3    H128889   5.904   4.681  14.684  0.2984  2.5208 -0.4665
 2466TIP3    H228890   5.784   4.760  14.732 -1.5786 -0.3345 -0.1374
 2467TIP3   OH228891   2.066   3.698   0.033  0.4809  0.7558 -0.5700
 2467TIP3    H128892   2.137   3.655  -0.014 -1.2095 -3.2717  0.1041
 2467TIP3    H228893   2.072   3.664   0.122 -2.1781  0.2995 -0.4895
 2468TIP3   OH228894   4.627   3.548   2.298  0.0704 -0.1133  0.1362
 2468TIP3    H128895   4.573   3.604   2.243  1.5834 -0.2073 -1.5169
 2468TIP3    H228896   4.694   3.606   2.334  0.1105 -0.3797  0.5053
 2469TIP3   OH228897   2.532   6.657   1.830 -0.1817  0.0639 -0.0052
 2469TIP3    H128898   2.516   6.575   1.783  0.0442  0.1247 -0.1892
 2469TIP3    H228899   2.602   6.636   1.892 -0.7150 -0.1090  0.5512
 2470TIP3   OH228900   2.873   2.033   3.817 -0.5652 -0.0944  0.1311
 2470TIP3    H128901   2.914   2.042   3.904 -0.8273 -0.0221  0.2474
 2470TIP3    H228902   2.945   2.045   3.755 -0.5322  0.7253  0.3209
 2471TIP3   OH228903   1.849   1.930   3.308  0.5666  0.1543  0.2045
 2471TIP3    H128904   1.802   1.857   3.266  1.1193  1.0422 -2.0954
 2471TIP3    H228905   1.929   1.890   3.343 -0.6126 -0.8905  1.9266
 2472TIP3   OH228906   2.051   4.005  11.348 -0.2189 -0.1496  0.8010
 2472TIP3    H128907   2.104   4.084  11.337 -0.5059 -0.0155  0.3508
 2472TIP3    H228908   2.090   3.941  11.288 -2.6647  1.0252 -2.3065
 2473TIP3   OH228909   4.673   5.811  16.906  0.3951 -0.5006 -0.0527
 2473TIP3    H128910   4.643   5.786  16.993  1.5609 -2.7958 -0.2330
 2473TIP3    H228911   4.613   5.766  16.846  0.3840  0.0203 -0.4404
 2474TIP3   OH228912   6.681   5.744   4.380  0.7433  0.1320 -0.3835
 2474TIP3    H128913   6.659   5.678   4.314  2.4629  0.4376 -1.3296
 2474TIP3    H228914   6.690   5.825   4.330 -0.4916  0.9438  0.6440
 2475TIP3   OH228915   3.852   6.045  10.886  0.3933  0.2321  0.5277
 2475TIP3    H128916   3.824   5.954  10.883 -1.6150  0.7249  2.0787
 2475TIP3    H228917   3.825   6.082  10.802  0.4720 -0.3770  0.2286
 2476TIP3   OH228918   6.542   1.494   0.225 -0.2547 -0.1905 -0.2595
 2476TIP3    H128919   6.470   1.493   0.289 -1.3147  1.0140 -1.3855
 2476TIP3    H228920   6.499   1.481   0.141  0.8858  0.3955 -0.9460
 2477TIP3   OH228921   0.965   3.918   4.183  0.2762  0.1443 -0.2750
 2477TIP3    H128922   1.045   3.930   4.235  0.2527 -1.0064  0.0518
 2477TIP3    H228923   0.993   3.864   4.109 -0.7699 -3.1098  1.5141
 2478TIP3   OH228924   6.631   1.400   2.002  0.2684  0.2881  0.1646
 2478TIP3    H128925   6.608   1.395   1.909 -0.8746 -0.1061  0.4464
 2478TIP3    H228926   6.583   1.476   2.034  0.2753  0.1432  0.5228
 2479TIP3   OH228927   4.985   6.306  15.634 -0.2883  0.2619  0.0761
 2479TIP3    H128928   4.904   6.255  15.641  0.1278 -0.2813  1.2612
 2479TIP3    H228929   5.038   6.258  15.570 -1.0411  0.8499 -1.0253
 2480TIP3   OH228930   4.672   3.856  17.175  0.0737 -0.1442  0.5097
 2480TIP3    H128931   4.681   3.946  17.205  0.0302  0.0212  0.0367
 2480TIP3    H228932   4.579   3.836  17.188 -0.0544  0.1092 -0.0213
 2481TIP3   OH228933   5.329   5.740  11.504 -0.2109  0.3910 -0.4675
 2481TIP3    H128934   5.291   5.827  11.517 -2.4564 -0.3994 -1.2824
 2481TIP3    H228935   5.351   5.738  11.410 -0.4892 -0.0391 -0.5240
 2482TIP3   OH228936   5.674   4.199  15.335 -0.1164 -0.1050 -0.0208
 2482TIP3    H128937   5.664   4.294  15.328  0.6362  0.0728  1.0955
 2482TIP3    H228938   5.588   4.164  15.313 -0.9738  0.9370  1.4900
 2483TIP3   OH228939   3.516   5.905   5.708 -0.2210 -0.2143  0.0429
 2483TIP3    H128940   3.605   5.890   5.740 -0.9415 -1.8180  1.4633
 2483TIP3    H228941   3.526   5.970   5.638  1.8379  0.9963  1.3485
 2484TIP3   OH228942   1.595   4.644  13.774  0.6342  0.1926  0.2224
 2484TIP3    H128943   1.654   4.622  13.702  0.0844 -0.7408  0.0488
 2484TIP3    H228944   1.552   4.562  13.796 -1.5961  1.0886 -0.5183
 2485TIP3   OH228945   4.826   1.753   0.672 -0.4524  0.2825 -0.1930
 2485TIP3    H128946   4.875   1.679   0.636 -0.8856 -0.0254 -0.1517
 2485TIP3    H228947   4.785   1.795   0.596 -2.4373 -1.1337  0.0197
 2486TIP3   OH228948   3.334   1.563   0.658  0.3111 -0.0518  0.5577
 2486TIP3    H128949   3.299   1.475   0.641 -0.4152  0.4350 -0.5643
 2486TIP3    H228950   3.306   1.615   0.583  0.0201  1.3628  1.6052
 2487TIP3   OH228951   6.222   4.938   1.141 -0.0362 -0.0549  0.0488
 2487TIP3    H128952   6.232   4.916   1.233  2.0475  1.7416  0.3336
 2487TIP3    H228953   6.208   4.854   1.097 -0.2436 -1.0255  1.8895
 2488TIP3   OH228954   5.958   0.221  11.611  0.4969  0.1196  0.3220
 2488TIP3    H128955   5.987   0.223  11.702  0.5105  2.2783  0.3239
 2488TIP3    H228956   6.023   0.168  11.565  0.1517 -1.5168  1.6429
 2489TIP3   OH228957   5.402   3.266  14.322  0.1750  0.0445 -0.0642
 2489TIP3    H128958   5.478   3.208  14.330  0.5281  0.1138 -2.4016
 2489TIP3    H228959   5.439   3.352  14.306 -0.3843  0.3048  0.0217
 2490TIP3   OH228960   3.334   5.786  12.262  0.2950  0.3340 -0.4750
 2490TIP3    H128961   3.268   5.733  12.306  1.5379 -0.0322  1.0363
 2490TIP3    H228962   3.291   5.869  12.244 -0.5890  0.0821  0.4089
 2491TIP3   OH228963   2.575   5.951  14.153  0.3575 -0.0493  0.2943
 2491TIP3    H128964   2.628   6.018  14.109 -1.4194  1.6407  0.5776
 2491TIP3    H228965   2.581   5.875  14.095  1.2550  0.8329 -0.8341
 2492TIP3   OH228966   2.867   2.279   2.897  0.0271 -0.1568  0.2293
 2492TIP3    H128967   2.878   2.255   2.805 -0.9521  1.3334 -0.3264
 2492TIP3    H228968   2.879   2.374   2.898 -0.0719 -0.1363  1.6270
 2493TIP3   OH228969   0.505   4.436   0.852  0.2800  0.3335  0.3720
 2493TIP3    H128970   0.472   4.381   0.781 -3.9900  2.3894  0.4180
 2493TIP3    H228971   0.496   4.526   0.818 -0.1682  1.2874  2.8327
 2494TIP3   OH228972   6.678   2.607  10.867  0.2143  0.3417  0.3138
 2494TIP3    H128973   6.678   2.511  10.866 -1.6381  0.2807 -1.4283
 2494TIP3    H228974   6.586   2.630  10.880  0.3449  1.8353 -1.0641
 2495TIP3   OH228975   1.862   6.576   5.579  0.6016 -0.0759  0.0226
 2495TIP3    H128976   1.902   6.654   5.540  0.4565  0.1910  0.4019
 2495TIP3    H228977   1.793   6.611   5.635 -1.4140 -0.5865 -2.0192
 2496TIP3   OH228978   6.784   4.727  11.321 -0.0540  0.2981 -0.8961
 2496TIP3    H128979   6.729   4.673  11.264  0.2422 -0.5375 -0.4017
 2496TIP3    H228980   6.791   4.811  11.274  0.2078 -0.3735 -2.1181
 2497TIP3   OH228981   2.851   6.711  16.845  0.0030  0.1651 -0.2563
 2497TIP3    H128982   2.806   6.771  16.905 -2.7668 -0.1105 -1.9031
 2497TIP3    H228983   2.927   6.760  16.815  1.0186  0.6092  2.7766
 2498TIP3   OH228984   1.704   1.286   3.449  0.3589 -0.5019  0.4412
 2498TIP3    H128985   1.663   1.343   3.514  2.4933  0.2998  1.1659
 2498TIP3    H228986   1.764   1.343   3.401  1.5250 -1.8283  0.2411
 2499TIP3   OH228987   1.431   4.719   3.817  0.6410  0.0689  0.0021
 2499TIP3    H128988   1.349   4.695   3.774  0.0509  1.4042  0.3400
 2499TIP3    H228989   1.443   4.652   3.884  0.2613 -0.5964 -0.5688
 2500TIP3   OH228990   3.894   0.025  12.931  0.2037  0.0065  0.0274
 2500TIP3    H128991   3.974   0.077  12.938  0.2309 -0.1973  1.9319
 2500TIP3    H228992   3.833   0.079  12.881  0.7593  1.1740  0.5826
 2501TIP3   OH228993   0.472   3.187  13.239 -0.7107  0.8852  0.1680
 2501TIP3    H128994   0.500   3.123  13.305  1.6577  0.6530 -0.9291
 2501TIP3    H228995   0.500   3.149  13.155 -1.6881  2.1441 -0.7768
 2502TIP3   OH228996   1.793   6.383  12.267 -0.2249 -0.1405  0.3151
 2502TIP3    H128997   1.745   6.413  12.189 -0.7481  0.3544  0.8213
 2502TIP3    H228998   1.735   6.403  12.340  0.4966 -0.0990  0.8845
 2503TIP3   OH228999   0.360   5.724   4.659 -0.4492 -0.1916  0.1526
 2503TIP3    H129000   0.368   5.804   4.607  0.8820 -0.6791 -0.4557
 2503TIP3    H229001   0.277   5.733   4.705 -0.0929  1.8067  0.5317
 2504TIP3   OH229002   6.592   0.499   2.116  0.5922 -0.0600  0.9465
 2504TIP3    H129003   6.538   0.421   2.128  0.5090  0.3183  3.6920
 2504TIP3    H229004   6.677   0.466   2.086 -0.2905 -0.9013 -0.7168
 2505TIP3   OH229005   1.539   5.504   5.822  0.2748 -0.2501  0.3899
 2505TIP3    H129006   1.529   5.583   5.769 -2.5861  0.8206  2.2743
 2505TIP3    H229007   1.500   5.435   5.769  1.1821 -0.0733 -0.5415
 2506TIP3   OH229008   5.759   2.507   0.409  0.0529 -0.4602 -0.3110
 2506TIP3    H129009   5.751   2.510   0.313 -2.1803 -0.4474 -0.1657
 2506TIP3    H229010   5.731   2.593   0.438  2.0958  0.0525  0.3444
 2507TIP3   OH229011   5.357   0.425   3.435  0.4577 -0.2383 -0.1882
 2507TIP3    H129012   5.272   0.442   3.396 -0.2955  0.5016  1.6566
 2507TIP3    H229013   5.420   0.466   3.375 -0.4790 -0.5263 -1.4127
 2508TIP3   OH229014   0.589   1.625  16.811 -0.4228 -0.2605  0.3786
 2508TIP3    H129015   0.494   1.633  16.804 -0.6813  0.4012  3.3724
 2508TIP3    H229016   0.622   1.710  16.781 -0.9886  0.4085  1.5653
 2509TIP3   OH229017   1.678   1.300  11.282 -0.1626  0.5539 -0.1622
 2509TIP3    H129018   1.635   1.363  11.224 -1.6831  1.7852  2.1319
 2509TIP3    H229019   1.720   1.354  11.349  1.1880 -0.8081  0.1475
 2510TIP3   OH229020   0.528   5.065   1.288  0.4171 -0.1952  0.9195
 2510TIP3    H129021   0.610   5.030   1.254  0.3687  0.8649 -0.3825
 2510TIP3    H229022   0.550   5.098   1.375  0.9618 -1.4087  1.2694
 2511TIP3   OH229023   4.068   0.963   5.193  0.2984 -0.1730  0.2370
 2511TIP3    H129024   4.043   1.054   5.211  1.1087  1.1552 -4.2782
 2511TIP3    H229025   4.161   0.959   5.215  0.6766  0.6414 -1.1227
 2512TIP3   OH229026   4.407   3.999  15.392  0.4807  0.6350  0.0749
 2512TIP3    H129027   4.443   4.078  15.433 -0.1620  0.4438  1.0423
 2512TIP3    H229028   4.460   3.927  15.427 -1.6411  0.1745  2.7035
 2513TIP3   OH229029   3.594   6.484  14.256 -0.1927 -0.5740 -0.5289
 2513TIP3    H129030   3.600   6.413  14.321  1.4639 -0.8336 -0.9346
 2513TIP3    H229031   3.679   6.483  14.212  0.3782  2.4984  0.3088
 2514TIP3   OH229032   1.807   0.350   0.901  0.5383  0.6527  0.3296
 2514TIP3    H129033   1.715   0.323   0.896  1.4409 -2.7269  0.1577
 2514TIP3    H229034   1.811   0.406   0.980 -1.5108  0.3143  0.7284
 2515TIP3   OH229035   1.107   2.024  12.236  0.0572 -0.3381 -0.2995
 2515TIP3    H129036   1.106   2.096  12.173  1.0566  0.2768  0.3640
 2515TIP3    H229037   1.179   1.968  12.206 -0.0891 -0.5513 -0.2516
 2516TIP3   OH229038   2.081   2.260   2.733  0.5808 -0.4775  0.4969
 2516TIP3    H129039   2.033   2.214   2.665 -0.2773  1.1718 -0.0573
 2516TIP3    H229040   2.097   2.194   2.801 -1.1242 -1.4255  0.0092
 2517TIP3   OH229041   0.093   3.946   5.177  0.0947  0.1572 -0.1549
 2517TIP3    H129042   0.106   3.887   5.103 -0.5946 -1.0188  0.6238
 2517TIP3    H229043   0.180   3.983   5.194  0.4872 -0.4282 -0.8215
 2518TIP3   OH229044   5.114   1.220  13.593 -0.2543  0.4809 -0.1425
 2518TIP3    H129045   5.082   1.240  13.681 -0.2833  0.8720 -0.2367
 2518TIP3    H229046   5.195   1.171  13.607 -0.4672  0.1984  0.0993
 2519TIP3   OH229047   0.037   3.092   2.351  0.3272 -0.3479  0.2832
 2519TIP3    H129048  -0.034   3.143   2.311  0.4650 -0.2970  0.1013
 2519TIP3    H229049   0.116   3.125   2.309  0.4977 -0.1391  0.7620
 2520TIP3   OH229050   5.650   2.577   3.293  0.0139 -0.6540 -0.7281
 2520TIP3    H129051   5.742   2.589   3.316 -0.3191 -0.4193  0.5761
 2520TIP3    H229052   5.650   2.506   3.229  0.9531 -2.0015  0.7020
 2521TIP3   OH229053   3.129   4.754   4.026 -0.1311 -1.0283  0.4495
 2521TIP3    H129054   3.118   4.685   3.962 -0.5218  0.6633 -1.4005
 2521TIP3    H229055   3.217   4.789   4.009 -1.0501  0.8747 -0.7519
 2522TIP3   OH229056   5.836   2.694  16.998  0.4301 -0.2268 -0.3436
 2522TIP3    H129057   5.826   2.599  17.000  1.8763 -0.4077 -0.6226
 2522TIP3    H229058   5.921   2.709  16.956  0.6941  1.1555  0.6017
 2523TIP3   OH229059   3.192   5.813  11.295 -0.6638  0.8862 -0.5802
 2523TIP3    H129060   3.177   5.729  11.338  2.3161 -0.4626 -1.8607
 2523TIP3    H229061   3.139   5.810  11.215  2.0539 -1.5090 -2.4795
 2524TIP3   OH229062   2.220   1.282   3.123  0.8961 -0.2302  0.0020
 2524TIP3    H129063   2.297   1.254   3.074  1.4490 -1.0191  1.2696
 2524TIP3    H229064   2.223   1.232   3.204 -1.0405 -0.3974  0.0355
 2525TIP3   OH229065   3.576   6.825  15.303 -0.5823  0.1458  0.2028
 2525TIP3    H129066   3.580   6.736  15.268  1.0474  0.6699 -1.0324
 2525TIP3    H229067   3.482   6.842  15.312 -1.0153 -0.8541 -1.7735
 2526TIP3   OH229068   2.378   1.361  15.595 -0.1827  0.1274  0.1095
 2526TIP3    H129069   2.314   1.305  15.640 -0.1596 -0.1708 -0.2227
 2526TIP3    H229070   2.394   1.316  15.512  0.3218  0.2987  0.1158
 2527TIP3   OH229071   1.990   6.288  11.657 -0.5005  0.1794 -0.4124
 2527TIP3    H129072   1.904   6.308  11.692 -0.8147  0.0332 -1.0878
 2527TIP3    H229073   2.009   6.199  11.688  0.2755  0.9013  1.3776
 2528TIP3   OH229074   4.281   6.772   1.252 -0.3386 -0.3347  0.4586
 2528TIP3    H129075   4.275   6.865   1.277 -0.5740  1.1575 -4.2109
 2528TIP3    H229076   4.192   6.739   1.262 -0.3428  0.0106  1.7769
 2529TIP3   OH229077   3.390   0.676   0.608 -0.4780 -0.0699 -0.0202
 2529TIP3    H129078   3.441   0.656   0.687  0.5588  0.5892 -0.5117
 2529TIP3    H229079   3.365   0.768   0.619  1.5691  0.7162 -1.4614
 2530TIP3   OH229080   0.969   3.638   5.123  0.3371  0.2829 -0.5598
 2530TIP3    H129081   0.887   3.662   5.165  0.3001  0.5874 -0.7992
 2530TIP3    H229082   0.991   3.552   5.159  0.5887  0.7754  0.5061
 2531TIP3   OH229083   5.549   4.350   3.213  0.3218  0.8071  0.2683
 2531TIP3    H129084   5.493   4.357   3.290 -1.5892 -0.4369 -0.9197
 2531TIP3    H229085   5.605   4.428   3.217 -0.4740  1.3486  2.2910
 2532TIP3   OH229086   5.858   1.826  10.446  0.0089  0.6961 -0.3979
 2532TIP3    H129087   5.849   1.799  10.355  1.3841  0.5392 -0.5044
 2532TIP3    H229088   5.785   1.784  10.491 -0.9850  1.1899 -1.5033
 2533TIP3   OH229089   1.918   4.550  11.362  0.4202 -0.3541  0.1461
 2533TIP3    H129090   1.913   4.510  11.275  1.0925  0.3219 -0.2157
 2533TIP3    H229091   1.846   4.613  11.363  0.6961 -0.0339 -0.0954
 2534TIP3   OH229092   3.207   2.836   0.738 -0.4765  0.0141 -0.9444
 2534TIP3    H129093   3.281   2.855   0.796 -1.0682  1.9656 -0.7513
 2534TIP3    H229094   3.221   2.892   0.662 -1.0805 -0.5813 -1.5116
 2535TIP3   OH229095   0.035   4.034  14.249 -0.8116 -0.2317  0.1228
 2535TIP3    H129096   0.097   4.094  14.290 -1.7445  0.7368  0.1593
 2535TIP3    H229097  -0.048   4.051  14.293 -1.0961 -1.5727  0.1383
 2536TIP3   OH229098   1.155   3.146  12.884  0.8773  0.4188  0.6495
 2536TIP3    H129099   1.173   3.234  12.852  0.5806  0.1432 -0.2900
 2536TIP3    H229100   1.062   3.132  12.867  0.9493 -0.1233  0.6792
 2537TIP3   OH229101   4.192   5.214   0.655  0.3346  0.6115  0.2983
 2537TIP3    H129102   4.217   5.291   0.603 -0.1776  0.3737 -0.3150
 2537TIP3    H229103   4.248   5.144   0.622 -0.9876  0.1210 -0.9533
 2538TIP3   OH229104   4.283   1.850  15.233  0.1674  0.4619  0.1339
 2538TIP3    H129105   4.248   1.808  15.155  1.4323  1.1368 -0.8362
 2538TIP3    H229106   4.290   1.779  15.297  1.7337 -0.7587 -1.2884
 2539TIP3   OH229107   0.288   2.585   3.190 -0.4253 -0.4121  0.1817
 2539TIP3    H129108   0.216   2.628   3.236 -0.0449  1.1645 -0.6292
 2539TIP3    H229109   0.347   2.554   3.259  0.5635  2.6230  0.8225
 2540TIP3   OH229110   5.909   5.631  15.822 -0.0697 -0.3205  0.4455
 2540TIP3    H129111   5.838   5.603  15.764  0.5324 -1.8094  0.3727
 2540TIP3    H229112   5.905   5.570  15.896  0.8190 -0.1206  0.6660
 2541TIP3   OH229113   4.197   6.185  14.017 -0.6987 -0.2004 -0.0271
 2541TIP3    H129114   4.285   6.219  14.001 -0.0853 -0.6692  1.9896
 2541TIP3    H229115   4.160   6.244  14.083 -0.7101 -1.6979  1.3802
 2542TIP3   OH229116   5.071   4.443   5.361  0.2311  0.0444 -0.0902
 2542TIP3    H129117   5.112   4.509   5.304  1.1910 -0.7427 -0.3478
 2542TIP3    H229118   4.986   4.480   5.383  0.6708  1.2844 -0.3816
 2543TIP3   OH229119   4.602   3.892   6.285  0.4224  0.0201 -0.0155
 2543TIP3    H129120   4.640   3.977   6.263  1.5098 -0.1543  1.0724
 2543TIP3    H229121   4.545   3.909   6.360 -0.6155  0.0371 -0.7816
 2544TIP3   OH229122   4.625   0.697  11.891  0.0013 -0.3362 -0.3951
 2544TIP3    H129123   4.634   0.740  11.806  0.7405 -0.4916 -0.4048
 2544TIP3    H229124   4.706   0.647  11.901  0.7394  1.0703  1.1813
 2545TIP3   OH229125   2.208   4.470   3.349  0.0897 -0.1543  0.0424
 2545TIP3    H129126   2.157   4.427   3.417  1.2342 -1.0733  0.3519
 2545TIP3    H229127   2.274   4.405   3.324  0.6639  0.7420 -0.8409
 2546TIP3   OH229128   0.782   0.498   1.379 -0.1411 -0.5465  0.2046
 2546TIP3    H129129   0.692   0.469   1.388 -0.0157 -1.1081 -0.3374
 2546TIP3    H229130   0.834   0.418   1.382  0.4174 -0.1750  1.3544
 2547TIP3   OH229131   0.654   3.403  12.083 -0.2337  0.3077  0.1348
 2547TIP3    H129132   0.650   3.308  12.074 -0.4284  0.1992  1.1849
 2547TIP3    H229133   0.661   3.435  11.993 -0.6208 -0.6728 -0.2699
 2548TIP3   OH229134   1.292   6.231   5.065 -0.3049  0.1205 -0.0349
 2548TIP3    H129135   1.199   6.247   5.080 -0.5571 -2.1127  1.3293
 2548TIP3    H229136   1.297   6.136   5.049  1.6824  0.2788 -0.6096
 2549TIP3   OH229137   4.855   2.568  10.734  0.2701 -0.2082 -0.6469
 2549TIP3    H129138   4.886   2.486  10.695 -0.3824 -1.1726  0.7901
 2549TIP3    H229139   4.779   2.592  10.681  1.8299  0.8126 -2.5840
 2550TIP3   OH229140   1.274   6.261  15.041  0.0799 -0.0394 -0.2422
 2550TIP3    H129141   1.334   6.192  15.016  1.1442  0.9255 -0.4401
 2550TIP3    H229142   1.212   6.219  15.101  1.1277 -1.0008  0.1970
 2551TIP3   OH229143   2.097   5.452  16.013  0.2867 -0.1580 -0.2042
 2551TIP3    H129144   2.098   5.371  16.064  0.0775 -0.3309 -0.4753
 2551TIP3    H229145   2.179   5.496  16.037  0.5622 -0.6030 -0.3102
 2552TIP3   OH229146   4.612   2.991  13.718  0.1488 -0.2041  0.8186
 2552TIP3    H129147   4.602   2.912  13.771 -0.2745 -0.0918  0.9115
 2552TIP3    H229148   4.545   3.051  13.752  1.1717  0.6016  1.4940
 2553TIP3   OH229149   6.147   2.765   5.043 -0.5046  0.2652  0.1319
 2553TIP3    H129150   6.098   2.745   5.122  0.0969 -1.2146  0.1648
 2553TIP3    H229151   6.225   2.812   5.073 -1.3971  1.8081  0.1602
 2554TIP3   OH229152   5.692   6.575  12.708  0.0162 -0.1203  0.4994
 2554TIP3    H129153   5.724   6.664  12.719 -0.1843 -0.0504  0.5377
 2554TIP3    H229154   5.631   6.581  12.635  0.0580 -0.2402  0.4561
 2555TIP3   OH229155   0.715   2.656   0.011 -0.5061  0.1866  0.0833
 2555TIP3    H129156   0.693   2.742   0.047 -1.0651  0.9047 -1.8649
 2555TIP3    H229157   0.805   2.665  -0.019 -0.6703  0.2154 -0.4138
 2556TIP3   OH229158   1.527   3.352   0.610  0.0795 -0.5033  0.0972
 2556TIP3    H129159   1.477   3.340   0.691  0.6775  0.9196  0.6984
 2556TIP3    H229160   1.460   3.366   0.543 -0.4029 -1.2985  0.3889
 2557TIP3   OH229161   5.151   2.843  12.574 -0.0003 -0.3688  0.3659
 2557TIP3    H129162   5.207   2.779  12.618 -1.4598 -0.3614  2.3735
 2557TIP3    H229163   5.092   2.874  12.643 -0.1730  2.2209 -0.8361
 2558TIP3   OH229164   0.396   5.355   0.369 -0.3931  0.3435  0.0091
 2558TIP3    H129165   0.473   5.407   0.393 -1.0275  1.9278 -1.2384
 2558TIP3    H229166   0.375   5.306   0.448  1.6401  0.1659  0.5086
 2559TIP3   OH229167   5.094   1.404   4.781 -0.1835  0.0485 -0.0610
 2559TIP3    H129168   5.133   1.481   4.823 -0.9689  0.7566 -0.5891
 2559TIP3    H229169   5.168   1.346   4.763  0.5794  1.2003 -0.7306
 2560TIP3   OH229170   4.014   1.021  14.194  0.3988 -0.0280  0.0359
 2560TIP3    H129171   3.994   1.096  14.250 -0.0644 -0.4772  0.4770
 2560TIP3    H229172   4.083   1.053  14.136  0.8511  0.4673  0.8246
 2561TIP3   OH229173   6.307   1.321  15.659  0.3848 -0.6155 -0.4990
 2561TIP3    H129174   6.371   1.280  15.718 -1.7648 -1.6972  1.1935
 2561TIP3    H229175   6.337   1.297  15.571  1.2162 -2.7552  0.3100
 2562TIP3   OH229176   1.908   0.105  11.706  0.2595  0.1112 -0.0772
 2562TIP3    H129177   1.949   0.180  11.663  1.2113 -0.8839 -0.9868
 2562TIP3    H229178   1.947   0.103  11.793  2.1223 -0.7191 -0.8727
 2563TIP3   OH229179   1.593   3.738   3.887  0.2941 -0.2465 -0.1680
 2563TIP3    H129180   1.501   3.734   3.914  0.5648 -1.9015  0.6434
 2563TIP3    H229181   1.591   3.728   3.792 -0.4462  1.5721 -0.3771
 2564TIP3   OH229182   1.006   5.461   0.911  0.1344 -0.3436 -0.2388
 2564TIP3    H129183   0.956   5.542   0.919 -0.4257 -0.6372 -0.7123
 2564TIP3    H229184   1.069   5.478   0.841 -0.0040 -0.3252 -0.3591
 2565TIP3   OH229185   2.401   6.010  12.229 -0.1764  0.4603 -0.7828
 2565TIP3    H129186   2.492   6.023  12.202 -0.3502  1.5834 -0.8989
 2565TIP3    H229187   2.383   6.085  12.287 -0.9637  0.1453 -0.6066
 2566TIP3   OH229188   0.099   0.959  15.366  0.4763 -0.2787  0.0771
 2566TIP3    H129189   0.105   0.941  15.459  0.1751 -0.0534  0.1388
 2566TIP3    H229190   0.159   0.896  15.326  0.8706 -0.1426  0.4485
 2567TIP3   OH229191   3.515   3.774   3.773  0.0516 -0.7101  0.1224
 2567TIP3    H129192   3.532   3.824   3.693 -2.1329  0.0003  0.0121
 2567TIP3    H229193   3.469   3.696   3.743 -0.0759 -0.8300  0.6219
 2568TIP3   OH229194   3.903   0.502  13.060 -0.0540 -0.4372 -0.6025
 2568TIP3    H129195   3.954   0.422  13.051  0.8103  0.0526 -0.1215
 2568TIP3    H229196   3.920   0.551  12.979  0.4158 -0.1800 -0.3522
 2569TIP3   OH229197   4.350   6.492   5.299 -0.1740 -0.5867 -0.1165
 2569TIP3    H129198   4.419   6.431   5.325 -0.1898  0.6085  3.2373
 2569TIP3    H229199   4.394   6.555   5.242  0.7415 -1.6061 -0.5683
 2570TIP3   OH229200   0.289   0.189   3.165  0.0407 -0.6498  0.2303
 2570TIP3    H129201   0.311   0.125   3.097 -0.4742 -1.6233  0.9537
 2570TIP3    H229202   0.194   0.184   3.172  0.0192  0.0345  0.4672
 2571TIP3   OH229203   0.101   1.978   1.905 -0.3636 -0.2977  0.4358
 2571TIP3    H129204   0.165   1.969   1.835 -0.7526  1.0352 -0.1390
 2571TIP3    H229205   0.134   2.051   1.959 -0.8977 -0.2269  0.6838
 2572TIP3   OH229206   0.544   0.133  12.214  0.1093  0.0360  0.1225
 2572TIP3    H129207   0.479   0.067  12.236 -0.3927  0.3583 -0.3824
 2572TIP3    H229208   0.627   0.085  12.211 -0.2586 -0.5737 -0.2857
 2573TIP3   OH229209   0.024   4.994   3.694 -0.3043 -0.4185  0.7277
 2573TIP3    H129210   0.099   4.984   3.752 -0.8157 -1.3398  1.2514
 2573TIP3    H229211   0.054   5.055   3.626  0.8183 -0.5575  1.0800
 2574TIP3   OH229212   1.788   5.652   3.954  0.1060  0.1150  0.5056
 2574TIP3    H129213   1.843   5.659   4.033  0.9316  0.3551 -0.0766
 2574TIP3    H229214   1.791   5.559   3.931  1.8327  0.3838 -0.5793
 2575TIP3   OH229215   0.297   2.661  13.120  0.2056  0.2566 -0.3847
 2575TIP3    H129216   0.202   2.654  13.113  0.2445  0.2123 -0.8824
 2575TIP3    H229217   0.326   2.696  13.036  0.6062  0.5471 -0.1363
 2576TIP3   OH229218   6.453   1.996  12.598  0.1644  0.6187  0.1018
 2576TIP3    H129219   6.437   2.068  12.537  0.3481  0.9879  0.4906
 2576TIP3    H229220   6.544   1.969  12.579  0.5793  1.4192  0.9263
 2577TIP3   OH229221   6.781   4.791  12.508  0.0018 -0.1667 -0.3050
 2577TIP3    H129222   6.760   4.861  12.570 -1.6090 -0.8255 -0.0655
 2577TIP3    H229223   6.696   4.759  12.479  0.6726 -2.5702  0.2030
 2578TIP3   OH229224   5.820   4.007   1.828  0.1644  0.1672  0.0791
 2578TIP3    H129225   5.727   4.026   1.815  0.6112  2.8089  0.1129
 2578TIP3    H229226   5.852   3.982   1.741 -0.6635 -1.4147  0.1974
 2579TIP3   OH229227   4.065   5.682  14.605  0.0126  0.8037  0.2048
 2579TIP3    H129228   4.083   5.655  14.515  2.2796  1.1341  0.5130
 2579TIP3    H229229   4.138   5.738  14.629 -0.9733  1.4103  1.9908
 2580TIP3   OH229230   2.865   0.700  16.650  0.1666  0.4568  0.1557
 2580TIP3    H129231   2.892   0.612  16.675 -0.9780 -0.2244 -0.8673
 2580TIP3    H229232   2.851   0.746  16.732  1.3293 -0.1323  0.6970
 2581TIP3   OH229233   4.720   2.982  16.244  0.6732 -0.2004 -0.4443
 2581TIP3    H129234   4.634   3.007  16.208  0.3799  0.8102  0.8649
 2581TIP3    H229235   4.771   2.957  16.167 -0.8114 -0.9155 -1.2554
 2582TIP3   OH229236   6.425   5.132  13.501  0.6155 -0.5967  0.2329
 2582TIP3    H129237   6.518   5.115  13.521  1.0823  1.1309 -0.3439
 2582TIP3    H229238   6.418   5.227  13.499 -0.7617 -0.6943 -1.6412
 2583TIP3   OH229239   0.894   1.704   5.913 -0.3296 -0.1080  0.0542
 2583TIP3    H129240   0.835   1.684   5.986 -0.4618 -2.2086 -0.5733
 2583TIP3    H229241   0.860   1.653   5.840  1.9374 -0.9775 -0.4764
 2584TIP3   OH229242   5.137   1.028   0.877  0.0784  0.2227  0.0198
 2584TIP3    H129243   5.045   1.055   0.866  0.2757  1.2680  0.8089
 2584TIP3    H229244   5.156   1.043   0.969  0.5299 -1.7126  0.2897
 2585TIP3   OH229245   0.367   4.513  16.915 -0.3783 -0.5376  0.1873
 2585TIP3    H129246   0.330   4.542  16.831  0.4155 -1.6198 -0.5595
 2585TIP3    H229247   0.452   4.556  16.919 -1.9604  2.8034  2.3962
 2586TIP3   OH229248   6.129   5.450  12.435 -0.4674 -0.2932 -0.0379
 2586TIP3    H129249   6.064   5.388  12.402  0.3438 -3.0623  3.0233
 2586TIP3    H229250   6.205   5.395  12.458  1.8223  2.3889 -0.6158
 2587TIP3   OH229251   2.522   4.522   3.491  0.9734 -0.4053 -0.1023
 2587TIP3    H129252   2.439   4.494   3.530  2.2901 -4.7825  0.0126
 2587TIP3    H229253   2.552   4.592   3.549 -0.9182 -1.2270  2.0497
 2588TIP3   OH229254   0.207   1.351   4.572  0.1684  0.0762 -0.2179
 2588TIP3    H129255   0.141   1.352   4.503 -2.1722 -1.6933  1.8054
 2588TIP3    H229256   0.216   1.259   4.596  4.0009  0.1189 -0.7959
 2589TIP3   OH229257   0.442   0.922   3.443 -0.1186 -0.0299  0.1560
 2589TIP3    H129258   0.401   0.932   3.357 -1.3260  1.4749  0.8650
 2589TIP3    H229259   0.439   0.828   3.459 -1.7345 -0.1476 -0.5894
 2590TIP3   OH229260   6.315   5.288  13.832  0.3309 -0.6478  0.5425
 2590TIP3    H129261   6.285   5.340  13.906 -1.6913 -1.2655  0.2042
 2590TIP3    H229262   6.308   5.346  13.757 -0.5014 -0.9283  0.3939
 2591TIP3   OH229263   4.022   2.956   3.702  0.0334 -0.2118  0.5364
 2591TIP3    H129264   4.105   2.917   3.674  0.2469  0.0174  0.8342
 2591TIP3    H229265   3.972   2.884   3.739  0.2525 -0.2809  0.6968
 2592TIP3   OH229266   5.228   6.486   3.377  0.2492 -0.1683 -0.8977
 2592TIP3    H129267   5.167   6.559   3.372 -0.1056 -0.3761  0.0100
 2592TIP3    H229268   5.234   6.467   3.471  0.5388 -1.1262 -1.0982
 2593TIP3   OH229269   4.999   4.937  11.051 -0.2112 -0.3153  0.1139
 2593TIP3    H129270   5.088   4.903  11.059  0.8340  2.3996  0.9245
 2593TIP3    H229271   4.987   4.951  10.957  0.5194  0.0647  0.0741
 2594TIP3   OH229272   1.784   2.290  16.085 -0.2550 -0.5348 -0.4367
 2594TIP3    H129273   1.747   2.238  16.013 -1.2027  2.3148 -2.1761
 2594TIP3    H229274   1.857   2.337  16.046  0.0736  0.0771  0.8517
 2595TIP3   OH229275   4.150   2.684  12.486 -0.3944  0.2924  0.1353
 2595TIP3    H129276   4.158   2.765  12.436  1.3628 -0.8453 -1.5904
 2595TIP3    H229277   4.235   2.673  12.528 -0.8266 -0.3511  0.8693
 2596TIP3   OH229278   4.796   1.473  14.880  0.5639  0.0915 -0.0322
 2596TIP3    H129279   4.880   1.433  14.901  0.5426 -0.3852 -0.8019
 2596TIP3    H229280   4.793   1.473  14.785 -1.6318 -2.8569 -0.0947
 2597TIP3   OH229281   2.986   6.227   1.117  0.1737 -0.1885 -0.3372
 2597TIP3    H129282   2.896   6.236   1.148 -0.1695 -2.2084 -0.6430
 2597TIP3    H229283   2.980   6.170   1.041  1.8461 -1.4991  0.4472
 2598TIP3   OH229284   5.066   4.934   3.150  0.6188 -0.1334  0.9785
 2598TIP3    H129285   4.974   4.921   3.173  0.9064  0.0527  2.3776
 2598TIP3    H229286   5.081   4.877   3.075 -1.0935  1.2520 -0.4976
 2599TIP3   OH229287   0.079   0.621   1.719 -0.1105 -0.0118 -0.0470
 2599TIP3    H129288   0.006   0.662   1.765  1.4000 -0.3005  2.8270
 2599TIP3    H229289   0.038   0.556   1.662 -2.1629  1.1466  0.0239
 2600TIP3   OH229290   5.765   6.064  12.623  0.4228  0.2526 -0.2506
 2600TIP3    H129291   5.695   6.101  12.677  0.3942  0.2261 -0.2692
 2600TIP3    H229292   5.747   5.970  12.621 -0.7870  0.4594 -2.0027
 2601TIP3   OH229293   2.007   0.470  10.803 -0.1554 -0.0436  0.3055
 2601TIP3    H129294   1.973   0.434  10.721  0.1095  1.0116 -0.2944
 2601TIP3    H229295   1.985   0.564  10.798 -0.1946  0.0180  1.4745
 2602TIP3   OH229296   5.949   3.286  11.202 -0.6063 -0.1594  0.0397
 2602TIP3    H129297   5.853   3.291  11.207 -0.6256  0.0830 -0.5444
 2602TIP3    H229298   5.967   3.259  11.113 -0.1811 -2.3341  0.7352
 2603TIP3   OH229299   6.817   4.566  14.009 -1.0955 -0.8528  0.3369
 2603TIP3    H129300   6.790   4.650  13.972  0.5383 -0.7004 -0.5837
 2603TIP3    H229301   6.846   4.514  13.934 -1.6106 -2.0658  0.9499
 2604TIP3   OH229302   5.080   6.441  11.619  0.1173  0.4338 -0.0793
 2604TIP3    H129303   5.095   6.520  11.568  0.4242 -0.4541 -1.4249
 2604TIP3    H229304   5.164   6.423  11.661  0.0467  0.8125  0.2270
 2605TIP3   OH229305   6.835   4.618   2.842  0.4100 -0.5241 -0.9716
 2605TIP3    H129306   6.774   4.547   2.820 -1.0110  0.4409 -0.3446
 2605TIP3    H229307   6.864   4.598   2.930 -0.7874  0.1519 -0.3926
 2606TIP3   OH229308   6.539   5.958   5.752 -0.2479  0.3369 -0.0807
 2606TIP3    H129309   6.448   5.945   5.778  0.1172 -0.2897  0.9426
 2606TIP3    H229310   6.572   5.869   5.736  0.5401  0.4459  0.8597
 2607TIP3   OH229311   4.180   2.553   5.363  0.5322 -0.0713 -0.1206
 2607TIP3    H129312   4.182   2.603   5.445 -0.5886  0.2429 -0.2699
 2607TIP3    H229313   4.155   2.617   5.296  2.3138 -0.1302 -0.8800
 2608TIP3   OH229314   6.724   3.032   2.061 -0.1796  0.4244  0.0631
 2608TIP3    H129315   6.658   3.029   1.992  0.0129 -0.9673 -0.0978
 2608TIP3    H229316   6.685   3.087   2.129 -2.6113 -2.2630  1.0448
 2609TIP3   OH229317   1.313   4.053  11.077  0.1107  0.7085 -0.0007
 2609TIP3    H129318   1.369   3.979  11.056  0.7545  1.4674 -1.0347
 2609TIP3    H229319   1.224   4.020  11.064  0.3441 -0.1614  0.5209
 2610TIP3   OH229320   5.237   6.673  15.010  0.9710 -0.6109  0.0732
 2610TIP3    H129321   5.160   6.665  14.954  2.3293 -2.9509 -1.6308
 2610TIP3    H229322   5.202   6.663  15.099 -0.9973  1.3753 -0.3839
 2611TIP3   OH229323   1.647   5.650   4.783  0.1110  0.2921  0.2446
 2611TIP3    H129324   1.591   5.717   4.744  1.0700  0.7856 -0.3300
 2611TIP3    H229325   1.704   5.621   4.711  1.7400  1.0365  1.1722
 2612TIP3   OH229326   3.579   3.138   5.810  0.4445  0.1185 -0.1020
 2612TIP3    H129327   3.621   3.152   5.895 -1.0620 -0.2766  0.7466
 2612TIP3    H229328   3.628   3.194   5.750  1.1121  0.9423  1.1527
 2613TIP3   OH229329   3.486   1.094   6.873 -0.2989  0.1002 -0.4860
 2613TIP3    H129330   3.552   1.025   6.870  0.4550  0.7565  0.2769
 2613TIP3    H229331   3.403   1.048   6.888  0.4353 -0.5736  2.0823
 2614TIP3   OH229332   0.467   4.918  11.424  0.3049 -0.2336 -0.3677
 2614TIP3    H129333   0.523   4.935  11.349  0.2416  1.8887  0.0041
 2614TIP3    H229334   0.486   4.990  11.485 -0.6286 -1.1435  1.0723
 2615TIP3   OH229335   0.970   0.142   3.106  0.0723 -0.1232  0.0676
 2615TIP3    H129336   0.984   0.113   3.016 -0.8341 -0.3131 -0.0215
 2615TIP3    H229337   0.909   0.215   3.098 -0.6649 -0.6676  0.5797
 2616TIP3   OH229338   1.466   4.660   5.937  0.0355 -0.1975 -0.2289
 2616TIP3    H129339   1.383   4.701   5.915  0.0493  1.7996  2.7684
 2616TIP3    H229340   1.442   4.576   5.975 -0.3921 -0.7343 -1.6506
 2617TIP3   OH229341   0.470   1.327  11.823  0.6130  0.0935  0.8106
 2617TIP3    H129342   0.509   1.270  11.757 -0.5736  1.0891 -0.8190
 2617TIP3    H229343   0.462   1.412  11.781 -0.3791  0.7185  2.1591
 2618TIP3   OH229344   3.443   1.536   0.904 -0.1633 -0.2035 -0.2085
 2618TIP3    H129345   3.381   1.549   0.832 -0.5313  0.4318  0.2144
 2618TIP3    H229346   3.421   1.451   0.940  0.9128 -1.1690 -1.7034
 2619TIP3   OH229347   3.820   6.233   5.355  0.3323 -0.2794  0.2303
 2619TIP3    H129348   3.742   6.239   5.300  1.0714 -0.6499 -0.9085
 2619TIP3    H229349   3.890   6.207   5.294  0.7589 -2.9219  1.6704
 2620TIP3   OH229350   1.268   6.832   4.844 -0.6395 -0.3120 -0.0880
 2620TIP3    H129351   1.239   6.777   4.772 -3.1235  2.1927 -1.2104
 2620TIP3    H229352   1.212   6.806   4.918 -0.8637 -0.2284 -0.2267
 2621TIP3   OH229353   1.065   6.123   3.118 -0.5506  0.3017 -0.2754
 2621TIP3    H129354   1.002   6.077   3.063 -1.4425  1.2990 -0.1286
 2621TIP3    H229355   1.141   6.136   3.062 -0.3332 -1.1736 -0.3709
 2622TIP3   OH229356   5.532   2.987   0.477 -0.0476  0.7668  0.0216
 2622TIP3    H129357   5.551   3.076   0.446 -1.4649  0.7653 -0.9848
 2622TIP3    H229358   5.436   2.984   0.481 -0.0499 -0.8936 -0.5641
 2623TIP3   OH229359   3.529   1.534   5.464  0.4462 -0.0592 -0.1453
 2623TIP3    H129360   3.564   1.465   5.521  1.5578  0.3393 -0.3105
 2623TIP3    H229361   3.490   1.487   5.391  0.0212 -0.5464  0.3845
 2624TIP3   OH229362   4.295   2.842   2.773 -0.1861  0.6322  0.1543
 2624TIP3    H129363   4.230   2.910   2.754 -1.1184 -0.4399 -0.6326
 2624TIP3    H229364   4.272   2.810   2.860 -1.3432 -0.3965 -0.5019
 2625TIP3   OH229365   5.258   6.173  13.498  0.4719 -0.0616  0.6627
 2625TIP3    H129366   5.294   6.253  13.459  0.7685  0.4551  1.9442
 2625TIP3    H229367   5.188   6.147  13.438  1.8606 -0.1463 -0.9787
 2626TIP3   OH229368   4.911   0.764   4.761 -0.0092 -0.2870 -0.4791
 2626TIP3    H129369   4.946   0.812   4.686  1.4819 -0.3694  0.1168
 2626TIP3    H229370   4.873   0.685   4.723  0.3522 -0.1270 -1.1967
 2627TIP3   OH229371   1.262   4.830   5.882 -0.0902  0.0958  0.1206
 2627TIP3    H129372   1.200   4.861   5.947 -1.4177 -2.5336  0.2413
 2627TIP3    H229373   1.209   4.804   5.808  1.0746 -0.2548 -0.6240
 2628TIP3   OH229374   3.419   2.985  11.946  0.3424 -0.7101 -0.1006
 2628TIP3    H129375   3.368   2.942  12.015 -0.9306  2.1757  0.9439
 2628TIP3    H229376   3.354   3.030  11.892  1.5674  0.8988 -0.3331
 2629TIP3   OH229377   2.841   3.564  14.674  0.1511  0.2522 -0.3206
 2629TIP3    H129378   2.925   3.534  14.641 -0.0618 -0.1080 -0.5384
 2629TIP3    H229379   2.844   3.544  14.768  0.4622  0.6031 -0.2518
 2630TIP3   OH229380   5.389   6.245  13.038 -0.5156 -0.2536  0.9113
 2630TIP3    H129381   5.460   6.231  13.101 -0.2987  1.0548  0.9736
 2630TIP3    H229382   5.425   6.305  12.974 -0.5989 -1.8648 -0.7297
 2631TIP3   OH229383   6.147   4.926  13.714 -0.3334 -1.1887  0.0160
 2631TIP3    H129384   6.218   4.873  13.752 -0.3971 -1.7797 -0.6552
 2631TIP3    H229385   6.165   4.925  13.620 -0.6866 -0.5180 -0.0625
 2632TIP3   OH229386   6.443   3.297  14.984  0.2656  0.2589  0.5533
 2632TIP3    H129387   6.475   3.384  15.006  1.3276 -0.1071  0.5065
 2632TIP3    H229388   6.414   3.260  15.067  0.8692  0.2336  0.7535
 2633TIP3   OH229389   3.928   6.071   2.812  0.7962 -0.2601 -0.1931
 2633TIP3    H129390   3.989   5.999   2.796  1.3493 -0.1561  1.3115
 2633TIP3    H229391   3.848   6.044   2.767  0.1957 -2.9684  2.1638
 2634TIP3   OH229392   6.267   2.422  14.466  0.2592 -0.2286 -0.2822
 2634TIP3    H129393   6.307   2.509  14.460 -0.0670 -0.1162 -1.0005
 2634TIP3    H229394   6.221   2.423  14.549  0.1272  0.3450 -0.3542
 2635TIP3   OH229395   6.397   1.628  14.844  0.2629  0.5334 -0.4604
 2635TIP3    H129396   6.302   1.621  14.833  0.2114 -1.1625  0.7047
 2635TIP3    H229397   6.433   1.600  14.760 -0.2581 -0.8058 -0.2523
 2636TIP3   OH229398   0.920   5.022   0.790 -0.7779 -0.2284  0.0987
 2636TIP3    H129399   0.885   5.027   0.879  1.6269 -0.4476  1.1649
 2636TIP3    H229400   0.885   5.099   0.745  0.5660  1.8345  2.3289
 2637TIP3   OH229401   0.124   3.234  14.295 -0.0568 -0.1643  0.2398
 2637TIP3    H129402   0.159   3.296  14.231  0.7794  0.5779  1.3851
 2637TIP3    H229403   0.029   3.239  14.283 -0.0338  1.5532  0.4811
 2638TIP3   OH229404   1.271   5.228  16.980 -0.3475  0.6379 -0.0911
 2638TIP3    H129405   1.265   5.220  17.075 -0.4944 -2.1192 -0.2453
 2638TIP3    H229406   1.364   5.211  16.960 -0.3769  0.8932 -0.4727
 2639TIP3   OH229407   1.322   2.649  12.463 -0.0117  0.0057  0.1317
 2639TIP3    H129408   1.321   2.557  12.438 -4.3431  0.1868 -1.1794
 2639TIP3    H229409   1.303   2.649  12.557 -0.9382 -0.4922 -0.0410
 2640TIP3   OH229410   2.278   3.100  15.796 -0.4052 -0.6005 -0.0686
 2640TIP3    H129411   2.305   3.062  15.712 -0.8760 -0.0385 -0.4832
 2640TIP3    H229412   2.344   3.070  15.858 -1.0383 -2.5551 -0.2466
 2641TIP3   OH229413   4.232   2.842  11.246 -0.4222  0.1256  0.0477
 2641TIP3    H129414   4.248   2.886  11.162  2.9311  4.5418  2.5510
 2641TIP3    H229415   4.303   2.778  11.253 -0.0508  0.5188 -0.0683
 2642TIP3   OH229416   3.241   4.612  16.364  0.0133  0.6962 -0.7175
 2642TIP3    H129417   3.168   4.647  16.416  0.0540 -1.4350  0.9414
 2642TIP3    H229418   3.208   4.530  16.329  0.4027  1.5254 -3.2217
 2643TIP3   OH229419   0.757   0.899   0.297 -0.1847 -0.3627  0.5388
 2643TIP3    H129420   0.834   0.848   0.273 -0.2680 -1.1155  1.7754
 2643TIP3    H229421   0.688   0.865   0.240 -0.0503 -1.1037  0.8011
 2644TIP3   OH229422   4.131   5.102   1.159  0.1065  0.4576  0.6619
 2644TIP3    H129423   4.141   5.145   1.074 -2.5573  0.9856  0.5521
 2644TIP3    H229424   4.149   5.009   1.140 -1.2706  0.4223 -0.7149
 2645TIP3   OH229425   2.249   3.138   4.679  0.1529 -0.3398 -0.0111
 2645TIP3    H129426   2.272   3.193   4.603 -2.7291  2.4388  0.9270
 2645TIP3    H229427   2.313   3.163   4.746  0.2354  0.2569 -0.2998
 2646TIP3   OH229428   1.584   5.716   6.075 -0.2357  0.4281 -0.0655
 2646TIP3    H129429   1.595   5.796   6.023  1.8083 -0.2401 -0.7798
 2646TIP3    H229430   1.626   5.736   6.158 -1.4636  0.7138  0.5111
 2647TIP3   OH229431   3.190   3.295   4.548  0.1645  0.0270  0.5422
 2647TIP3    H129432   3.184   3.208   4.508  1.1727 -0.2740  1.0390
 2647TIP3    H229433   3.258   3.340   4.498 -0.9632  0.8870 -0.3144
 2648TIP3   OH229434   6.453   5.446   4.907 -0.4838 -0.2061 -0.5076
 2648TIP3    H129435   6.527   5.391   4.933 -1.4916  0.2760  4.3797
 2648TIP3    H229436   6.480   5.534   4.931 -2.2154  0.1097  0.4084
 2649TIP3   OH229437   4.806   0.962  11.825 -0.2387  0.4802 -0.4254
 2649TIP3    H129438   4.808   0.913  11.907 -0.1816 -0.9000 -1.2263
 2649TIP3    H229439   4.842   1.048  11.848 -0.6364  0.2786  1.0802
 2650TIP3   OH229440   4.059   2.056  11.378 -0.1428 -0.1859 -0.0458
 2650TIP3    H129441   3.997   2.123  11.349  1.6612  0.7385 -2.0075
 2650TIP3    H229442   4.050   1.986  11.313 -1.1450 -1.3876  1.3122
 2651TIP3   OH229443   4.556   4.464  13.297 -0.3542 -0.2368  1.0594
 2651TIP3    H129444   4.522   4.504  13.377  0.1035  1.5997  0.3915
 2651TIP3    H229445   4.651   4.460  13.310 -0.3613 -0.8176  0.9705
 2652TIP3   OH229446   0.138   0.033   2.337  0.1231 -0.2404 -0.4080
 2652TIP3    H129447   0.126   0.026   2.242  0.5400  0.3636 -0.5128
 2652TIP3    H229448   0.232   0.050   2.347  0.0894 -0.3695  0.1197
 2653TIP3   OH229449   6.156   5.961  13.138 -0.2606  0.1348  0.4208
 2653TIP3    H129450   6.101   5.980  13.063  0.4946 -0.1994 -0.2309
 2653TIP3    H229451   6.193   6.046  13.164 -1.7633  0.5224  1.4422
 2654TIP3   OH229452   2.241   0.224  13.699 -0.1186  0.2238 -0.4914
 2654TIP3    H129453   2.149   0.242  13.716 -0.5560 -1.6322 -0.6687
 2654TIP3    H229454   2.288   0.272  13.767 -1.3194 -0.1717  0.6392
 2655TIP3   OH229455   2.038   0.721   5.434  0.6116  0.5015 -0.3010
 2655TIP3    H129456   2.004   0.796   5.483 -3.4229 -1.7261  0.7154
 2655TIP3    H229457   2.034   0.748   5.343  0.7896  2.0247  0.1132
 2656TIP3   OH229458   2.729   4.100  15.240 -0.2434  1.0422 -0.3454
 2656TIP3    H129459   2.773   4.181  15.218 -0.7847  1.1406 -1.1032
 2656TIP3    H229460   2.679   4.120  15.319  1.4328  0.7833  0.8357
 2657TIP3   OH229461   3.616   3.951  11.532  0.0714 -0.5070 -0.3391
 2657TIP3    H129462   3.670   3.926  11.608 -1.4288  1.2803  1.4392
 2657TIP3    H229463   3.674   4.005  11.479  0.5765 -0.0966  0.5976
 2658TIP3   OH229464   4.373   0.506  15.886  0.1128 -0.1788  0.4018
 2658TIP3    H129465   4.435   0.528  15.817  0.4144  0.7815  0.9668
 2658TIP3    H229466   4.337   0.590  15.914  0.3712 -0.4964  1.7557
 2659TIP3   OH229467   3.532   6.663   5.783 -0.3696 -0.0717  0.2957
 2659TIP3    H129468   3.546   6.621   5.698  0.8840  2.6236 -0.9433
 2659TIP3    H229469   3.438   6.683   5.784 -0.5165 -0.7057 -0.1291
 2660TIP3   OH229470   2.361   5.609  15.954 -0.4101 -0.2868  0.4893
 2660TIP3    H129471   2.388   5.651  15.872  0.2807 -0.4744  0.6162
 2660TIP3    H229472   2.362   5.516  15.934 -1.9698 -0.2547  0.2005
 2661TIP3   OH229473   4.365   3.669  13.781 -0.1318 -0.1634 -0.3205
 2661TIP3    H129474   4.325   3.632  13.703  1.0094  0.5027 -1.2484
 2661TIP3    H229475   4.298   3.726  13.818 -0.1932  0.6584 -1.6458
 2662TIP3   OH229476   3.778   1.937   0.970  0.5959  0.2325 -0.3129
 2662TIP3    H129477   3.811   1.857   0.929  1.6512  0.6623 -0.3385
 2662TIP3    H229478   3.851   1.969   1.022  0.7092  1.9600 -1.4482
 2663TIP3   OH229479   6.376   1.847  14.634 -0.3071 -0.5115 -0.0080
 2663TIP3    H129480   6.373   1.808  14.721 -0.5608  1.4027  0.9004
 2663TIP3    H229481   6.414   1.934  14.648  2.9906 -1.3745 -2.3136
 2664TIP3   OH229482   3.523   2.641  10.308  0.3223  0.2119 -0.3857
 2664TIP3    H129483   3.473   2.598  10.239  0.7250 -0.5027 -0.2429
 2664TIP3    H229484   3.551   2.570  10.366 -0.4483  0.8566  0.8167
 2665TIP3   OH229485   3.379   3.578  12.261  0.0884  0.1697  0.1943
 2665TIP3    H129486   3.356   3.499  12.212 -0.1510  0.0380  0.5164
 2665TIP3    H229487   3.423   3.633  12.197 -2.3233  1.0248 -0.8438
 2666TIP3   OH229488   1.532   2.755   2.132  0.4520 -0.7063  0.2364
 2666TIP3    H129489   1.599   2.745   2.199  0.9765 -0.7441 -0.2883
 2666TIP3    H229490   1.555   2.836   2.086 -0.6284  0.0117  0.9094
 2667TIP3   OH229491   0.051   2.573  15.872 -0.3445  0.3088  0.4726
 2667TIP3    H129492   0.011   2.642  15.925 -0.0222  1.1293 -0.3395
 2667TIP3    H229493  -0.020   2.542  15.816 -0.5540 -0.2080  1.0117
 2668TIP3   OH229494   3.510   0.164  13.428  0.4521 -0.4055 -0.4226
 2668TIP3    H129495   3.451   0.171  13.353 -0.1757  0.0559  0.0904
 2668TIP3    H229496   3.522   0.255  13.457 -0.2142 -0.6560  0.7039
 2669TIP3   OH229497   5.625   5.486   5.757  0.1089 -0.0026  0.0599
 2669TIP3    H129498   5.707   5.439   5.744 -0.4319 -1.0450  0.3311
 2669TIP3    H229499   5.559   5.432   5.713 -0.4326  0.8360 -0.1715
 2670TIP3   OH229500   4.601   6.425  15.642 -0.5271 -0.1771 -0.7126
 2670TIP3    H129501   4.648   6.509  15.637 -1.2384  0.2961  0.2559
 2670TIP3    H229502   4.510   6.450  15.655 -0.6325 -1.1242  0.4622
 2671TIP3   OH229503   1.971   2.492   3.013 -0.2562  0.1069 -0.8572
 2671TIP3    H129504   2.038   2.430   3.043 -1.0477 -0.8908 -1.0596
 2671TIP3    H229505   1.974   2.486   2.918  0.1397  0.9227 -0.8991
 2672TIP3   OH229506   6.519   4.518  14.946 -0.5413  0.5817  0.3406
 2672TIP3    H129507   6.447   4.559  14.898  0.3856  0.8115 -0.8936
 2672TIP3    H229508   6.596   4.533  14.892  0.2796 -0.5400  1.1456
 2673TIP3   OH229509   5.320   4.958   6.429 -0.0035 -0.3114 -0.7346
 2673TIP3    H129510   5.328   4.916   6.515 -0.8608 -1.1875 -1.0549
 2673TIP3    H229511   5.367   4.900   6.370 -1.4670 -1.0504 -1.2375
 2674TIP3   OH229512   5.336   3.059  13.003 -0.4442  0.3247 -0.1410
 2674TIP3    H129513   5.367   3.128  13.061 -0.7401  1.5083 -1.3657
 2674TIP3    H229514   5.270   3.012  13.055  0.7254  0.0682  1.1762
 2675TIP3   OH229515   3.897   5.399   5.712  0.7283 -0.4868  0.3696
 2675TIP3    H129516   3.878   5.466   5.777  0.3490 -0.6870  0.4664
 2675TIP3    H229517   3.992   5.385   5.719  0.7593 -0.1891  0.5655
 2676TIP3   OH229518   2.573   1.815  12.252  0.9168 -0.8583 -0.1771
 2676TIP3    H129519   2.652   1.827  12.200 -0.1091 -0.4257 -1.6862
 2676TIP3    H229520   2.509   1.780  12.191 -0.3813 -0.1802  0.7573
 2677TIP3   OH229521   2.464   5.364  16.680  0.9734 -0.4690  0.0690
 2677TIP3    H129522   2.518   5.348  16.603  1.2775 -0.7129  0.3280
 2677TIP3    H229523   2.491   5.297  16.743  2.3282  1.0418  1.2163
 2678TIP3   OH229524   3.387   0.298  14.858 -0.1875 -0.0473 -0.4050
 2678TIP3    H129525   3.389   0.393  14.868 -1.1696 -0.1752  1.3443
 2678TIP3    H229526   3.429   0.264  14.937 -2.7508 -1.0926  0.6075
 2679TIP3   OH229527   0.736   2.128   5.921  0.2290 -0.2141 -0.4328
 2679TIP3    H129528   0.702   2.079   5.996 -0.9584  1.4706  0.1820
 2679TIP3    H229529   0.658   2.151   5.871  0.9564 -0.8070 -1.9144
 2680TIP3   OH229530   3.604   4.655  14.192  0.6369 -0.4467  0.6266
 2680TIP3    H129531   3.561   4.570  14.195 -1.7080  0.5800 -1.1650
 2680TIP3    H229532   3.671   4.650  14.260 -2.4025 -2.1420  3.8111
 2681TIP3   OH229533   4.123   3.114  10.323  0.2861  0.0563  0.6814
 2681TIP3    H129534   4.072   3.187  10.286  2.0097  0.4007 -1.1757
 2681TIP3    H229535   4.057   3.049  10.348 -1.1397  0.9692 -0.5237
 2682TIP3   OH229536   2.010   4.536  15.023 -0.2044 -0.7748  0.5687
 2682TIP3    H129537   1.952   4.573  14.956  0.1815 -2.6103 -0.8698
 2682TIP3    H229538   1.960   4.544  15.104 -1.3124  0.1948 -0.1711
 2683TIP3   OH229539   6.415   6.506  13.952  0.0919  0.9418  0.1722
 2683TIP3    H129540   6.423   6.431  14.012 -1.2935 -0.1387 -0.9231
 2683TIP3    H229541   6.496   6.554  13.963  0.7529 -0.3771  1.3903
 2684TIP3   OH229542   2.014   6.220   2.107  0.1046 -0.2406  0.4295
 2684TIP3    H129543   2.080   6.247   2.171  1.0039  0.1064 -0.6101
 2684TIP3    H229544   2.065   6.179   2.037 -0.7517  0.3302 -0.5518
 2685TIP3   OH229545   5.392   6.297  13.745 -0.0847  0.2726 -0.0687
 2685TIP3    H129546   5.355   6.384  13.732  1.9729  1.2658  0.2304
 2685TIP3    H229547   5.403   6.289  13.840  0.4361  0.0259 -0.1421
 2686TIP3   OH229548   0.748   1.226  15.552  0.9047 -0.0346 -0.1492
 2686TIP3    H129549   0.765   1.153  15.493  0.3545 -0.4574  0.2043
 2686TIP3    H229550   0.753   1.188  15.640 -3.8096 -0.8086  0.0708
 2687TIP3   OH229551   3.327   6.045   4.492  0.0820 -0.4893 -0.2661
 2687TIP3    H129552   3.330   5.955   4.462  0.5773 -1.1513  1.6227
 2687TIP3    H229553   3.234   6.066   4.499 -0.0449 -0.4430 -1.7578
 2688TIP3   OH229554   6.365   6.509   1.981 -0.0313  0.2997 -0.0442
 2688TIP3    H129555   6.400   6.421   1.967  1.4654  0.9494 -0.5700
 2688TIP3    H229556   6.316   6.529   1.901  1.2484  0.6614 -0.7648
 2689TIP3   OH229557   3.608   4.897  16.117  0.0824 -0.3233 -0.0120
 2689TIP3    H129558   3.657   4.838  16.060  0.0430 -1.9198  1.5339
 2689TIP3    H229559   3.655   4.980  16.111  2.4500 -1.5288  0.6877
 2690TIP3   OH229560   1.740   4.296  13.739 -0.1917 -0.1867 -0.1997
 2690TIP3    H129561   1.694   4.353  13.801 -1.3928  0.1766 -1.3764
 2690TIP3    H229562   1.689   4.302  13.658  0.9797 -1.1317 -1.0506
 2691TIP3   OH229563   5.432   5.215   4.066 -1.0212 -0.2644 -0.4487
 2691TIP3    H129564   5.489   5.154   4.018 -0.6979 -0.6997  0.4701
 2691TIP3    H229565   5.350   5.215   4.016 -0.6707 -0.6548 -1.0383
 2692TIP3   OH229566   2.594   1.123   5.159 -0.5462  0.1559 -0.0248
 2692TIP3    H129567   2.586   1.207   5.204  1.7248  2.3083 -3.1578
 2692TIP3    H229568   2.688   1.115   5.142 -0.8181 -2.6426 -0.6148
 2693TIP3   OH229569   5.505   6.643  13.656  0.1490 -0.5124 -0.9685
 2693TIP3    H129570   5.572   6.682  13.600 -0.6069  1.3163 -0.6733
 2693TIP3    H229571   5.553   6.588  13.717  1.7945  2.8753  1.0634
 2694TIP3   OH229572   2.729   4.809   6.120 -0.3423 -0.0886 -0.1975
 2694TIP3    H129573   2.666   4.811   6.049  0.5509  2.6815 -1.0309
 2694TIP3    H229574   2.709   4.886   6.173  0.7698 -0.5488  0.9633
 2695TIP3   OH229575   0.202   4.522  12.967 -0.2655 -0.1654 -0.4595
 2695TIP3    H129576   0.155   4.465  12.906  0.6405 -1.2467 -0.1760
 2695TIP3    H229577   0.221   4.601  12.917  2.0089 -1.7075 -2.2025
 2696TIP3   OH229578   3.686   5.968  16.597  0.0628 -0.5491 -0.3649
 2696TIP3    H129579   3.714   6.047  16.644  0.7560  0.5998 -2.5395
 2696TIP3    H229580   3.591   5.968  16.605  0.1789 -0.6405  1.3422
 2697TIP3   OH229581   5.104   1.999  12.931 -0.1213 -0.2516 -0.3763
 2697TIP3    H129582   5.183   1.947  12.945  0.3311  0.3323 -0.7559
 2697TIP3    H229583   5.103   2.061  13.003 -0.2591 -0.2780 -0.3537
 2698TIP3   OH229584   2.753   2.484   2.566  0.0699  0.6202  0.2572
 2698TIP3    H129585   2.690   2.444   2.506  0.0166  1.2715 -0.1373
 2698TIP3    H229586   2.700   2.510   2.641  0.3159 -1.1901  1.1064
 2699TIP3   OH229587   2.591   0.232   3.141 -0.1416 -0.1063  0.2221
 2699TIP3    H129588   2.544   0.285   3.077  1.0104  2.8583  1.6127
 2699TIP3    H229589   2.532   0.159   3.160 -1.8494  0.6222 -1.8532
 2700TIP3   OH229590   1.150   0.335   3.477 -0.2116  0.1759 -0.3097
 2700TIP3    H129591   1.089   0.262   3.487 -0.6815  0.3071 -1.9095
 2700TIP3    H229592   1.228   0.308   3.524 -0.9079 -0.7181  0.3654
 2701TIP3   OH229593   0.152   0.508  13.481 -0.1084  0.4765 -0.0816
 2701TIP3    H129594   0.129   0.515  13.574  0.8742  1.7414  0.0907
 2701TIP3    H229595   0.140   0.596  13.446  0.6286  0.2728 -0.8896
 2702TIP3   OH229596   3.918   3.021  14.114  0.0635  0.7819  0.2837
 2702TIP3    H129597   3.982   3.091  14.128  0.9213 -0.3753  2.5454
 2702TIP3    H229598   3.944   2.982  14.031  1.3996  1.2557  0.4528
 2703TIP3   OH229599   4.422   2.976   3.104  0.5210  0.3896  0.5455
 2703TIP3    H129600   4.486   2.908   3.084 -0.5567 -0.6903  0.7133
 2703TIP3    H229601   4.339   2.930   3.114 -0.7898  1.9449 -1.8921
 2704TIP3   OH229602   5.779   2.753  14.664 -0.6301 -0.3419 -0.3881
 2704TIP3    H129603   5.709   2.737  14.601 -1.7356 -0.2194  0.7668
 2704TIP3    H229604   5.736   2.796  14.738  0.8761  0.8368 -0.1219
 2705TIP3   OH229605   2.070   0.952  15.966  0.0573  0.1360  1.0299
 2705TIP3    H129606   1.978   0.929  15.964 -0.2110  0.2372  4.7573
 2705TIP3    H229607   2.116   0.871  15.944 -0.8765 -0.0420 -0.3640
 2706TIP3   OH229608   2.083   4.494   5.951  0.0778  0.2331 -0.3035
 2706TIP3    H129609   2.156   4.541   5.993  0.6461  0.6853 -1.7406
 2706TIP3    H229610   2.005   4.529   5.994  0.6473  0.3052  0.7269
 2707TIP3   OH229611   0.816   2.226  11.329 -0.0945  0.3147  0.5461
 2707TIP3    H129612   0.772   2.164  11.388 -0.6118 -1.0388 -1.1910
 2707TIP3    H229613   0.866   2.171  11.270 -0.0019  1.6059 -0.6212
 2708TIP3   OH229614   1.587   5.461  16.754  0.4724 -0.2289  0.4075
 2708TIP3    H129615   1.510   5.463  16.697  0.6189 -1.0752  0.1754
 2708TIP3    H229616   1.644   5.395  16.715  1.5991  0.8078  0.2243
 2709TIP3   OH229617   5.405   3.025  16.299  0.5162  0.5712 -0.4259
 2709TIP3    H129618   5.470   3.077  16.347  0.9564  0.0983 -0.4995
 2709TIP3    H229619   5.361   3.088  16.243  0.0466  1.1280  0.5364
 2710TIP3   OH229620   1.262   3.146   1.388 -0.0784  0.2526  0.4146
 2710TIP3    H129621   1.174   3.132   1.424  0.3917 -2.6784  0.6257
 2710TIP3    H229622   1.259   3.104   1.302  0.4060  2.5181 -0.8083
 2711TIP3   OH229623   5.667   0.214   0.479  0.2590  0.0115 -0.6570
 2711TIP3    H129624   5.729   0.148   0.510 -0.0141 -0.6984 -1.5878
 2711TIP3    H229625   5.584   0.190   0.520  0.3077  0.2032 -0.4396
 2712TIP3   OH229626   0.993   0.034  11.743 -0.6056 -0.0166  0.0302
 2712TIP3    H129627   0.999  -0.040  11.682  0.3600 -0.9393  1.1834
 2712TIP3    H229628   1.066   0.091  11.719 -0.0906 -0.4906  0.4511
 2713TIP3   OH229629   5.768   0.621  16.016 -0.3596 -0.3714  0.1661
 2713TIP3    H129630   5.826   0.574  16.076 -0.6796 -0.4968  0.3796
 2713TIP3    H229631   5.827   0.667  15.956 -0.0164  0.1641  0.8930
 2714TIP3   OH229632   5.131   0.596   1.971 -0.0456 -0.5038  0.1057
 2714TIP3    H129633   5.188   0.519   1.982 -1.1567 -1.2253  1.0743
 2714TIP3    H229634   5.063   0.585   2.037 -2.3146 -0.5704 -2.0828
 2715TIP3   OH229635   0.547   3.477  12.610 -0.2078 -0.2448 -0.3816
 2715TIP3    H129636   0.484   3.408  12.588 -0.0450 -0.8977  1.0424
 2715TIP3    H229637   0.569   3.461  12.702  0.1812  1.4596 -0.1384
 2716TIP3   OH229638   3.185   2.142  13.899 -0.2397 -0.4700 -0.3376
 2716TIP3    H129639   3.202   2.227  13.860 -1.8295  0.2073  0.3806
 2716TIP3    H229640   3.147   2.161  13.985  0.5485 -1.9115  0.3728
 2717TIP3   OH229641   2.850   3.338  13.615  0.0845  0.6495 -0.6179
 2717TIP3    H129642   2.921   3.329  13.679 -0.6421 -0.4127  0.0696
 2717TIP3    H229643   2.789   3.399  13.655  0.2973  1.0758 -0.9325
 2718TIP3   OH229644   2.466   0.139   2.090  0.4740  0.1465 -0.0622
 2718TIP3    H129645   2.473   0.059   2.141 -0.0422 -0.3995 -0.8271
 2718TIP3    H229646   2.474   0.210   2.155 -2.1836 -0.5104  1.1312
 2719TIP3   OH229647   3.980   5.216   4.462  0.6290 -0.2485 -0.8526
 2719TIP3    H129648   3.980   5.142   4.402  1.3815  0.6067 -1.9719
 2719TIP3    H229649   4.023   5.286   4.412  1.1802  0.5289  0.6570
 2720TIP3   OH229650   0.873   0.245   1.395  0.6178 -0.6627 -0.2802
 2720TIP3    H129651   0.788   0.221   1.359 -0.4537  0.3113  1.4590
 2720TIP3    H229652   0.919   0.162   1.407 -0.2921 -1.2481 -0.7770
 2721TIP3   OH229653   0.408   2.078   3.079  0.1508  0.1746 -0.1396
 2721TIP3    H129654   0.356   2.073   3.159 -0.8386  0.9246 -0.7085
 2721TIP3    H229655   0.367   2.014   3.021  0.2832  0.2821 -0.3515
 2722TIP3   OH229656   6.092   5.237   2.587  0.4152  0.0615  0.4638
 2722TIP3    H129657   6.030   5.251   2.659 -0.1345  0.2827 -0.0429
 2722TIP3    H229658   6.088   5.317   2.535  0.0267 -0.4806 -0.3849
 2723TIP3   OH229659   3.096   4.371   1.446  0.0730  0.0652  0.2022
 2723TIP3    H129660   3.155   4.314   1.396  0.0487  0.9058 -0.8231
 2723TIP3    H229661   3.028   4.312   1.479  0.0486 -0.5138 -0.8344
 2724TIP3   OH229662   3.062   1.969  16.069  0.0728 -0.6169  0.4732
 2724TIP3    H129663   3.110   2.020  16.005  0.6109 -1.8271 -0.1255
 2724TIP3    H229664   3.029   2.033  16.132  0.0494  0.5279 -0.6699
 2725TIP3   OH229665   6.135   0.714   6.109 -0.1232 -0.1890 -0.1682
 2725TIP3    H129666   6.140   0.646   6.175 -2.8136  0.8125  1.2072
 2725TIP3    H229667   6.066   0.685   6.049 -1.8405  1.5304  0.8543
 2726TIP3   OH229668   3.158   0.839   1.614 -0.2308  1.0998  0.0545
 2726TIP3    H129669   3.086   0.901   1.601 -1.3560 -0.1063  0.2775
 2726TIP3    H229670   3.203   0.870   1.692  0.5422  2.8123 -1.0066
 2727TIP3   OH229671   3.466   5.816  12.559  0.1272  0.3706 -0.0321
 2727TIP3    H129672   3.440   5.817  12.467  0.2100  0.5601 -0.0533
 2727TIP3    H229673   3.505   5.902  12.575 -1.4410  0.9951  0.6394
 2728TIP3   OH229674   5.281   5.222   0.526  0.1040 -0.3447 -0.3053
 2728TIP3    H129675   5.190   5.211   0.555 -0.9058  2.3637 -2.0380
 2728TIP3    H229676   5.333   5.195   0.601 -2.1663 -0.3593  1.3894
 2729TIP3   OH229677   2.592   6.630   5.231  0.2412  0.0748 -0.0839
 2729TIP3    H129678   2.636   6.688   5.293  0.1361  0.0391  0.0255
 2729TIP3    H229679   2.661   6.572   5.199  0.1274 -0.5235  0.7102
 2730TIP3   OH229680   4.872   1.100  15.730  0.2498  0.8900  0.0677
 2730TIP3    H129681   4.894   1.161  15.800  2.7152  0.2236 -0.0286
 2730TIP3    H229682   4.884   1.013  15.768  0.5109  0.5162 -0.8215
 2731TIP3   OH229683   2.737   2.207  13.327 -0.3397 -0.3842  0.0438
 2731TIP3    H129684   2.665   2.161  13.370  0.0764 -0.0640  1.1406
 2731TIP3    H229685   2.816   2.168  13.366  0.0228  1.3177  1.1038
 2732TIP3   OH229686   4.612   3.057   1.644  0.3175  0.6301 -0.1492
 2732TIP3    H129687   4.603   3.095   1.557 -0.6407 -0.4361 -0.5295
 2732TIP3    H229688   4.672   2.983   1.632  0.1016  0.4177  0.0790
 2733TIP3   OH229689   2.127   1.204   1.600 -0.8696  0.0789  0.3625
 2733TIP3    H129690   2.134   1.261   1.676 -2.4070 -1.2268  1.5431
 2733TIP3    H229691   2.188   1.132   1.617 -0.9329 -0.0226  0.1722
 2734TIP3   OH229692   2.154   0.182  12.276  0.1236 -0.3995 -0.1575
 2734TIP3    H129693   2.243   0.170  12.243  0.2815 -2.1866  0.8186
 2734TIP3    H229694   2.099   0.130  12.218 -0.3383  0.8316 -0.8592
 2735TIP3   OH229695   4.177   4.570  16.335  0.0438 -0.2475 -0.4364
 2735TIP3    H129696   4.156   4.531  16.250 -0.0677  0.6867 -0.8461
 2735TIP3    H229697   4.100   4.623  16.356  0.2215 -0.1958  0.0819
 2736TIP3   OH229698   4.761   0.426   6.685  0.2814  0.1105  0.6956
 2736TIP3    H129699   4.754   0.476   6.603 -1.8384  0.6229  1.1255
 2736TIP3    H229700   4.686   0.367   6.683  0.5407 -0.2794  2.0104
 2737TIP3   OH229701   5.935   3.028   5.720  0.0262 -0.3200  0.3782
 2737TIP3    H129702   5.940   3.070   5.634  0.9063 -2.4759 -0.6844
 2737TIP3    H229703   5.843   3.006   5.730 -0.5417  2.0942  1.1431
 2738TIP3   OH229704   0.120   4.705   4.091  0.3388  0.5319 -0.0762
 2738TIP3    H129705   0.057   4.644   4.129  0.7576 -0.3682 -0.7912
 2738TIP3    H229706   0.087   4.791   4.115 -0.1095  0.0287  1.2034
 2739TIP3   OH229707   3.757   1.177  11.622  0.9560  0.2279 -0.1271
 2739TIP3    H129708   3.804   1.151  11.543 -0.0905  2.0089 -1.3970
 2739TIP3    H229709   3.668   1.145  11.609  0.5963  1.1586 -0.0131
 2740TIP3   OH229710   4.654   1.982   1.895 -0.1780 -0.0222  0.0344
 2740TIP3    H129711   4.718   2.036   1.848 -0.5834  0.5309  0.1031
 2740TIP3    H229712   4.597   1.948   1.826 -1.1900  1.3438  0.1523
 2741TIP3   OH229713   1.598   1.594   1.002  0.3768 -0.1350 -0.6214
 2741TIP3    H129714   1.632   1.663   0.945  2.1749  0.0512  0.5885
 2741TIP3    H229715   1.669   1.578   1.065 -0.0852 -2.8330 -0.6381
 2742TIP3   OH229716   0.918   1.668   4.161  0.0706 -0.1875  0.3050
 2742TIP3    H129717   0.972   1.601   4.120 -1.8058 -0.7276 -1.4717
 2742TIP3    H229718   0.896   1.728   4.089 -2.1660 -0.3567  0.7836
 2743TIP3   OH229719   1.165   1.727   5.983 -0.3255 -0.0190  0.1187
 2743TIP3    H129720   1.210   1.646   5.960 -0.3430  0.6606 -2.7312
 2743TIP3    H229721   1.076   1.716   5.948 -0.8760  0.6008  1.2400
 2744TIP3   OH229722   3.670   0.469   4.563  0.0707  0.1196 -0.3433
 2744TIP3    H129723   3.664   0.379   4.530  0.0924 -0.1053  0.2425
 2744TIP3    H229724   3.699   0.459   4.654  0.1606  0.7255 -0.3005
 2745TIP3   OH229725   5.108   3.797   3.368 -0.0276  0.0622  0.4827
 2745TIP3    H129726   5.078   3.732   3.432  0.2628 -1.9665 -1.3202
 2745TIP3    H229727   5.046   3.869   3.376  0.3166  0.1304  3.3701
 2746TIP3   OH229728   6.034   2.245  12.641 -0.4137 -0.3102 -0.9128
 2746TIP3    H129729   6.055   2.161  12.600 -1.0120 -0.6594 -0.5219
 2746TIP3    H229730   6.118   2.278  12.672 -0.3324 -1.3638  0.0462
 2747TIP3   OH229731   2.756   5.912   2.664  0.0304 -0.0685  0.4909
 2747TIP3    H129732   2.805   5.935   2.585  1.2919  0.4172  1.3756
 2747TIP3    H229733   2.670   5.884   2.632  1.1168 -1.6937 -1.1666
 2748TIP3   OH229734   6.010   2.733   0.586  0.1792  0.0854  0.1259
 2748TIP3    H129735   6.080   2.788   0.623  1.0056 -0.6420 -0.3356
 2748TIP3    H229736   6.056   2.660   0.545 -0.8311 -0.0811 -0.7320
 2749TIP3   OH229737   4.953   2.600  11.251  0.1468 -0.3115 -0.1480
 2749TIP3    H129738   5.031   2.656  11.247  0.2653 -0.2707  1.8920
 2749TIP3    H229739   4.964   2.538  11.179 -0.2023  2.4896 -2.8066
 2750TIP3   OH229740   0.167   6.070   1.507  0.5043 -0.1486  0.7525
 2750TIP3    H129741   0.114   6.055   1.430 -2.8014  1.2036  2.5602
 2750TIP3    H229742   0.196   6.161   1.499 -1.9207  0.8358  2.0939
 2751TIP3   OH229743   0.292   6.282  10.849 -0.0639  0.2059  0.8572
 2751TIP3    H129744   0.273   6.254  10.938  1.9307 -0.7551  1.0399
 2751TIP3    H229745   0.364   6.226  10.821 -0.4679  0.6740 -1.2721
 2752TIP3   OH229746   1.349   6.457   5.563 -0.2075 -0.5702 -0.4324
 2752TIP3    H129747   1.296   6.377   5.568  0.1750 -0.9062 -1.4635
 2752TIP3    H229748   1.398   6.448   5.481  2.2014 -0.7430  0.9402
 2753TIP3   OH229749   4.296   3.164   4.931 -0.2855  0.0813  0.2271
 2753TIP3    H129750   4.357   3.156   4.858 -0.5806  1.7923 -0.2469
 2753TIP3    H229751   4.217   3.203   4.892 -0.8605 -0.0168  1.2465
 2754TIP3   OH229752   1.226   4.952   1.687  0.4631  0.6861 -0.3102
 2754TIP3    H129753   1.181   4.868   1.701  1.0364  0.3476 -0.4916
 2754TIP3    H229754   1.307   4.945   1.737  0.5223  1.1274 -0.3396
 2755TIP3   OH229755   3.616   2.911   1.745  0.3898  0.3602  0.1926
 2755TIP3    H129756   3.607   3.006   1.754  0.8290  0.3373  0.9426
 2755TIP3    H229757   3.542   2.876   1.794  0.2518  0.3147 -0.0488
 2756TIP3   OH229758   6.617   5.599   4.010 -0.4840 -0.1716  0.5987
 2756TIP3    H129759   6.684   5.667   4.001  1.1479 -1.4625  2.1934
 2756TIP3    H229760   6.580   5.614   4.097 -1.0311 -0.5342  0.4321
 2757TIP3   OH229761   5.115   5.918   6.018  0.0601  0.0497 -0.1628
 2757TIP3    H129762   5.041   5.890   6.071  0.1353  0.1569 -0.0008
 2757TIP3    H229763   5.183   5.940   6.081 -0.1758  1.1087 -0.2586
 2758TIP3   OH229764   4.919   6.233  15.248  0.1842  0.3941 -0.2797
 2758TIP3    H129765   4.935   6.307  15.189  0.1593  0.1943 -0.5391
 2758TIP3    H229766   4.838   6.255  15.293 -0.0334  0.3443 -0.6451
 2759TIP3   OH229767   5.837   0.606   6.662 -0.0220 -0.5599 -0.3483
 2759TIP3    H129768   5.801   0.522   6.633  0.3625 -0.1684 -2.1051
 2759TIP3    H229769   5.932   0.592   6.663  0.0532 -0.1380 -0.7773
 2760TIP3   OH229770   5.582   3.337  15.823  0.8474 -0.0736  0.0596
 2760TIP3    H129771   5.614   3.332  15.913  0.7123 -1.4269  0.0501
 2760TIP3    H229772   5.487   3.335  15.831  0.8422 -1.0661 -0.1410
 2761TIP3   OH229773   0.429   6.758  13.081  0.0910  0.2444 -0.0352
 2761TIP3    H129774   0.524   6.773  13.083  0.0421  1.3487 -2.2852
 2761TIP3    H229775   0.412   6.699  13.154  2.2311  1.4919  1.5865
 2762TIP3   OH229776   0.089   5.703   0.330  0.4178  0.1059  0.1472
 2762TIP3    H129777   0.152   5.680   0.399  1.4524 -0.4747 -0.9644
 2762TIP3    H229778   0.140   5.750   0.265 -0.3530 -0.1334 -0.6466
 2763TIP3   OH229779   0.666   3.586  14.902  0.7059  0.4610  0.6092
 2763TIP3    H129780   0.615   3.554  14.827 -0.4846  3.1134  0.1424
 2763TIP3    H229781   0.756   3.561  14.883  0.1631 -0.5460 -0.7837
 2764TIP3   OH229782   3.598   0.898   2.339  0.6091 -0.7639 -0.1442
 2764TIP3    H129783   3.510   0.866   2.357  0.4614  0.0980  0.8256
 2764TIP3    H229784   3.634   0.918   2.426  1.2348  0.2152 -0.6086
 2765TIP3   OH229785   1.353   5.306   0.064 -0.0690 -0.1474  0.2823
 2765TIP3    H129786   1.425   5.250   0.035 -0.1359 -0.4901  0.7620
 2765TIP3    H229787   1.359   5.384   0.009  0.2871 -0.4447 -0.0992
 2766TIP3   OH229788   0.885   3.374   2.748  0.5474  0.3003 -0.7226
 2766TIP3    H129789   0.862   3.283   2.729  1.5880  0.1003 -1.1092
 2766TIP3    H229790   0.871   3.384   2.842  2.6786 -0.9834 -0.2066
 2767TIP3   OH229791   5.944   6.328   4.082 -0.4772 -0.0534 -0.7114
 2767TIP3    H129792   5.875   6.367   4.135 -0.4364  0.0910 -0.7638
 2767TIP3    H229793   6.021   6.382   4.100 -0.6326  0.4175 -1.4479
 2768TIP3   OH229794   4.035   3.376   0.016  0.5692  0.9233 -0.0335
 2768TIP3    H129795   3.994   3.325   0.086  2.8146  0.9054  1.3954
 2768TIP3    H229796   3.977   3.366  -0.059 -0.1144 -2.0500  0.7824
 2769TIP3   OH229797   2.241   2.091   3.639  0.3904 -0.3648 -0.5923
 2769TIP3    H129798   2.232   2.141   3.720 -0.4459 -0.5956 -0.5296
 2769TIP3    H229799   2.286   2.010   3.666 -0.6294 -0.8107 -0.1905
 2770TIP3   OH229800   0.653   6.366   5.275  0.2806 -0.2623  0.2006
 2770TIP3    H129801   0.621   6.372   5.184  0.6685  0.3190  0.0986
 2770TIP3    H229802   0.576   6.339   5.325  0.2736 -1.4947 -0.4233
 2771TIP3   OH229803   2.341   4.459   2.367  0.2056  0.1157  0.5366
 2771TIP3    H129804   2.363   4.539   2.319  2.1286 -1.0971 -0.7486
 2771TIP3    H229805   2.414   4.447   2.428  0.8272 -1.4793 -0.4445
 2772TIP3   OH229806   5.826   1.480   0.666  0.7561 -0.0099  0.3316
 2772TIP3    H129807   5.897   1.527   0.710  0.5771 -0.3849  1.0366
 2772TIP3    H229808   5.794   1.418   0.731  0.8565 -0.9830 -0.5146
 2773TIP3   OH229809   4.674   1.911  11.005 -0.1828 -0.5391  1.0779
 2773TIP3    H129810   4.735   1.980  11.031 -0.6155  0.0066  0.6692
 2773TIP3    H229811   4.707   1.880  10.920 -1.6502  1.2534 -0.2191
 2774TIP3   OH229812   1.416   1.646  11.573 -0.2093 -0.1059 -0.5670
 2774TIP3    H129813   1.429   1.677  11.484 -3.0586 -0.5077 -1.2407
 2774TIP3    H229814   1.343   1.584  11.566 -1.4217  0.8574  2.2073
 2775TIP3   OH229815   3.677   6.685  14.464  0.3414 -0.0893  0.2011
 2775TIP3    H129816   3.630   6.687  14.548  0.8932 -0.4122  0.5264
 2775TIP3    H229817   3.726   6.602  14.466  0.1966 -0.2011 -0.5334
 2776TIP3   OH229818   0.180   2.895  14.583 -0.9615  0.2414 -0.1497
 2776TIP3    H129819   0.126   2.817  14.567 -1.1188  0.5569 -1.2595
 2776TIP3    H229820   0.270   2.863  14.583 -1.0146  0.0854 -0.7962
 2777TIP3   OH229821   0.829   4.749   4.204 -0.0816  0.2893  0.9981
 2777TIP3    H129822   0.852   4.842   4.210  0.2283  0.2293  0.8057
 2777TIP3    H229823   0.753   4.747   4.146  0.1363  0.3959  0.7006
 2778TIP3   OH229824   1.029   1.468  13.619 -0.1221 -0.6853 -0.3634
 2778TIP3    H129825   1.111   1.424  13.641 -0.7611 -2.7353 -1.7492
 2778TIP3    H229826   1.045   1.510  13.535  0.1089  0.7535  0.3747
 2779TIP3   OH229827   6.367   4.604  15.859  0.4280 -0.1335  0.6613
 2779TIP3    H129828   6.407   4.680  15.817  1.9122 -0.6728  1.0461
 2779TIP3    H229829   6.302   4.573  15.795  2.6403 -0.9643 -1.3168
 2780TIP3   OH229830   4.335   4.347   1.919  1.0129 -0.1134  0.1100
 2780TIP3    H129831   4.335   4.384   2.007 -2.0455  3.2136 -1.0203
 2780TIP3    H229832   4.262   4.285   1.919  1.8260 -1.0953  0.1976
 2781TIP3   OH229833   0.415   6.569  15.190 -0.2209  0.2711  0.5650
 2781TIP3    H129834   0.433   6.500  15.254 -1.2561  1.0027  1.6835
 2781TIP3    H229835   0.428   6.650  15.239  1.4004  0.9211 -0.8349
 2782TIP3   OH229836   5.169   3.740   0.870  0.2943 -0.4459  0.1919
 2782TIP3    H129837   5.150   3.825   0.911 -1.8316 -0.4318 -0.6783
 2782TIP3    H229838   5.252   3.753   0.824 -0.1770  1.2996 -0.2462
 2783TIP3   OH229839   1.801   0.449  12.449 -0.2235 -0.2216  0.2393
 2783TIP3    H129840   1.795   0.430  12.356 -0.0633  0.3383  0.1105
 2783TIP3    H229841   1.738   0.520  12.463  0.3047  0.2202  0.4078
 2784TIP3   OH229842   0.981   1.061  12.772 -0.1471 -0.0277  0.0198
 2784TIP3    H129843   0.893   1.039  12.739  0.2145 -1.9701  0.2269
 2784TIP3    H229844   0.964   1.111  12.852 -1.0281  1.5799 -1.1107
 2785TIP3   OH229845   0.858   0.924   1.440  0.0252 -0.2553 -0.2516
 2785TIP3    H129846   0.927   0.863   1.464 -1.9983 -2.3044  0.8163
 2785TIP3    H229847   0.839   0.903   1.348 -0.2845 -0.8813 -0.0517
 2786TIP3   OH229848   6.472   2.904   2.915 -0.3039 -0.2884  0.8531
 2786TIP3    H129849   6.463   2.845   2.840  1.3424 -1.2679  1.3654
 2786TIP3    H229850   6.557   2.946   2.902  1.4039 -2.5582  3.4648
 2787TIP3   OH229851   3.604   1.316  12.356  0.2236  0.3186  0.5829
 2787TIP3    H129852   3.649   1.330  12.272  0.2198 -0.2247  0.4892
 2787TIP3    H229853   3.546   1.392  12.364 -1.4344 -0.7075 -0.9913
 2788TIP3   OH229854   6.283   6.384   0.201  0.5453  0.8784  0.7057
 2788TIP3    H129855   6.244   6.343   0.124 -0.1921 -0.9026  1.9652
 2788TIP3    H229856   6.376   6.390   0.181  0.3388  0.6170 -0.3850
 2789TIP3   OH229857   5.300   4.804   3.727 -0.5891  0.0383 -0.1642
 2789TIP3    H129858   5.240   4.779   3.657  0.3049  2.1842 -1.8037
 2789TIP3    H229859   5.379   4.834   3.682  0.1209  1.2885  1.7635
 2790TIP3   OH229860   6.247   5.455  14.036 -0.0520  0.3303  0.0345
 2790TIP3    H129861   6.267   5.389  14.103  0.5834  1.0822  0.6070
 2790TIP3    H229862   6.286   5.535  14.070 -1.1497  1.0966 -0.4666
 2791TIP3   OH229863   1.622   6.083   6.513  0.0140  0.0063  0.0463
 2791TIP3    H129864   1.681   6.158   6.519  0.6894 -0.6270  2.0779
 2791TIP3    H229865   1.564   6.104   6.440  0.8028  2.0565 -0.0521
 2792TIP3   OH229866   3.128   2.116   1.034 -0.1669  0.2644 -0.0684
 2792TIP3    H129867   3.191   2.187   1.018 -0.7926  0.7031 -0.6715
 2792TIP3    H229868   3.173   2.037   1.006  0.1926  0.5492 -0.3029
 2793TIP3   OH229869   1.655   4.625   3.687 -0.1143 -0.9925 -0.3204
 2793TIP3    H129870   1.587   4.658   3.746  1.5096  0.7834  0.6786
 2793TIP3    H229871   1.611   4.614   3.603 -1.6355  0.1541  0.2841
 2794TIP3   OH229872   4.572   6.373  12.371  0.1476 -1.0612 -0.1786
 2794TIP3    H129873   4.605   6.363  12.282  0.8971  0.6957 -0.1396
 2794TIP3    H229874   4.631   6.322  12.425  1.6457  0.3963 -0.3568
 2795TIP3   OH229875   5.334   1.902  15.251  0.0780 -0.6871 -0.1851
 2795TIP3    H129876   5.347   1.949  15.168 -1.4307  0.2717  0.0910
 2795TIP3    H229877   5.248   1.861  15.241 -0.1555 -0.4838  0.9418
 2796TIP3   OH229878   3.590   1.884   4.087 -0.8100  0.1709 -0.2283
 2796TIP3    H129879   3.644   1.946   4.039  1.0769 -0.6635  0.7019
 2796TIP3    H229880   3.587   1.806   4.031  0.3762 -0.3662  0.4150
 2797TIP3   OH229881   0.952   0.504   5.675  0.4437 -0.4731 -0.5892
 2797TIP3    H129882   1.003   0.585   5.678 -0.0920 -0.1667  0.2813
 2797TIP3    H229883   1.006   0.441   5.724 -0.5186  0.1604  1.3869
 2798TIP3   OH229884   5.846   3.684   1.640  0.1564  0.3938  0.3966
 2798TIP3    H129885   5.763   3.729   1.627  0.8505  1.4727 -0.4578
 2798TIP3    H229886   5.862   3.689   1.734 -0.9885 -0.3030  0.6470
 2799TIP3   OH229887   5.371   1.115   3.461  0.3168 -0.0560 -0.0487
 2799TIP3    H129888   5.315   1.190   3.482  0.0931 -0.5411  1.1936
 2799TIP3    H229889   5.417   1.141   3.382 -1.8272  0.2828 -1.2738
 2800TIP3   OH229890   1.288   0.311   2.445 -0.0009  0.2195 -0.6871
 2800TIP3    H129891   1.251   0.244   2.388  2.3679 -0.9509 -0.9450
 2800TIP3    H229892   1.338   0.367   2.387  3.1337 -1.4572  0.1887
 2801TIP3   OH229893   5.785   6.805   5.077  0.4718  0.6146 -0.3581
 2801TIP3    H129894   5.758   6.873   5.140 -0.0541  0.7126 -0.6897
 2801TIP3    H229895   5.703   6.769   5.044  0.7513  0.0456 -0.4388
 2802TIP3   OH229896   4.665   3.171   4.044 -0.0108 -0.1508 -0.2816
 2802TIP3    H129897   4.652   3.099   3.983  2.9445 -0.3642 -0.8285
 2802TIP3    H229898   4.646   3.250   3.994 -0.3616 -0.4301 -0.5893
 2803TIP3   OH229899   4.453   5.076  16.313  0.1526  0.0830 -0.2411
 2803TIP3    H129900   4.459   4.988  16.276  0.3129 -0.1220  0.2672
 2803TIP3    H229901   4.378   5.116  16.269 -0.6715 -0.7299  0.4142
 2804TIP3   OH229902   3.782   0.943  14.044 -0.3099  0.1568 -0.1768
 2804TIP3    H129903   3.796   0.883  13.971 -0.1499  0.0288 -0.0420
 2804TIP3    H229904   3.867   0.949  14.088 -0.2389  0.7464 -0.3849
 2805TIP3   OH229905   2.630   4.719  11.130 -0.3832 -0.1973  0.6277
 2805TIP3    H129906   2.556   4.770  11.098 -1.1725 -1.2220  0.7854
 2805TIP3    H229907   2.648   4.655  11.061 -1.6426 -1.9509  1.8279
 2806TIP3   OH229908   4.065   2.844  15.583 -0.4772  0.5273 -0.0340
 2806TIP3    H129909   4.051   2.831  15.489 -0.4554  0.6097 -0.0481
 2806TIP3    H229910   4.039   2.934  15.599  0.2118  0.7405 -0.0983
 2807TIP3   OH229911   1.518   2.933  15.214 -0.0838  0.1727  0.3476
 2807TIP3    H129912   1.534   2.853  15.165  0.9573 -0.3692  1.5258
 2807TIP3    H229913   1.567   3.000  15.166 -0.3598 -0.0238 -0.2231
 2808TIP3   OH229914   6.210   5.146  12.731 -0.1730 -0.0417 -0.8716
 2808TIP3    H129915   6.268   5.077  12.700 -0.4315 -0.7330  0.1291
 2808TIP3    H229916   6.124   5.125  12.695  0.0330  0.5538 -1.7249
 2809TIP3   OH229917   1.942   3.798  14.755  0.4316 -0.0275  0.5660
 2809TIP3    H129918   1.944   3.893  14.762  0.9895 -0.0383  0.6447
 2809TIP3    H229919   2.020   3.776  14.703 -0.9934 -0.2922 -1.5775
 2810TIP3   OH229920   2.072   5.161  14.258 -0.0422 -0.1405 -0.1742
 2810TIP3    H129921   2.129   5.175  14.182  0.9851  3.0963  1.0105
 2810TIP3    H229922   1.999   5.221  14.245 -0.5415 -0.5301  0.7418
 2811TIP3   OH229923   0.503   2.075  12.152  0.2938  0.2632 -0.2373
 2811TIP3    H129924   0.460   2.018  12.088 -1.5040 -0.1533  1.2432
 2811TIP3    H229925   0.593   2.043  12.157 -0.1598 -1.1779 -0.8389
 2812TIP3   OH229926   3.331   5.364  17.065  0.0310  0.0055 -0.2446
 2812TIP3    H129927   3.248   5.368  17.018  1.0277 -1.7120 -2.2970
 2812TIP3    H229928   3.320   5.292  17.127 -0.0950 -0.0584 -0.3415
 2813TIP3   OH229929   3.289   1.018   1.169 -0.0953 -0.1231 -0.3831
 2813TIP3    H129930   3.226   1.014   1.241 -0.5639  0.8314 -0.7193
 2813TIP3    H229931   3.235   1.011   1.090  0.4563 -1.6643 -0.6641
 2814TIP3   OH229932   1.534   0.537  16.610 -0.4111 -0.4574 -0.0017
 2814TIP3    H129933   1.558   0.526  16.518  1.1136 -0.9172  0.4162
 2814TIP3    H229934   1.618   0.544  16.655 -1.1392 -0.0422  1.3398
 2815TIP3   OH229935   1.427   4.004  15.656 -0.1294  0.2001 -1.0678
 2815TIP3    H129936   1.491   3.937  15.633 -0.1028  0.2634 -1.1832
 2815TIP3    H229937   1.352   3.956  15.690  0.6819  0.2067  0.8369
 2816TIP3   OH229938   0.667   0.596   0.403 -0.2985 -0.0512  0.2821
 2816TIP3    H129939   0.605   0.526   0.421  0.2821 -1.1598 -1.7210
 2816TIP3    H229940   0.615   0.666   0.366 -0.5988 -0.2080  0.4058
 2817TIP3   OH229941   3.841   4.765   5.248 -0.7110  0.4861 -0.1341
 2817TIP3    H129942   3.897   4.691   5.224  2.3272  1.0110  4.2799
 2817TIP3    H229943   3.880   4.839   5.202 -0.6574  0.1652 -0.6245
 2818TIP3   OH229944   2.101   5.672  15.416  0.4016  0.4303 -0.4516
 2818TIP3    H129945   2.015   5.707  15.438  0.7609  0.1735  1.6657
 2818TIP3    H229946   2.138   5.736  15.355 -0.1797  2.1121  0.8739
 2819TIP3   OH229947   6.384   1.643  16.008 -0.2731 -0.2410 -0.3839
 2819TIP3    H129948   6.338   1.595  15.939  0.0466 -3.3124  1.3542
 2819TIP3    H229949   6.431   1.575  16.057  1.6070  2.1126  1.2965
 2820TIP3   OH229950   1.106   5.725  11.173 -0.0349 -0.1315 -0.7136
 2820TIP3    H129951   1.136   5.745  11.085  0.4147 -0.0655 -0.5512
 2820TIP3    H229952   1.028   5.671  11.161  0.8419 -1.3424 -1.1604
 2821TIP3   OH229953   2.389   2.922  11.905  0.0257 -0.1309 -0.1802
 2821TIP3    H129954   2.445   2.849  11.929  1.2962  0.4111 -1.3324
 2821TIP3    H229955   2.428   2.998  11.950 -1.1622 -0.1080  0.8521
 2822TIP3   OH229956   1.304   2.420  16.715  0.2335  0.1563  0.1582
 2822TIP3    H129957   1.344   2.333  16.716  1.8954  0.8781  0.6156
 2822TIP3    H229958   1.276   2.434  16.805 -3.5374 -1.3374 -0.5893
 2823TIP3   OH229959   0.357   1.052  12.854 -0.0356  0.4711  0.4642
 2823TIP3    H129960   0.283   1.113  12.862  0.5097  1.0346  1.4005
 2823TIP3    H229961   0.398   1.075  12.771 -1.1022 -0.0745 -0.2323
 2824TIP3   OH229962   2.910   3.959  15.930 -0.4382 -0.3506  0.1547
 2824TIP3    H129963   2.902   3.865  15.913 -0.7899 -0.5725  1.4489
 2824TIP3    H229964   2.889   3.968  16.023  0.2991  0.9236  0.2104
 2825TIP3   OH229965   3.112   4.662   1.453 -0.3395  0.1933 -0.3177
 2825TIP3    H129966   3.132   4.569   1.442  0.9709  0.6004 -1.7018
 2825TIP3    H229967   3.020   4.663   1.480 -0.5880 -1.4938 -0.9480
 2826TIP3   OH229968   1.554   2.150   4.773  0.0583 -0.3886 -0.6589
 2826TIP3    H129969   1.516   2.202   4.702  1.4853  0.8582 -0.5430
 2826TIP3    H229970   1.574   2.213   4.842 -0.5083 -1.4636  0.5352
 2827TIP3   OH229971   4.643   3.483   3.101  0.7603  0.5528 -0.3287
 2827TIP3    H129972   4.714   3.442   3.051 -0.9522 -2.0448 -0.8672
 2827TIP3    H229973   4.580   3.511   3.034  0.6359  1.5975  0.2009
 2828TIP3   OH229974   5.405   4.147  15.215 -0.0966  0.5211 -0.1966
 2828TIP3    H129975   5.441   4.138  15.126  0.6372  2.0939 -0.0874
 2828TIP3    H229976   5.325   4.199  15.203 -0.7475 -0.4289 -0.0796
 2829TIP3   OH229977   0.369   6.286   3.288  0.5423  0.2302 -0.7441
 2829TIP3    H129978   0.287   6.324   3.259  0.0280  0.6236  1.0976
 2829TIP3    H229979   0.435   6.354   3.271  0.4386  0.0732 -1.8349
 2830TIP3   OH229980   4.289   4.396   4.718 -0.1409  0.5114 -0.7303
 2830TIP3    H129981   4.323   4.314   4.753 -1.0071  0.0115 -1.0130
 2830TIP3    H229982   4.366   4.445   4.690  0.3069 -1.0115 -2.3054
 2831TIP3   OH229983   5.169   6.075  11.779  0.3739  0.0346  0.0443
 2831TIP3    H129984   5.142   5.984  11.793  1.0729 -0.1352  0.2985
 2831TIP3    H229985   5.238   6.090  11.843  0.2210  0.7674  0.0463
 2832TIP3   OH229986   1.837   4.834   6.204  0.4185  0.4801  0.3706
 2832TIP3    H129987   1.901   4.878   6.261 -0.7348  0.7469  1.5372
 2832TIP3    H229988   1.753   4.869   6.234 -0.5619 -2.3618  1.2273
 2833TIP3   OH229989   3.373   2.099  15.134  0.7313  0.4358  0.5034
 2833TIP3    H129990   3.382   2.148  15.216  3.1331  2.1006 -0.6468
 2833TIP3    H229991   3.322   2.156  15.077 -0.7856 -0.6469  0.7206
 2834TIP3   OH229992   4.504   1.400  10.214  0.0092  0.1103  0.5136
 2834TIP3    H129993   4.566   1.344  10.262 -0.7528 -1.8815 -0.6698
 2834TIP3    H229994   4.558   1.467  10.174  1.0395  0.0058  1.6745
 2835TIP3   OH229995   5.483   4.268  12.533 -0.0665 -0.5021  0.4618
 2835TIP3    H129996   5.466   4.204  12.602 -4.1551 -3.1127 -2.4631
 2835TIP3    H229997   5.407   4.327  12.536  0.1912 -0.0347 -1.0764
 2836TIP3   OH229998   5.002   6.242   0.492 -0.2944 -0.1372 -0.3930
 2836TIP3    H129999   5.008   6.194   0.409 -0.7703 -1.2822  0.2255
 2836TIP3    H230000   5.092   6.249   0.522 -0.3370 -2.0209  0.2674
 2837TIP3   OH230001   1.381   5.668  11.587 -0.2460  0.7597 -0.5692
 2837TIP3    H130002   1.458   5.701  11.541 -0.2165 -0.8812 -1.7655
 2837TIP3    H230003   1.404   5.675  11.680  1.1063  0.8605 -0.8920
 2838TIP3   OH230004   0.563   5.777   5.674 -0.5105 -0.2849  0.0204
 2838TIP3    H130005   0.651   5.749   5.699 -0.9407 -2.7704 -0.9746
 2838TIP3    H230006   0.575   5.864   5.636  1.4113 -0.3146  0.4597
 2839TIP3   OH230007   2.250   2.283  15.043 -0.3957 -0.0511 -0.0732
 2839TIP3    H130008   2.293   2.368  15.033 -0.5977  0.1882  0.9413
 2839TIP3    H230009   2.183   2.298  15.111 -0.6461 -0.9362 -0.1174
 2840TIP3   OH230010   2.330   0.920  12.995  0.2625  0.1338  0.5244
 2840TIP3    H130011   2.299   0.985  13.058 -2.1276 -0.7342  0.3444
 2840TIP3    H230012   2.254   0.864  12.979  1.1021 -0.3727 -2.2367
 2841TIP3   OH230013   1.625   3.449   1.914  0.3389 -0.3397  0.0038
 2841TIP3    H130014   1.543   3.492   1.936  0.4985 -0.6952  1.3868
 2841TIP3    H230015   1.633   3.460   1.819  0.3018  2.5230  0.2357
 2842TIP3   OH230016   1.499   0.374   4.895  0.0687  0.3170  0.3011
 2842TIP3    H130017   1.572   0.436   4.889 -0.4098  0.7747 -1.2797
 2842TIP3    H230018   1.536   0.291   4.866  0.4619  0.0792  1.4618
 2843TIP3   OH230019   1.639   0.370  15.258 -0.0617  0.4262  0.1240
 2843TIP3    H130020   1.592   0.305  15.309  0.2399  0.6759  0.7361
 2843TIP3    H230021   1.710   0.321  15.216 -0.3222  0.2164 -0.0749
 2844TIP3   OH230022   1.408   4.390  11.552  0.2684 -0.1632 -0.5555
 2844TIP3    H130023   1.382   4.313  11.502  0.7633  0.6131 -2.0712
 2844TIP3    H230024   1.469   4.437  11.495  0.7107  0.8697  0.7089
 2845TIP3   OH230025   3.546   0.556   2.313  0.7252  0.3816  0.5472
 2845TIP3    H130026   3.458   0.541   2.347  0.2284  0.0896 -0.7973
 2845TIP3    H230027   3.604   0.535   2.387 -0.2304 -1.7244  0.7901
 2846TIP3   OH230028   3.514   0.945  11.426  0.4179  0.0781 -0.0492
 2846TIP3    H130029   3.564   0.964  11.506  2.1062 -1.5767 -0.6362
 2846TIP3    H230030   3.574   0.968  11.355  0.1389 -1.3965 -0.7907
 2847TIP3   OH230031   1.159   5.705  14.176  0.1781  0.4949 -0.0141
 2847TIP3    H130032   1.136   5.645  14.105  0.4018  1.3802 -0.8576
 2847TIP3    H230033   1.249   5.683  14.198 -0.2404 -0.5022  0.7454
 2848TIP3   OH230034   1.120   0.363  14.378 -0.0443  0.3023 -0.5171
 2848TIP3    H130035   1.164   0.322  14.304  0.6298  0.6012 -0.2934
 2848TIP3    H230036   1.062   0.295  14.413 -0.4438  0.1870 -1.3627
 2849TIP3   OH230037   5.231   4.468   1.087 -0.1811 -0.2155  0.1050
 2849TIP3    H130038   5.237   4.513   1.171  0.8680  0.0849 -0.1121
 2849TIP3    H230039   5.297   4.399   1.092 -0.7005 -0.7399 -0.1569
 2850TIP3   OH230040   0.575   1.236   1.550  0.3412  0.3248  0.7652
 2850TIP3    H130041   0.539   1.183   1.479  0.3481  0.7815  0.4103
 2850TIP3    H230042   0.622   1.174   1.605  0.0162 -0.0957  0.5798
 2851TIP3   OH230043   5.565   6.657   5.984  0.1479  0.0833 -0.0869
 2851TIP3    H130044   5.572   6.729   5.921 -1.1009  0.9720  0.7471
 2851TIP3    H230045   5.529   6.585   5.933  0.5507  0.3315 -0.7320
 2852TIP3   OH230046   5.893   0.955  13.394 -0.5157 -0.2431 -0.1083
 2852TIP3    H130047   5.939   0.904  13.460  0.1183  1.0259  0.4629
 2852TIP3    H230048   5.828   0.895  13.358 -0.7610 -1.0248  1.5474
 2853TIP3   OH230049   0.093   4.067  11.697  0.0050  0.0609 -0.8016
 2853TIP3    H130050   0.098   4.106  11.784 -0.7709 -1.9812  0.2345
 2853TIP3    H230051   0.001   4.042  11.687  0.4105 -1.2758 -1.4664
 2854TIP3   OH230052   5.431   2.294  11.221 -0.2595 -0.4844 -0.0521
 2854TIP3    H130053   5.346   2.336  11.214 -0.1771 -0.3893 -0.4932
 2854TIP3    H230054   5.491   2.353  11.176 -0.0618 -0.8351 -0.2559
 2855TIP3   OH230055   2.486   2.201   0.925  0.3493 -0.0529  0.4434
 2855TIP3    H130056   2.538   2.174   0.849  1.6741  0.8921  0.9715
 2855TIP3    H230057   2.402   2.227   0.888  1.2320  1.1453 -0.8108
 2856TIP3   OH230058   1.483   5.530   3.356 -0.0594 -0.1416 -0.2179
 2856TIP3    H130059   1.450   5.454   3.405  0.7784  1.0017  2.2471
 2856TIP3    H230060   1.435   5.604   3.392  2.3561  1.0590  0.7233
 2857TIP3   OH230061   5.550   6.238  14.257 -0.1258 -0.1649 -0.0723
 2857TIP3    H130062   5.588   6.152  14.238  1.3106  0.5217 -0.4158
 2857TIP3    H230063   5.614   6.280  14.315 -0.8971  0.6176  0.2256
 2858TIP3   OH230064   2.643   1.482  16.436  0.2940 -0.0736 -0.2848
 2858TIP3    H130065   2.722   1.448  16.393  0.0691  0.8073 -1.4342
 2858TIP3    H230066   2.676   1.548  16.497  0.4230  0.8968 -1.3637
 2859TIP3   OH230067   0.105   5.151  11.561 -0.0224 -0.7413 -0.0450
 2859TIP3    H130068   0.105   5.101  11.480  0.7840  1.7695 -1.7095
 2859TIP3    H230069   0.133   5.088  11.628 -1.5543 -3.1153 -1.4932
 2860TIP3   OH230070   0.339   4.729   3.773 -0.1561  0.1246 -0.2446
 2860TIP3    H130071   0.281   4.656   3.792  0.4183 -0.1097  0.6562
 2860TIP3    H230072   0.303   4.802   3.823 -0.7578  0.4903 -1.1812
 2861TIP3   OH230073   4.274   2.286  15.063 -0.7657  0.4859 -0.5885
 2861TIP3    H130074   4.349   2.235  15.031 -1.1979 -0.0277 -0.7923
 2861TIP3    H230075   4.244   2.239  15.140  1.6256  2.8691  2.0299
 2862TIP3   OH230076   2.959   4.239  11.221 -0.8801  0.2604 -0.9904
 2862TIP3    H130077   2.907   4.161  11.202 -0.7885  0.1043 -0.6139
 2862TIP3    H230078   2.894   4.309  11.228 -1.1789 -0.1392  0.6144
 2863TIP3   OH230079   3.087   5.556   3.983 -0.2710 -0.4624 -1.0061
 2863TIP3    H130080   3.159   5.584   3.927 -0.9875  0.4407 -1.4850
 2863TIP3    H230081   3.012   5.550   3.925 -1.0828  0.7459 -0.1134
 2864TIP3   OH230082   4.189   2.964  12.412  0.0210  0.1344 -0.0337
 2864TIP3    H130083   4.209   3.046  12.366  0.6342  0.4222  0.7145
 2864TIP3    H230084   4.250   2.963  12.486  1.2236 -1.8364 -0.9768
 2865TIP3   OH230085   0.430   0.689   3.679 -0.2980  0.5343  0.4720
 2865TIP3    H130086   0.400   0.747   3.749  0.1262  0.2820  0.8692
 2865TIP3    H230087   0.351   0.643   3.650 -0.3612  0.1569  1.2393
 2866TIP3   OH230088   1.648   5.429  15.902 -0.2483  0.0148  0.1727
 2866TIP3    H130089   1.629   5.373  15.977  0.9602 -0.3540  0.2244
 2866TIP3    H230090   1.727   5.393  15.864 -0.2040  0.8823 -0.6122
 2867TIP3   OH230091   0.195   1.524   3.773  0.5278  0.0162  0.1713
 2867TIP3    H130092   0.283   1.489   3.788  0.6863  0.4687  0.2877
 2867TIP3    H230093   0.194   1.548   3.680 -0.8040 -3.8168 -1.0406
 2868TIP3   OH230094   4.943   5.486  13.603  0.4349 -0.0336  0.3709
 2868TIP3    H130095   4.974   5.521  13.520  1.9689 -2.6680 -0.3089
 2868TIP3    H230096   4.849   5.475  13.591  0.6950 -0.8274 -1.2557
 2869TIP3   OH230097   1.909   3.072   5.719  0.7453 -0.0166 -0.2294
 2869TIP3    H130098   1.938   3.162   5.731  0.9005 -0.0941 -0.0209
 2869TIP3    H230099   1.976   3.019   5.762  0.8580 -0.2535 -0.6906
 2870TIP3   OH230100   0.606   0.248  10.918 -0.0875 -0.8745  0.4209
 2870TIP3    H130101   0.538   0.302  10.879  1.7718  0.9345 -0.4685
 2870TIP3    H230102   0.651   0.209  10.843  2.6789  1.5794  0.6372
 2871TIP3   OH230103   2.351   5.813   4.738  0.0050  0.2061 -0.4741
 2871TIP3    H130104   2.397   5.837   4.818  0.1147 -1.1006 -0.1146
 2871TIP3    H230105   2.412   5.756   4.691 -1.0630 -1.2378 -0.1830
 2872TIP3   OH230106   3.404   6.378   0.031 -0.5674  0.2171 -0.0837
 2872TIP3    H130107   3.410   6.360   0.125 -0.5182  2.4681  0.3890
 2872TIP3    H230108   3.310   6.372   0.012 -0.6874  0.6649  0.3288
 2873TIP3   OH230109   2.080   3.929   5.611  0.2861  0.3589  0.2322
 2873TIP3    H130110   2.086   3.841   5.646  0.3809  0.4485  0.4420
 2873TIP3    H230111   2.079   3.986   5.688  1.0150  0.5832  0.0851
 2874TIP3   OH230112   0.290   6.494  12.678  0.4494 -0.0370  0.3689
 2874TIP3    H130113   0.272   6.400  12.684  0.7923 -0.1413 -0.1965
 2874TIP3    H230114   0.207   6.536  12.699  0.7221 -0.4143  2.5228
 2875TIP3   OH230115   1.658   4.491  12.140  0.2304 -0.0750  0.4201
 2875TIP3    H130116   1.679   4.534  12.057 -1.2847 -0.2581 -0.0815
 2875TIP3    H230117   1.690   4.401  12.129 -0.1791 -0.1642 -0.0594
 2876TIP3   OH230118   4.288   5.485   5.346 -0.3465 -0.7412  0.3619
 2876TIP3    H130119   4.356   5.428   5.383 -1.5130 -2.3453  0.1190
 2876TIP3    H230120   4.228   5.501   5.418 -0.3993 -0.3899  0.2426
 2877TIP3   OH230121   5.737   5.090   0.876 -0.4007 -0.5735 -0.0451
 2877TIP3    H130122   5.794   5.141   0.818  0.6105 -0.8793  0.6607
 2877TIP3    H230123   5.689   5.156   0.926  0.4410 -0.3114  0.4218
 2878TIP3   OH230124   5.610   4.329  16.043 -0.2512  0.7735  0.0982
 2878TIP3    H130125   5.569   4.409  16.009  0.2260  0.7543 -0.5472
 2878TIP3    H230126   5.610   4.341  16.138  1.4587  2.3946 -0.0372
 2879TIP3   OH230127   2.259   3.938  16.204 -0.4158 -0.1894  0.3630
 2879TIP3    H130128   2.253   3.913  16.112 -3.3730 -3.0916  1.1584
 2879TIP3    H230129   2.258   3.855  16.251  3.6972  0.9820  3.1310
 2880TIP3   OH230130   0.880   2.424   0.963  0.0841 -0.1764  0.2604
 2880TIP3    H130131   0.791   2.405   0.933 -0.2068 -0.6845  1.3860
 2880TIP3    H230132   0.873   2.426   1.058  1.3380 -0.5217  0.3784
 2881TIP3   OH230133   2.377   6.292  11.399 -0.4415  0.2164 -0.1911
 2881TIP3    H130134   2.423   6.248  11.470 -2.0774 -0.7254  0.3044
 2881TIP3    H230135   2.422   6.377  11.391  0.2912  0.0104  1.4014
 2882TIP3   OH230136   3.738   0.315  14.949 -0.9149  0.8523 -0.1389
 2882TIP3    H130137   3.760   0.405  14.973 -0.5831  0.6504  0.3174
 2882TIP3    H230138   3.663   0.293  15.003 -0.0871  0.3528  0.8399
 2883TIP3   OH230139   5.722   3.637   3.782 -0.1735  0.0472 -0.3997
 2883TIP3    H130140   5.709   3.579   3.706  0.1898  1.0742 -1.2643
 2883TIP3    H230141   5.812   3.618   3.810  0.0352  0.3608 -0.8398
 2884TIP3   OH230142   5.685   3.505   2.063 -0.1444  0.0237 -0.1821
 2884TIP3    H130143   5.683   3.551   2.147 -0.5266  1.5857 -1.0071
 2884TIP3    H230144   5.607   3.450   2.065  0.7243 -1.2186  1.1349
 2885TIP3   OH230145   5.642   4.866   5.535 -0.1214 -0.7583  0.5863
 2885TIP3    H130146   5.667   4.938   5.592  0.5370  0.2582 -0.9389
 2885TIP3    H230147   5.571   4.822   5.582  0.8645 -0.4101  2.4993
 2886TIP3   OH230148   4.233   6.175   3.609  0.0598  0.4180  0.3831
 2886TIP3    H130149   4.260   6.084   3.602 -0.7019  0.2258 -0.2356
 2886TIP3    H230150   4.255   6.200   3.699  2.6143  0.4203 -0.1724
 2887TIP3   OH230151   5.613   5.487  16.318  0.5532  0.1441 -0.0266
 2887TIP3    H130152   5.654   5.422  16.261  2.2745  1.8912 -0.8791
 2887TIP3    H230153   5.526   5.501  16.279  0.2635 -1.3495 -0.0015
 2888TIP3   OH230154   6.206   1.179  11.643  0.1063 -0.2429 -0.0253
 2888TIP3    H130155   6.283   1.188  11.587  0.7138 -0.6571  0.7259
 2888TIP3    H230156   6.156   1.108  11.603  0.3876 -0.3350 -0.2146
 2889TIP3   OH230157   3.925   6.658   1.660 -0.4838 -0.2381  0.0650
 2889TIP3    H130158   3.867   6.721   1.616 -1.3910 -1.9382 -1.3007
 2889TIP3    H230159   3.998   6.711   1.692 -0.5649  1.3439 -2.1247
 2890TIP3   OH230160   4.614   6.566  16.278  0.0828  0.2728  0.2629
 2890TIP3    H130161   4.673   6.610  16.217  1.6776 -1.6888  0.2805
 2890TIP3    H230162   4.557   6.513  16.222 -1.2490  1.6200  0.2901
 2891TIP3   OH230163   6.649   3.817   4.148  0.0994 -0.1422  0.2236
 2891TIP3    H130164   6.744   3.813   4.139  0.4393 -2.0303  3.2814
 2891TIP3    H230165   6.625   3.732   4.185 -2.5551  0.9081  1.1141
 2892TIP3   OH230166   0.507   3.240   2.599  0.8268  0.1399 -0.7618
 2892TIP3    H130167   0.514   3.199   2.513  0.5843  0.3350 -0.8727
 2892TIP3    H230168   0.470   3.171   2.655 -1.4095  0.7871 -1.3702
 2893TIP3   OH230169   6.041   1.805   2.585  0.1603 -0.1226 -0.1898
 2893TIP3    H130170   6.020   1.738   2.520 -3.1660 -0.0937  0.6980
 2893TIP3    H230171   6.052   1.885   2.534 -2.4396 -0.0910 -0.8573
 2894TIP3   OH230172   3.074   6.815  14.032  0.1766  0.5323  0.1123
 2894TIP3    H130173   3.026   6.732  14.029  2.0409 -0.6448  1.0829
 2894TIP3    H230174   3.012   6.877  14.070 -0.9656 -0.6534  0.2470
 2895TIP3   OH230175   2.960   3.526  15.163 -0.1598 -0.4888 -0.3363
 2895TIP3    H130176   2.958   3.602  15.105  1.1442 -1.1097 -1.2190
 2895TIP3    H230177   2.964   3.564  15.251 -0.4030  0.4556 -0.7184
 2896TIP3   OH230178   2.989   3.595   5.690  0.3612  0.0371 -0.7877
 2896TIP3    H130179   2.944   3.633   5.765  0.4047  0.1880 -0.8382
 2896TIP3    H230180   2.969   3.501   5.696  0.4461  0.0324 -0.5308
 2897TIP3   OH230181   2.136   5.587   5.264 -0.5885  0.0001 -0.1006
 2897TIP3    H130182   2.126   5.533   5.342 -1.4875 -1.2972 -1.0511
 2897TIP3    H230183   2.218   5.634   5.277  0.1278 -1.4400  0.9125
 2898TIP3   OH230184   2.033   2.980  14.734  0.4005 -0.1740  0.4554
 2898TIP3    H130185   2.010   2.942  14.650 -0.8286 -1.5410  1.3616
 2898TIP3    H230186   2.128   2.969  14.740  0.5493  0.2126 -0.8547
 2899TIP3   OH230187   1.732   5.286   1.492  0.0304  0.1001  0.4138
 2899TIP3    H130188   1.805   5.232   1.463  0.4656  0.7768  0.2365
 2899TIP3    H230189   1.656   5.251   1.446  0.0272 -1.3209  1.4306
 2900TIP3   OH230190   5.754   6.547  14.073 -0.5904 -0.7296  0.3299
 2900TIP3    H130191   5.686   6.563  14.139  0.0385 -1.9639  1.3238
 2900TIP3    H230192   5.835   6.575  14.116 -0.4985  1.3595 -1.0861
 2901TIP3   OH230193   6.424   1.215   2.538 -0.1159  0.5087 -0.0199
 2901TIP3    H130194   6.513   1.188   2.562  0.4596  1.7070 -0.7408
 2901TIP3    H230195   6.432   1.250   2.449 -1.4680 -0.1142 -0.4155
 2902TIP3   OH230196   0.835   1.931  13.119 -0.0135 -0.6774  0.2437
 2902TIP3    H130197   0.910   1.901  13.170 -0.0639 -0.3687  0.5066
 2902TIP3    H230198   0.834   1.875  13.041  0.5671 -0.6011  0.1762
 2903TIP3   OH230199   1.779   2.139   1.556  0.2170 -0.3210  0.3842
 2903TIP3    H130200   1.847   2.184   1.607 -0.6589 -1.1164  2.3578
 2903TIP3    H230201   1.697   2.178   1.585 -0.3459 -1.1357 -0.0752
 2904TIP3   OH230202   0.402   4.487  13.155 -0.6182  0.3033  0.5232
 2904TIP3    H130203   0.338   4.498  13.085  0.2448  1.2946 -0.1386
 2904TIP3    H230204   0.469   4.429  13.119 -0.9390 -0.4370  1.0840
 2905TIP3   OH230205   6.106   4.725  17.013  0.1733  0.4610  0.0223
 2905TIP3    H130206   6.057   4.805  17.030  0.5122  0.8845 -0.9609
 2905TIP3    H230207   6.191   4.754  16.980 -0.7051 -0.2155 -3.2745
 2906TIP3   OH230208   3.006   5.985   1.621 -0.3047  0.1579  0.0885
 2906TIP3    H130209   3.076   6.015   1.564 -0.2992  0.6172  0.3319
 2906TIP3    H230210   2.935   5.960   1.561 -0.5610  1.2942 -0.1072
 2907TIP3   OH230211   0.847   3.024   0.575  0.5047 -0.3553 -0.4486
 2907TIP3    H130212   0.849   2.930   0.590  1.9965 -0.2187  0.3846
 2907TIP3    H230213   0.869   3.034   0.482 -0.7406 -0.8413 -0.8249
 2908TIP3   OH230214   1.391   4.625  16.858 -0.3973 -0.1954 -0.0470
 2908TIP3    H130215   1.317   4.635  16.799  0.6375 -0.2683 -1.3940
 2908TIP3    H230216   1.355   4.646  16.945 -2.0873 -0.6816 -0.5942
 2909TIP3   OH230217   3.888   3.123   3.531 -0.5260  0.1022 -0.8330
 2909TIP3    H130218   3.819   3.065   3.499 -0.9981 -0.4018  0.9969
 2909TIP3    H230219   3.918   3.083   3.612  2.0524  0.2552 -1.6144
 2910TIP3   OH230220   4.060   5.087   4.719  0.1017  0.1072 -0.3889
 2910TIP3    H130221   4.030   5.115   4.632 -1.2816  2.7383  0.8043
 2910TIP3    H230222   4.014   5.005   4.735 -0.1613 -0.0606 -1.8595
 2911TIP3   OH230223   5.653   4.249   2.390 -0.2046  0.4728 -0.3983
 2911TIP3    H130224   5.717   4.181   2.414  0.4358  0.3579 -2.2486
 2911TIP3    H230225   5.661   4.314   2.459  1.9552  0.4602 -0.5433
 2912TIP3   OH230226   0.717   3.126  17.063  0.2869 -0.1735 -0.0583
 2912TIP3    H130227   0.633   3.129  17.016  0.9810 -2.8979 -1.6695
 2912TIP3    H230228   0.777   3.081  17.003  2.0773 -1.0589  2.2389
 2913TIP3   OH230229   1.492   5.042   1.896 -0.1040 -0.6226 -0.0078
 2913TIP3    H130230   1.454   5.055   1.809 -0.1745 -2.8730 -0.3721
 2913TIP3    H230231   1.571   5.095   1.895  0.6083 -1.5829 -1.9741
 2914TIP3   OH230232   2.919   0.991   1.555 -0.1265  0.1461  0.8148
 2914TIP3    H130233   2.908   1.049   1.631 -2.3799  1.0471 -0.1214
 2914TIP3    H230234   2.844   0.932   1.559 -0.0116 -0.0985 -0.4367
 2915TIP3   OH230235   2.876   5.504   2.822  0.1682 -0.1254  0.1952
 2915TIP3    H130236   2.873   5.439   2.752  0.3331  0.5249 -0.4337
 2915TIP3    H230237   2.817   5.471   2.889 -1.6643  0.2390 -1.1459
 2916TIP3   OH230238   3.174   4.249   3.223 -0.3757 -0.5018  0.0384
 2916TIP3    H130239   3.133   4.183   3.278  0.2442  0.3035  1.5418
 2916TIP3    H230240   3.106   4.315   3.210 -0.8853 -1.2545 -1.1664
 2917TIP3   OH230241   0.985   5.252   3.841 -0.1731  0.0148  0.7289
 2917TIP3    H130242   0.979   5.230   3.748  0.3319 -0.2114  0.7486
 2917TIP3    H230243   0.931   5.331   3.850 -0.9794 -0.4913  0.4232
 2918TIP3   OH230244   1.252   1.743   1.704  0.6351  0.0575  0.2636
 2918TIP3    H130245   1.188   1.685   1.746  2.2656 -1.3846  0.8902
 2918TIP3    H230246   1.199   1.811   1.663 -1.1791  0.4668  2.9818
 2919TIP3   OH230247   1.946   2.577  11.640 -0.3519 -0.1854 -0.0135
 2919TIP3    H130248   1.912   2.624  11.564 -0.1737 -1.0524 -0.6429
 2919TIP3    H230249   1.881   2.508  11.656  0.7225 -1.4074 -0.7805
 2920TIP3   OH230250   0.240   1.935  10.965 -0.0699 -0.0395  0.4543
 2920TIP3    H130251   0.229   2.013  11.019 -3.5332  0.1293 -0.2214
 2920TIP3    H230252   0.232   1.967  10.875  1.3441 -0.8472  0.0206
 2921TIP3   OH230253   0.398   2.797   5.076 -0.2229 -0.4744 -0.1031
 2921TIP3    H130254   0.345   2.826   5.002 -1.8106 -3.6239 -0.3518
 2921TIP3    H230255   0.481   2.770   5.037  0.2536  1.0361 -0.2028
 2922TIP3   OH230256   1.180   1.811  12.609  0.3874 -0.5620 -0.2811
 2922TIP3    H130257   1.195   1.791  12.701 -0.8564  1.0704  0.3303
 2922TIP3    H230258   1.178   1.725  12.566  1.3363 -1.3331  1.1334
 2923TIP3   OH230259   2.140   5.793  11.570 -0.3649  0.8244  0.3345
 2923TIP3    H130260   2.127   5.762  11.660  1.4087 -2.3861 -0.3586
 2923TIP3    H230261   2.120   5.717  11.516  3.1354  1.1366 -1.6563
 2924TIP3   OH230262   2.286   2.362   6.353  0.0636 -0.3481  0.0462
 2924TIP3    H130263   2.256   2.441   6.308 -0.0399 -0.5012 -0.1553
 2924TIP3    H230264   2.381   2.370   6.355 -0.0354  0.9610  2.1713
 2925TIP3   OH230265   2.080   1.123  11.777 -0.2305  0.2095  0.1950
 2925TIP3    H130266   2.047   1.206  11.812  0.0943 -0.1326  1.3509
 2925TIP3    H230267   2.018   1.101  11.707  0.5262  2.1583 -1.1850
 2926TIP3   OH230268   2.989   0.022  11.462  0.5173 -0.6905 -1.1603
 2926TIP3    H130269   2.908   0.004  11.509  1.3814 -0.4787  0.4966
 2926TIP3    H230270   2.994   0.117  11.457  0.3879 -0.7120 -1.7868
 2927TIP3   OH230271   2.243   4.200  15.244  0.2361 -0.1540 -0.4222
 2927TIP3    H130272   2.236   4.149  15.163  3.9169  0.8541 -1.5862
 2927TIP3    H230273   2.190   4.151  15.308 -1.6087 -1.7952 -3.0094
 2928TIP3   OH230274   1.151   4.235   1.155 -0.3470 -0.1001  0.2060
 2928TIP3    H130275   1.172   4.193   1.072 -0.0250  0.9575 -0.2587
 2928TIP3    H230276   1.232   4.279   1.181 -0.6826  0.2474  0.6848
 2929TIP3   OH230277   1.323   6.691   3.264  0.0519  0.7448 -0.0116
 2929TIP3    H130278   1.369   6.648   3.335 -1.5099 -1.0133  0.0079
 2929TIP3    H230279   1.231   6.687   3.289 -0.2558  3.5874 -0.3334
 2930TIP3   OH230280   0.219   0.417  16.309  0.5485  0.0140  0.7117
 2930TIP3    H130281   0.220   0.511  16.328  0.5739  0.1395  0.0994
 2930TIP3    H230282   0.310   0.389  16.325  0.5210  0.0727  0.9794
 2931TIP3   OH230283   0.011   1.639  12.033 -0.4794  0.2241  0.1708
 2931TIP3    H130284   0.021   1.618  12.125  0.5082  0.4344  0.1153
 2931TIP3    H230285   0.060   1.571  11.987  1.3495  1.6372 -0.0676
 2932TIP3   OH230286   1.534   0.091   4.836  0.4276 -0.2715  0.0065
 2932TIP3    H130287   1.446   0.054   4.839 -0.1932  1.1445  0.1486
 2932TIP3    H230288   1.565   0.073   4.747 -0.6720  0.6261 -0.5832
 2933TIP3   OH230289   0.397   4.125   2.713  0.2161 -0.3138  0.2863
 2933TIP3    H130290   0.444   4.139   2.796  2.9561  2.6803 -1.5104
 2933TIP3    H230291   0.319   4.181   2.720  1.0426  0.8574  0.4715
 2934TIP3   OH230292   0.329   1.285  16.838 -0.6722  0.0668 -0.1538
 2934TIP3    H130293   0.296   1.316  16.754 -2.1144 -1.7940 -0.3546
 2934TIP3    H230294   0.346   1.365  16.889 -1.2476  1.1851 -1.6496
 2935TIP3   OH230295   2.520   0.740  12.874 -0.0319  0.0980 -0.0563
 2935TIP3    H130296   2.466   0.810  12.909  1.5199  2.3564 -1.8885
 2935TIP3    H230297   2.463   0.694  12.812 -1.3506 -0.9575  1.8529
 2936TIP3   OH230298   3.620   3.435   1.410 -0.3273  0.7370  0.1094
 2936TIP3    H130299   3.612   3.486   1.491 -0.0610 -0.1028  0.6864
 2936TIP3    H230300   3.703   3.388   1.421 -1.2980 -1.0140  0.3098
 2937TIP3   OH230301   2.755   4.263  12.814  0.1201  0.3742 -0.2041
 2937TIP3    H130302   2.850   4.269  12.813  0.0728  1.7957  0.6549
 2937TIP3    H230303   2.731   4.247  12.723  1.1567  0.3945 -0.4877
 2938TIP3   OH230304   0.942   3.223  14.695 -0.0679 -0.0615  0.7083
 2938TIP3    H130305   0.973   3.147  14.744 -0.5198  0.1094  1.2734
 2938TIP3    H230306   0.864   3.192  14.650  0.3118 -0.2008  0.1270
 2939TIP3   OH230307   6.268   0.195  14.370 -0.4086 -0.2797  0.3436
 2939TIP3    H130308   6.205   0.239  14.427 -0.9304 -1.1128  0.4315
 2939TIP3    H230309   6.256   0.236  14.284 -2.8411 -2.0128 -0.2774
 2940TIP3   OH230310   5.548   5.789  15.287  0.3873 -0.4878  0.0328
 2940TIP3    H130311   5.568   5.880  15.306 -0.3780 -0.0952 -0.9160
 2940TIP3    H230312   5.453   5.784  15.292  0.2035 -0.5937 -2.3923
 2941TIP3   OH230313   0.124   1.185  13.507  0.4817 -0.8698  0.3735
 2941TIP3    H130314   0.212   1.163  13.537  0.7006  1.3678  1.5277
 2941TIP3    H230315   0.081   1.224  13.583 -1.4003 -1.5475 -0.2790
 2942TIP3   OH230316   2.349   3.852  13.228 -0.6633 -0.3398  0.2836
 2942TIP3    H130317   2.286   3.916  13.262  0.4361 -0.0601  1.9142
 2942TIP3    H230318   2.332   3.849  13.134 -2.5442  0.3291  0.5686
 2943TIP3   OH230319   3.929   1.920  15.919  0.4110 -0.3237  0.2937
 2943TIP3    H130320   4.006   1.923  15.975  0.6290  0.0764 -0.0163
 2943TIP3    H230321   3.889   2.007  15.929  0.3462 -0.3152 -0.0161
 2944TIP3   OH230322   1.397   3.815   2.607  0.1605 -0.2139  0.4038
 2944TIP3    H130323   1.308   3.848   2.623  0.3790  0.0865  1.0238
 2944TIP3    H230324   1.451   3.894   2.602  0.1496 -0.2939 -1.6488
 2945TIP3   OH230325   0.876   4.980  13.985 -0.0893 -0.2739  0.3147
 2945TIP3    H130326   0.873   5.051  13.922 -2.7426 -1.6744 -1.3047
 2945TIP3    H230327   0.827   5.013  14.061 -2.1455 -0.5968 -0.8002
 2946TIP3   OH230328   2.527   3.305   0.479 -0.3287 -0.5632  0.3432
 2946TIP3    H130329   2.526   3.359   0.558  0.1755 -0.5781  0.3669
 2946TIP3    H230330   2.441   3.264   0.476 -0.2381 -0.8091  1.0538
 2947TIP3   OH230331   6.058   2.790  11.064 -0.1890 -0.1032 -0.1969
 2947TIP3    H130332   6.081   2.712  11.114  0.8197 -0.2579 -0.8772
 2947TIP3    H230333   6.067   2.862  11.127 -0.0892 -0.4144  0.1488
 2948TIP3   OH230334   1.089   2.722   1.559 -0.3443 -0.1703  0.0834
 2948TIP3    H130335   1.046   2.733   1.475 -0.9633  0.6190  0.4894
 2948TIP3    H230336   1.104   2.627   1.566 -0.9934 -0.3300 -0.5592
 2949TIP3   OH230337   6.588   5.002   0.035 -0.1111  0.6878 -0.0259
 2949TIP3    H130338   6.495   5.026   0.037 -0.1732  0.4376  0.3474
 2949TIP3    H230339   6.588   4.907   0.020  0.0635  0.5955  0.5221
 2950TIP3   OH230340   0.412   6.303   5.963 -0.1447  0.0959 -0.0405
 2950TIP3    H130341   0.368   6.221   5.984  0.6983  0.0392  1.6968
 2950TIP3    H230342   0.421   6.348   6.047  0.8777  1.2260 -0.7163
 2951TIP3   OH230343   2.546   0.526  14.073  0.6078 -0.1232 -0.1332
 2951TIP3    H130344   2.468   0.516  14.128  0.6941  2.6958  0.6843
 2951TIP3    H230345   2.618   0.491  14.126  0.3093  0.1453  0.4579
 2952TIP3   OH230346   3.091   4.091   1.062 -0.0919  0.2920  0.1083
 2952TIP3    H130347   3.143   4.054   0.990 -1.9595  0.9830 -1.7011
 2952TIP3    H230348   3.139   4.169   1.089  0.6394  0.0281 -0.4026
 2953TIP3   OH230349   3.370   4.589   4.571  0.0604 -0.5376 -0.3836
 2953TIP3    H130350   3.402   4.679   4.565 -0.3293 -0.3211  0.5941
 2953TIP3    H230351   3.358   4.561   4.481 -1.1760  0.8914 -0.7007
 2954TIP3   OH230352   0.271   2.522  14.454 -0.8654  1.3557 -0.0084
 2954TIP3    H130353   0.329   2.595  14.430 -1.1959  1.7730  0.4289
 2954TIP3    H230354   0.185   2.563  14.463 -1.5691  0.4857 -2.1479
 2955TIP3   OH230355   5.005   5.539  11.747 -0.2649  0.1097  0.2381
 2955TIP3    H130356   4.938   5.503  11.688 -0.6779  0.7759  0.2950
 2955TIP3    H230357   4.984   5.501  11.832  0.0791 -0.5235  0.0457
 2956TIP3   OH230358   4.206   3.139  15.794  0.1294 -0.6377  0.1916
 2956TIP3    H130359   4.163   3.125  15.709 -2.4717  0.6273  1.1950
 2956TIP3    H230360   4.239   3.052  15.818  0.4824 -1.1316 -1.8447
 2957TIP3   OH230361   2.041   0.116   2.848 -0.1818 -0.2681  0.1420
 2957TIP3    H130362   2.076   0.058   2.781 -0.1390  0.1070 -0.1641
 2957TIP3    H230363   2.055   0.204   2.813 -1.2940 -0.1086  0.0721
 2958TIP3   OH230364   5.917   0.499   4.852  0.1086 -0.1018 -0.2657
 2958TIP3    H130365   5.923   0.420   4.906  0.7511  0.2822  0.2484
 2958TIP3    H230366   5.827   0.500   4.820  0.1915 -1.2194 -0.5638
 2959TIP3   OH230367   3.560   6.047   1.638  0.4443  0.1484  0.3660
 2959TIP3    H130368   3.602   6.050   1.724 -1.4824 -0.3122  1.3561
 2959TIP3    H230369   3.504   6.124   1.635 -0.3376 -0.4218 -0.0357
 2960TIP3   OH230370   5.756   3.635   5.558 -0.1298  0.3399  0.4079
 2960TIP3    H130371   5.735   3.561   5.614 -1.3015  0.5851  0.3131
 2960TIP3    H230372   5.769   3.597   5.471 -2.2421  0.3859  0.0318
 2961TIP3   OH230373   0.947   2.490   5.905  0.0686 -0.3064  0.3509
 2961TIP3    H130374   0.967   2.573   5.860 -0.1111  0.0857  0.9856
 2961TIP3    H230375   0.864   2.506   5.950 -0.2475 -1.0116  0.0414
 2962TIP3   OH230376   3.008   5.059  10.722  0.2824  1.2668 -0.3601
 2962TIP3    H130377   2.947   4.998  10.764 -1.9666  2.2080 -2.0731
 2962TIP3    H230378   3.089   5.050  10.773 -0.2755 -2.2461  0.1816
 2963TIP3   OH230379   2.608   1.247   0.490 -0.4229 -0.3353  0.3526
 2963TIP3    H130380   2.662   1.234   0.568  0.3210 -0.0870 -0.1114
 2963TIP3    H230381   2.554   1.323   0.512  1.7685  1.5395 -0.3813
 2964TIP3   OH230382   0.449   2.714   3.445 -0.0416  0.0569 -0.1576
 2964TIP3    H130383   0.437   2.806   3.420 -0.6191 -0.1720 -0.7580
 2964TIP3    H230384   0.544   2.701   3.446  0.0844  0.8889  0.8164
 2965TIP3   OH230385   3.734   3.570   4.303  0.2698  0.6313  0.1430
 2965TIP3    H130386   3.732   3.549   4.397 -1.5812 -0.0322 -0.0230
 2965TIP3    H230387   3.777   3.495   4.263  0.0932  0.4274  0.3350
 2966TIP3   OH230388   2.804   5.352   1.093 -0.1120  0.7414  0.0890
 2966TIP3    H130389   2.808   5.280   1.030 -1.3564  1.7187 -1.1629
 2966TIP3    H230390   2.714   5.352   1.124  0.4817  0.2757  1.9349
 2967TIP3   OH230391   3.271   5.123  14.155  0.0107  0.4217  0.9743
 2967TIP3    H130392   3.195   5.066  14.144 -0.1010  0.7676 -0.1114
 2967TIP3    H230393   3.234   5.211  14.164  0.2648  0.5361  0.9115
 2968TIP3   OH230394   0.166   3.302  16.316  0.0472 -0.4853  0.3448
 2968TIP3    H130395   0.072   3.308  16.300  0.5667  1.2733 -2.9112
 2968TIP3    H230396   0.179   3.214  16.352 -2.6008 -1.6143 -1.1751
 2969TIP3   OH230397   5.455   3.744   3.308 -0.2407 -0.1453 -0.1555
 2969TIP3    H130398   5.364   3.773   3.302  0.3702  2.2500  0.6913
 2969TIP3    H230399   5.460   3.695   3.390 -1.0041 -1.3788 -0.8314
 2970TIP3   OH230400   2.333   4.493   3.689 -0.4124 -0.0383 -0.0221
 2970TIP3    H130401   2.364   4.403   3.679 -0.1131  0.2263 -1.7604
 2970TIP3    H230402   2.392   4.532   3.754  0.8403 -0.4914 -0.8530
 2971TIP3   OH230403   6.253   4.146  16.213  0.6847  0.2973  0.0108
 2971TIP3    H130404   6.185   4.210  16.194  0.1232  0.1626  1.4693
 2971TIP3    H230405   6.240   4.076  16.148  0.0670  0.7301 -0.3348
 2972TIP3   OH230406   6.788   6.726  16.013  0.5305  0.3362 -0.1790
 2972TIP3    H130407   6.771   6.693  16.101  2.0507  3.0846  1.2913
 2972TIP3    H230408   6.882   6.710  15.999  0.2387 -0.3880 -1.4950
 2973TIP3   OH230409   3.308   0.067   0.492 -0.1916 -0.3331  0.1434
 2973TIP3    H130410   3.256   0.056   0.412  2.2153 -2.3013 -1.3127
 2973TIP3    H230411   3.321   0.161   0.500 -1.4666 -0.0154 -1.1051
 2974TIP3   OH230412   5.870   1.061  15.495  0.6481  0.1570  0.7055
 2974TIP3    H130413   5.920   1.054  15.414  1.5322 -0.3510  1.2719
 2974TIP3    H230414   5.798   0.999  15.484  0.5488  0.3674  0.1635
 2975TIP3   OH230415   6.753   1.580   5.595 -0.2624 -0.6709 -0.5646
 2975TIP3    H130416   6.733   1.504   5.539 -1.4118 -0.2529 -0.7559
 2975TIP3    H230417   6.785   1.542   5.676 -3.0912 -1.5495  0.2820
 2976TIP3   OH230418   4.083   2.284  15.491  0.5211 -0.6128 -0.3878
 2976TIP3    H130419   4.008   2.259  15.437 -0.2869  1.3456 -0.2723
 2976TIP3    H230420   4.159   2.255  15.441 -0.2470 -0.2023 -1.8821
 2977TIP3   OH230421   4.475   6.494  11.683  0.2066  0.2019  0.8858
 2977TIP3    H130422   4.514   6.429  11.624  3.6939  2.6689  0.1303
 2977TIP3    H230423   4.480   6.453  11.770 -1.4497 -1.9793  0.0651
 2978TIP3   OH230424   6.078   5.802  14.035 -0.2188 -0.5883 -0.2593
 2978TIP3    H130425   6.084   5.894  14.059  1.4638 -0.9665  0.9963
 2978TIP3    H230426   5.985   5.784  14.028 -0.5671  1.5512 -2.0639
 2979TIP3   OH230427   3.080   6.399   5.556 -0.7521  0.1259  0.1666
 2979TIP3    H130428   3.064   6.456   5.631 -0.7612 -0.4046  0.5676
 2979TIP3    H230429   3.083   6.311   5.592  1.8614  0.0461 -0.0343
 2980TIP3   OH230430   3.003   3.504  14.320  0.0014  0.0771  0.0058
 2980TIP3    H130431   2.981   3.597  14.323 -1.4968 -0.2938  2.2166
 2980TIP3    H230432   3.029   3.482  14.409 -0.5680 -1.8159 -0.2445
 2981TIP3   OH230433   1.854   2.087   1.307  0.4038 -0.7336  0.0163
 2981TIP3    H130434   1.842   2.107   1.400 -2.3680 -1.3663 -0.1002
 2981TIP3    H230435   1.916   2.014   1.306 -1.2729 -2.3030  1.6240
 2982TIP3   OH230436   0.630   4.969  16.591  0.0966  0.8771 -0.2295
 2982TIP3    H130437   0.557   4.961  16.653  0.1321 -0.8037 -0.3628
 2982TIP3    H230438   0.689   5.031  16.632  0.3816 -0.5964  1.7417
 2983TIP3   OH230439   0.056   5.897  16.076  0.3525 -0.6823  0.1119
 2983TIP3    H130440  -0.023   5.853  16.108 -0.3677  2.3123  2.9436
 2983TIP3    H230441   0.025   5.960  16.011  0.7875 -1.2013 -0.6165
 2984TIP3   OH230442   5.210   3.846   1.374 -0.3996 -0.4107 -0.4866
 2984TIP3    H130443   5.137   3.881   1.425 -0.5563 -1.6503  0.1913
 2984TIP3    H230444   5.191   3.752   1.368  0.9387 -0.6833 -0.6489
 2985TIP3   OH230445   2.527   5.089  11.312 -0.2392  0.2982 -0.7445
 2985TIP3    H130446   2.499   5.180  11.321  1.5588  0.8119  0.1120
 2985TIP3    H230447   2.509   5.049  11.397  0.4524  0.3146 -0.5801
 2986TIP3   OH230448   6.195   2.339  14.219 -0.5913 -0.2625  0.4800
 2986TIP3    H130449   6.276   2.375  14.181 -1.3914 -0.0039 -1.0547
 2986TIP3    H230450   6.196   2.370  14.310  0.6029  0.4708  0.2486
 2987TIP3   OH230451   3.988   2.334   6.711  0.7442 -0.1769 -0.3050
 2987TIP3    H130452   3.943   2.341   6.795  0.9418 -0.0783 -0.2067
 2987TIP3    H230453   3.983   2.422   6.674 -2.1058 -0.8507 -1.8341
 2988TIP3   OH230454   5.294   6.763   3.896 -0.1307 -0.1118  0.6420
 2988TIP3    H130455   5.226   6.696   3.887  1.4298 -1.6244 -0.4584
 2988TIP3    H230456   5.310   6.768   3.991  0.1942 -1.8328  0.7081
 2989TIP3   OH230457   1.588   1.884   0.634  0.1300  0.1220  0.1509
 2989TIP3    H130458   1.671   1.930   0.630  1.3982 -2.0882 -1.7019
 2989TIP3    H230459   1.593   1.819   0.564 -3.6324  0.5803 -0.7701
 2990TIP3   OH230460   6.147   0.476   6.257  0.5884  0.3389 -0.7221
 2990TIP3    H130461   6.221   0.415   6.265  0.1341 -0.3524 -1.5417
 2990TIP3    H230462   6.105   0.475   6.342  0.4576 -0.6796 -0.7905
 2991TIP3   OH230463   1.168   2.598  11.521  0.0532  0.4550  0.2578
 2991TIP3    H130464   1.209   2.573  11.438 -0.9204 -0.3058 -0.0164
 2991TIP3    H230465   1.177   2.521  11.577  0.1974  0.7659  0.6713
 2992TIP3   OH230466   5.230   3.543   1.394 -0.3841 -0.2120  0.1913
 2992TIP3    H130467   5.180   3.536   1.313 -1.0463  0.8462  0.4919
 2992TIP3    H230468   5.185   3.486   1.455 -1.6449  1.2060  0.6428
 2993TIP3   OH230469   6.104   1.239  12.076 -0.2910 -0.1071  0.1646
 2993TIP3    H130470   6.078   1.282  11.995 -1.9039  0.2075  0.8210
 2993TIP3    H230471   6.190   1.202  12.056  1.5756  3.9146 -0.2344
 2994TIP3   OH230472   5.786   6.511   5.142 -0.9911 -0.4356 -0.4038
 2994TIP3    H130473   5.829   6.592   5.113 -0.2555 -1.5530 -2.6973
 2994TIP3    H230474   5.715   6.498   5.080  0.9749 -3.2252 -2.2899
 2995TIP3   OH230475   6.615   1.469   3.005  0.0969 -0.5661 -0.4962
 2995TIP3    H130476   6.598   1.444   2.914  0.8481  1.2770 -1.1790
 2995TIP3    H230477   6.710   1.470   3.012  0.0600 -2.0524  0.7479
 2996TIP3   OH230478   3.451   2.450  13.234 -0.1347 -0.5066  0.6131
 2996TIP3    H130479   3.542   2.423  13.222  0.9789  2.1572  2.0501
 2996TIP3    H230480   3.440   2.522  13.172 -1.2378 -0.7198  0.5465
 2997TIP3   OH230481   0.527   5.942  13.342 -0.7650  0.7858 -0.3158
 2997TIP3    H130482   0.495   5.949  13.432 -0.4532 -0.6645 -0.0752
 2997TIP3    H230483   0.616   5.978  13.345  0.0948 -1.2441  0.4748
 2998TIP3   OH230484   3.814   0.583  15.082  0.2175 -0.2381 -0.3749
 2998TIP3    H130485   3.901   0.567  15.117 -0.1321 -1.7810 -0.1535
 2998TIP3    H230486   3.767   0.628  15.153  0.0782 -1.6975  0.5121
 2999TIP3   OH230487   3.172   0.173  17.174 -0.2178  0.0143 -0.4166
 2999TIP3    H130488   3.171   0.203  17.083 -2.6744  0.5861 -0.2862
 2999TIP3    H230489   3.175   0.253  17.226  2.1320 -0.3279  0.0949
 3000TIP3   OH230490   0.531   1.148   3.579  0.1432  0.3591  0.3206
 3000TIP3    H130491   0.556   1.111   3.664  0.2552  0.6503  0.4135
 3000TIP3    H230492   0.510   1.071   3.525 -0.3206  0.1950  0.7336
 3001TIP3   OH230493   5.283   2.265  12.694 -0.1552  0.2573 -0.5834
 3001TIP3    H130494   5.342   2.216  12.637 -1.8651 -1.1209 -1.2754
 3001TIP3    H230495   5.201   2.272  12.644 -0.9551  1.0894  0.7705
 3002TIP3   OH230496   5.713   5.813   1.717  0.2785  0.3713  0.0015
 3002TIP3    H130497   5.648   5.742   1.718 -0.2446  0.8396  0.2520
 3002TIP3    H230498   5.671   5.882   1.665  0.8045  0.4808 -0.2842
 3003TIP3   OH230499   0.463   5.961   1.726 -0.3913 -0.0589 -0.4421
 3003TIP3    H130500   0.374   5.963   1.759 -0.0308 -0.1653  0.5693
 3003TIP3    H230501   0.456   5.917   1.641 -1.0949 -1.4235  0.2889
 3004TIP3   OH230502   2.986   1.656  15.311  0.2984  0.0111  0.1671
 3004TIP3    H130503   3.022   1.676  15.225  0.8624  0.7279  0.5552
 3004TIP3    H230504   2.939   1.736  15.337  2.2150  0.7669  1.5573
 3005TIP3   OH230505   1.934   5.472   2.987  0.0412 -0.9315  0.2694
 3005TIP3    H130506   1.845   5.475   3.022 -0.1205 -0.2320 -0.1755
 3005TIP3    H230507   1.988   5.438   3.059 -0.7610 -2.5531  0.1473
 3006TIP3   OH230508   3.813   1.205   5.933 -0.4329  0.0830  0.2333
 3006TIP3    H130509   3.765   1.148   5.992  2.4740 -0.0651  2.6924
 3006TIP3    H230510   3.791   1.294   5.961 -0.4995  0.0459  0.2979
 3007TIP3   OH230511   1.210   3.470  14.045  0.1451 -0.3618 -0.9181
 3007TIP3    H130512   1.247   3.417  13.974  3.3055  2.0222 -1.2997
 3007TIP3    H230513   1.247   3.432  14.125 -2.4081 -2.2665 -0.5339
 3008TIP3   OH230514   4.297   0.889  15.645 -0.5356 -0.2620 -0.1329
 3008TIP3    H130515   4.317   0.808  15.598  1.1463  0.0894 -0.0675
 3008TIP3    H230516   4.354   0.888  15.722  1.3072  2.0426 -1.3254
 3009TIP3   OH230517   4.317   1.037   2.254  0.2564  0.0029  0.2948
 3009TIP3    H130518   4.264   1.059   2.178  1.1579  0.6551 -0.1743
 3009TIP3    H230519   4.401   1.008   2.218  0.4622 -0.3408  1.0224
 3010TIP3   OH230520   4.616   5.997  15.080 -0.4867 -0.4116 -0.3848
 3010TIP3    H130521   4.689   5.969  15.026  0.8461  1.8297  0.1447
 3010TIP3    H230522   4.598   6.087  15.053 -2.1253 -0.4243  0.4796
 3011TIP3   OH230523   5.915   2.901   2.355 -0.1269  0.2247  0.0862
 3011TIP3    H130524   5.872   2.904   2.441  0.4625 -0.4624  0.4230
 3011TIP3    H230525   6.003   2.934   2.372  0.0662 -0.1343 -0.2033
 3012TIP3   OH230526   1.060   3.708  13.480  0.5315 -0.0153  0.3059
 3012TIP3    H130527   1.113   3.739  13.407  1.6109  0.4856  1.2542
 3012TIP3    H230528   1.053   3.784  13.538 -0.4812 -0.3347  0.6261
 3013TIP3   OH230529   5.142   3.665  10.152 -0.3450  0.6876 -0.1663
 3013TIP3    H130530   5.088   3.630  10.082 -1.8438  0.4461  1.0768
 3013TIP3    H230531   5.168   3.589  10.204 -2.1995  1.1513  1.5553
 3014TIP3   OH230532   3.082   5.988   4.392  0.1140  0.0553 -0.2672
 3014TIP3    H130533   3.043   6.027   4.471  0.8008 -0.2112  0.2155
 3014TIP3    H230534   3.020   6.008   4.322 -1.1372 -0.7602  0.5659
 3015TIP3   OH230535   6.028   3.331   1.140  0.0989 -0.4296  0.1216
 3015TIP3    H130536   5.975   3.402   1.177  1.6656  1.2458 -0.7147
 3015TIP3    H230537   5.964   3.271   1.101 -1.3440 -0.2179  2.0281
 3016TIP3   OH230538   5.478   0.845   0.409 -0.0732  0.1394  0.4421
 3016TIP3    H130539   5.520   0.802   0.483 -0.6512 -1.2626 -0.0015
 3016TIP3    H230540   5.386   0.850   0.433  0.0823  1.8921  0.8055
 3017TIP3   OH230541   1.579   5.576  11.273 -0.1929  0.4783  0.0257
 3017TIP3    H130542   1.604   5.622  11.353  2.0604  1.9158 -1.3786
 3017TIP3    H230543   1.519   5.636  11.228  0.7111  0.9527 -0.5932
 3018TIP3   OH230544   4.891   5.375  15.200  0.1557  0.0689 -0.8103
 3018TIP3    H130545   4.833   5.443  15.169  0.2555  0.8691  0.6542
 3018TIP3    H230546   4.833   5.302  15.223 -0.1918  0.5136 -0.2455
 3019TIP3   OH230547   5.633   4.279   5.686  0.1415 -0.0382  0.7209
 3019TIP3    H130548   5.718   4.255   5.649 -0.0031  0.7898 -0.1960
 3019TIP3    H230549   5.641   4.258   5.779  1.7672  1.1095  0.8836
 3020TIP3   OH230550   2.359   4.177   5.402  0.1992  0.0742 -0.2880
 3020TIP3    H130551   2.407   4.241   5.349  0.9271  0.7538  1.1331
 3020TIP3    H230552   2.295   4.229   5.450 -0.1439 -0.4634 -0.1591
 3021TIP3   OH230553   6.453   3.499   4.703 -0.1036  0.1676 -0.4682
 3021TIP3    H130554   6.458   3.514   4.608 -0.5528  2.3819 -0.2073
 3021TIP3    H230555   6.521   3.435   4.721  0.1570 -0.1166 -2.2589
 3022TIP3   OH230556   4.577   3.303   0.616  0.3152  0.0070  0.1965
 3022TIP3    H130557   4.520   3.279   0.543  0.7355 -0.0010 -0.1278
 3022TIP3    H230558   4.664   3.274   0.590  0.2856 -1.0900  1.2099
 3023TIP3   OH230559   4.967   0.452  16.365 -0.0932  0.0621  0.2216
 3023TIP3    H130560   4.952   0.544  16.382 -0.8389 -0.0854  0.3832
 3023TIP3    H230561   5.040   0.429  16.423 -0.4999  0.3357  0.8564
 3024TIP3   OH230562   4.482   5.308  14.936  0.0994 -0.1394 -0.3847
 3024TIP3    H130563   4.560   5.261  14.966  1.4607  0.8605 -2.1333
 3024TIP3    H230564   4.464   5.372  15.005  1.4013  0.2308 -0.3625
 3025TIP3   OH230565   6.716   3.338   5.644  0.1752  0.3074  0.1634
 3025TIP3    H130566   6.692   3.350   5.552  1.3114 -1.9922 -0.4862
 3025TIP3    H230567   6.764   3.418   5.666  0.5256  0.5746 -1.4572
 3026TIP3   OH230568   0.877   1.376   5.944  0.5768 -0.2245 -0.1669
 3026TIP3    H130569   0.791   1.394   5.982  1.4471  0.9576  1.3247
 3026TIP3    H230570   0.864   1.295   5.894 -1.7164  0.6624 -1.1291
 3027TIP3   OH230571   2.980   4.828   0.539  0.0127 -0.0326  0.3088
 3027TIP3    H130572   3.022   4.906   0.575 -0.5645  0.4633 -0.0953
 3027TIP3    H230573   2.931   4.859   0.463  0.2885 -0.8914 -0.2337
 3028TIP3   OH230574   1.336   3.403  10.991 -0.2610  0.3328  0.1618
 3028TIP3    H130575   1.347   3.494  10.963  0.4444  0.5033  0.9668
 3028TIP3    H230576   1.405   3.355  10.946 -1.4029 -0.0544 -1.2643
 3029TIP3   OH230577   4.814   4.979  16.462  0.1150 -0.0565 -0.1258
 3029TIP3    H130578   4.861   5.062  16.459 -1.4999  0.8841 -1.0187
 3029TIP3    H230579   4.854   4.925  16.394  1.4064 -0.1844  0.6942
 3030TIP3   OH230580   5.662   6.126  13.360  0.1809 -0.0421 -0.2583
 3030TIP3    H130581   5.573   6.091  13.363 -0.3153  1.2095  0.4162
 3030TIP3    H230582   5.673   6.170  13.444  0.4307  2.1836 -1.3927
 3031TIP3   OH230583   5.825   6.354   6.272 -0.8661 -0.1039  0.0180
 3031TIP3    H130584   5.749   6.302   6.246 -0.4437 -0.7035 -0.0600
 3031TIP3    H230585   5.825   6.428   6.212  0.0318 -1.4043 -1.6944
 3032TIP3   OH230586   3.079   5.264   0.736  0.2266  0.0305  0.2018
 3032TIP3    H130587   3.122   5.184   0.708 -2.0230 -0.9771 -0.5664
 3032TIP3    H230588   3.147   5.312   0.784  1.9310 -1.8061 -0.2520
 3033TIP3   OH230589   4.833   1.065   0.092  0.6171 -0.0332 -0.1996
 3033TIP3    H130590   4.912   1.111   0.060  0.3324 -0.7952 -2.1367
 3033TIP3    H230591   4.762   1.128   0.079  0.8667  0.6587  1.5593
 3034TIP3   OH230592   6.591   5.404  13.256  0.7619  0.1376 -0.2674
 3034TIP3    H130593   6.537   5.342  13.208  1.0278  0.6045 -1.1892
 3034TIP3    H230594   6.554   5.405  13.345 -1.4756  1.2715 -1.1246
 3035TIP3   OH230595   5.855   5.139   4.627  0.4606  0.1466 -0.2148
 3035TIP3    H130596   5.923   5.175   4.684  1.8927 -1.0873 -1.0644
 3035TIP3    H230597   5.808   5.077   4.683  0.8752  0.0559  0.0391
 3036TIP3   OH230598   6.142   1.136   2.892 -0.2509 -0.0869 -0.1440
 3036TIP3    H130599   6.065   1.192   2.878 -0.1461  0.2351  0.5226
 3036TIP3    H230600   6.137   1.111   2.984 -1.2609 -2.6552 -0.8079
 3037TIP3   OH230601   6.324   6.349  16.450 -0.0850 -0.0968  0.3361
 3037TIP3    H130602   6.416   6.347  16.422 -0.4488  0.7219 -0.9958
 3037TIP3    H230603   6.325   6.310  16.537  1.4497 -0.5874  0.1262
 3038TIP3   OH230604   5.302   1.244  14.722  0.2383  0.4315 -0.0635
 3038TIP3    H130605   5.371   1.277  14.779 -1.0175  1.3467  0.9860
 3038TIP3    H230606   5.281   1.157  14.757  0.1536  0.5841  0.2715
 3039TIP3   OH230607   0.318   4.392  12.080 -0.0991 -0.0034  0.3959
 3039TIP3    H130608   0.406   4.409  12.114  0.0445 -0.0715  0.0650
 3039TIP3    H230609   0.261   4.452  12.128 -0.1534 -1.2309  1.9575
 3040TIP3   OH230610   0.014   2.853   4.159 -0.4850 -0.1740  0.1572
 3040TIP3    H130611   0.109   2.845   4.171 -0.5007  1.5648  1.9340
 3040TIP3    H230612  -0.023   2.820   4.240 -1.3001  0.8668  0.2208
 3041TIP3   OH230613   1.537   3.238  14.362  0.3338  0.2783 -0.3355
 3041TIP3    H130614   1.526   3.170  14.428 -0.8082  0.1792 -0.6136
 3041TIP3    H230615   1.619   3.282  14.386 -0.5595  0.9340  1.7658
 3042TIP3   OH230616   4.436   2.081   3.232 -0.6482 -0.5661  0.3030
 3042TIP3    H130617   4.437   1.999   3.281  1.6583 -0.1226  1.1702
 3042TIP3    H230618   4.422   2.148   3.299  0.0249 -0.1130  0.0064
 3043TIP3   OH230619   5.893   2.224   4.265 -0.1145 -0.6327 -0.3164
 3043TIP3    H130620   5.974   2.274   4.267 -0.3593 -0.2475  0.3773
 3043TIP3    H230621   5.919   2.135   4.289  0.5853 -1.2654 -3.1312
 3044TIP3   OH230622   6.316   1.909  15.967  0.1335  0.4408 -0.3651
 3044TIP3    H130623   6.289   1.902  15.875  1.5996 -0.7318 -0.7547
 3044TIP3    H230624   6.349   1.822  15.989 -1.5908  0.2609  1.7855
 3045TIP3   OH230625   1.817   0.052   1.308 -0.2441  0.6809  0.0362
 3045TIP3    H130626   1.731   0.043   1.267  0.6606 -1.6446 -1.5332
 3045TIP3    H230627   1.813  -0.003   1.386 -0.1316  0.4304 -0.1337
 3046TIP3   OH230628   1.439   1.349  16.495 -0.0255 -0.3985  0.0970
 3046TIP3    H130629   1.525   1.382  16.468  0.3718 -1.3893  0.1321
 3046TIP3    H230630   1.428   1.383  16.584 -1.7054  3.5908 -1.3991
 3047TIP3   OH230631   5.416   4.397  14.885 -0.5219  0.5950 -0.0836
 3047TIP3    H130632   5.486   4.403  14.820 -0.8007  1.7368 -0.2954
 3047TIP3    H230633   5.375   4.483  14.884 -3.6840 -0.7725 -1.9177
 3048TIP3   OH230634   3.946   2.493  14.479 -0.6311 -0.3408  0.0797
 3048TIP3    H130635   3.976   2.439  14.552 -0.5638 -0.7979 -0.2784
 3048TIP3    H230636   4.021   2.549  14.459 -0.7870  0.0641  0.6158
 3049TIP3   OH230637   5.779   1.881  16.062  0.3485 -0.5155 -0.5173
 3049TIP3    H130638   5.862   1.837  16.044  0.0163 -0.8451 -1.2758
 3049TIP3    H230639   5.716   1.809  16.072  0.2526 -0.2904  0.6184
 3050TIP3   OH230640   5.527   6.536   2.779  0.5560  0.1069  0.7858
 3050TIP3    H130641   5.573   6.585   2.711  0.0150  2.1483  1.8342
 3050TIP3    H230642   5.586   6.537   2.854  0.7021 -1.2331  0.7264
 3051TIP3   OH230643   5.488   0.361   0.305 -0.6204 -0.0844 -0.1755
 3051TIP3    H130644   5.553   0.306   0.349  0.1439 -0.6378 -1.9184
 3051TIP3    H230645   5.443   0.302   0.244 -1.7682  0.6171 -0.0499
 3052TIP3   OH230646   3.267   2.440   1.593  0.1407 -0.3062 -0.0657
 3052TIP3    H130647   3.289   2.533   1.598 -3.6313  0.8086 -0.9595
 3052TIP3    H230648   3.299   2.412   1.507  0.3687  0.4351 -0.2285
 3053TIP3   OH230649   1.802   6.665   4.332 -0.3451 -0.0846  0.1227
 3053TIP3    H130650   1.876   6.719   4.360 -0.6603  0.6449 -0.4225
 3053TIP3    H230651   1.725   6.720   4.347 -0.7708 -0.8037  0.6010
 3054TIP3   OH230652   4.683   5.746   1.142  0.2833 -0.0974  0.3518
 3054TIP3    H130653   4.751   5.743   1.210 -0.1498  1.0710  0.8521
 3054TIP3    H230654   4.602   5.725   1.188 -0.2123  1.9484  0.4955
 3055TIP3   OH230655   3.407   4.705  11.596  0.3688 -0.0055  0.8514
 3055TIP3    H130656   3.471   4.765  11.557 -0.5106  0.4709  0.1206
 3055TIP3    H230657   3.455   4.622  11.605  0.6346 -0.1059 -1.1690
 3056TIP3   OH230658   2.440   2.052  10.668 -0.6140  0.0498  0.0970
 3056TIP3    H130659   2.449   2.035  10.574 -1.8874  4.3447 -1.0432
 3056TIP3    H230660   2.354   2.017  10.691 -0.3746 -0.8582 -0.3628
 3057TIP3   OH230661   5.354   6.551   1.642  0.2372  0.1093 -0.1630
 3057TIP3    H130662   5.347   6.487   1.571  1.3181  1.1495 -1.2426
 3057TIP3    H230663   5.321   6.504   1.719  2.1626 -2.2569 -0.6239
 3058TIP3   OH230664   1.147   0.341   2.972 -0.2754  0.4227 -0.4810
 3058TIP3    H130665   1.111   0.290   3.044  0.4957  0.7621  0.1636
 3058TIP3    H230666   1.180   0.421   3.014  0.6964  0.3720 -1.1270
 3059TIP3   OH230667   0.371   4.653  10.553 -0.1509 -0.1671  0.1498
 3059TIP3    H130668   0.316   4.642  10.631 -0.9073  2.0810 -0.0048
 3059TIP3    H230669   0.445   4.705  10.583 -0.9561  1.6063 -0.7736
 3060TIP3   OH230670   1.304   2.665  12.772 -0.1002  0.0670  0.0536
 3060TIP3    H130671   1.218   2.694  12.803  0.0446 -0.2520  0.7947
 3060TIP3    H230672   1.339   2.613  12.845  0.3645 -0.5147 -0.5739
 3061TIP3   OH230673   2.302   2.671   4.734 -0.4060  0.3004  0.4890
 3061TIP3    H130674   2.373   2.607   4.723 -0.0447  0.5233  1.3797
 3061TIP3    H230675   2.222   2.620   4.722 -0.0978  0.0474 -0.5394
 3062TIP3   OH230676   6.009   5.077   5.389 -0.4024 -0.3759  0.5946
 3062TIP3    H130677   6.024   4.985   5.411  0.0375 -0.5487 -0.3729
 3062TIP3    H230678   5.993   5.077   5.294 -0.1325  0.5689  0.5375
 3063TIP3   OH230679   5.094   4.694   5.243  0.4000 -0.3533  0.3668
 3063TIP3    H130680   5.134   4.658   5.164  0.5213  0.2858  0.1330
 3063TIP3    H230681   5.071   4.784   5.220 -0.3212 -0.4187  0.7976
 3064TIP3   OH230682   4.429   1.130   1.762  0.5453  0.0756  0.9387
 3064TIP3    H130683   4.450   1.042   1.796  0.3203  0.4607  2.1287
 3064TIP3    H230684   4.398   1.114   1.673 -0.1832 -1.1507  1.3760
 3065TIP3   OH230685   0.512   1.580   4.890  0.2539 -0.2382  0.2252
 3065TIP3    H130686   0.514   1.495   4.846  0.3018 -1.0603  1.7642
 3065TIP3    H230687   0.590   1.626   4.857 -1.8814  0.9674 -3.8245
 3066TIP3   OH230688   2.408   6.009   2.200  0.0950  0.3282  0.5624
 3066TIP3    H130689   2.315   6.001   2.177 -0.1571  1.3367  1.1646
 3066TIP3    H230690   2.427   6.103   2.192  1.5845 -0.0708 -1.4294
 3067TIP3   OH230691   0.272   2.188  11.093 -0.1940 -0.3110  0.4241
 3067TIP3    H130692   0.356   2.203  11.051 -0.3037  2.8274  1.1222
 3067TIP3    H230693   0.287   2.207  11.185 -1.5046 -0.3923  0.6711
 3068TIP3   OH230694   4.763   1.804   2.982 -0.4635  0.2683  0.1609
 3068TIP3    H130695   4.790   1.870   3.046  0.7483 -0.9413  0.9643
 3068TIP3    H230696   4.780   1.720   3.026 -0.7377 -0.5817 -1.3013
 3069TIP3   OH230697   4.538   2.540   1.157  0.8251  0.2066 -0.4631
 3069TIP3    H130698   4.481   2.476   1.199  0.2550  0.8534 -0.2360
 3069TIP3    H230699   4.495   2.561   1.074  1.7015 -0.7028 -1.1706
 3070TIP3   OH230700   3.973   1.721   3.431 -0.1054  0.1232  0.1147
 3070TIP3    H130701   4.052   1.699   3.382 -0.1381 -0.0715  0.1490
 3070TIP3    H230702   3.989   1.689   3.519 -0.3058 -0.1117  0.0690
 3071TIP3   OH230703   6.123   2.492   5.327 -0.0200  0.0495 -0.8391
 3071TIP3    H130704   6.217   2.477   5.327 -0.2581 -1.8333  0.4388
 3071TIP3    H230705   6.112   2.578   5.287  2.1361 -0.1991 -2.1185
 3072TIP3   OH230706   0.707   0.420   0.191 -0.1428 -0.1190  0.3365
 3072TIP3    H130707   0.706   0.479   0.266 -0.7901  1.3215 -0.7467
 3072TIP3    H230708   0.799   0.411   0.168 -0.0348  0.3927  0.5764
 3073TIP3   OH230709   2.332   2.763  14.373 -0.5874  0.0964  1.0476
 3073TIP3    H130710   2.264   2.766  14.440 -1.1946  0.1949  0.4389
 3073TIP3    H230711   2.373   2.850  14.377  0.3058 -0.3521  2.2109
 3074TIP3   OH230712   1.778   5.116   6.061 -0.3083  0.2898  0.0507
 3074TIP3    H130713   1.804   5.205   6.038 -1.7748  0.3292 -1.6554
 3074TIP3    H230714   1.705   5.126   6.121  0.5920  0.1929  1.2009
 3075TIP3   OH230715   0.128   1.012  15.684 -0.7127 -0.2965 -0.2312
 3075TIP3    H130716   0.123   0.917  15.682  1.3233 -0.4345 -0.1525
 3075TIP3    H230717   0.057   1.038  15.744  0.8223 -1.9987  2.5756
 3076TIP3   OH230718   5.621   0.236  11.280 -0.3327 -0.1438  0.3570
 3076TIP3    H130719   5.711   0.222  11.252 -0.3929 -0.8231  0.4859
 3076TIP3    H230720   5.621   0.217  11.374 -0.1774  1.9239  0.8312
 3077TIP3   OH230721   0.581   1.785  15.644  0.2031 -0.5075 -0.1370
 3077TIP3    H130722   0.657   1.824  15.601  1.2373  0.0261  2.0271
 3077TIP3    H230723   0.540   1.732  15.576  0.8243  1.4596 -2.1771
 3078TIP3   OH230724   4.960   4.160   4.514  0.1974  0.0582 -0.7389
 3078TIP3    H130725   4.920   4.153   4.601  3.1692 -1.3622  0.6825
 3078TIP3    H230726   4.930   4.082   4.468 -1.9461  1.1609 -1.3511
 3079TIP3   OH230727   4.886   5.196   3.757  0.3871 -0.4879  0.5815
 3079TIP3    H130728   4.883   5.269   3.695 -0.3083 -0.2227  0.9187
 3079TIP3    H230729   4.956   5.140   3.724 -0.0187 -0.3965 -0.4875
 3080TIP3   OH230730   5.655   6.733   2.583  0.2258 -0.3086  1.1581
 3080TIP3    H130731   5.687   6.756   2.495  0.9477 -0.5525  1.3477
 3080TIP3    H230732   5.667   6.813   2.634  0.7756 -0.4678  1.2882
 3081TIP3   OH230733   1.029   1.855  14.900 -0.1602 -0.0829 -0.2882
 3081TIP3    H130734   1.118   1.853  14.867 -0.0522  0.8628 -0.0859
 3081TIP3    H230735   1.038   1.880  14.992 -0.5682 -1.0081  0.0187
 3082TIP3   OH230736   2.501   1.871   0.951  0.2039 -0.3434  0.0729
 3082TIP3    H130737   2.494   1.893   1.044 -0.8890  1.4237 -0.3765
 3082TIP3    H230738   2.588   1.832   0.942  1.0053  0.9639  1.5695
 3083TIP3   OH230739   1.765   5.239   4.477  0.2085 -0.7942  0.0202
 3083TIP3    H130740   1.700   5.299   4.515 -0.0715 -0.9613 -0.1898
 3083TIP3    H230741   1.797   5.188   4.551  1.2178  0.3180  0.3864
 3084TIP3   OH230742   0.523   6.245  14.946  0.0877 -0.2827 -0.2962
 3084TIP3    H130743   0.471   6.325  14.941 -0.4797 -0.6430 -0.3277
 3084TIP3    H230744   0.500   6.206  15.030 -0.0488 -0.6764 -0.5111
 3085TIP3   OH230745   2.145   2.088  10.429 -0.0464  0.3045  0.0645
 3085TIP3    H130746   2.222   2.034  10.444  1.2910  1.3513 -2.4692
 3085TIP3    H230747   2.075   2.026  10.407  1.0287 -0.4877 -1.1882
 3086TIP3   OH230748   3.381   3.070  16.485  0.7863  0.1434  0.0214
 3086TIP3    H130749   3.329   3.148  16.463  0.3002  0.0462  0.7858
 3086TIP3    H230750   3.356   3.006  16.419  0.6161  0.3867 -0.1534
 3087TIP3   OH230751   5.676   5.017  12.687  0.2459 -0.0415 -0.2220
 3087TIP3    H130752   5.605   5.045  12.629  1.3803 -0.8289 -2.0758
 3087TIP3    H230753   5.754   5.060  12.653  0.8897 -0.1441  1.0450
 3088TIP3   OH230754   4.478   1.165  11.451 -0.1219 -0.1954  0.0322
 3088TIP3    H130755   4.449   1.120  11.371 -1.7487  0.2692  0.3334
 3088TIP3    H230756   4.438   1.115  11.522  0.6068 -0.0850  0.5266
 3089TIP3   OH230757   0.251   2.915   6.161 -0.0838  0.0198 -0.4125
 3089TIP3    H130758   0.285   2.850   6.222  1.0334  1.1971  0.2605
 3089TIP3    H230759   0.182   2.961   6.210 -0.9688 -0.7170 -0.9333
 3090TIP3   OH230760   5.581   1.383  16.028  0.3588  0.3397  0.1000
 3090TIP3    H130761   5.665   1.337  16.025  0.9186  1.3258  0.3375
 3090TIP3    H230762   5.545   1.373  15.940  0.2289 -0.9652  0.2779
 3091TIP3   OH230763   3.271   6.267   1.053  0.5332 -0.1185  0.4567
 3091TIP3    H130764   3.180   6.273   1.081  0.8283  0.2146  1.3735
 3091TIP3    H230765   3.320   6.251   1.134  1.2237 -0.9917 -0.1072
 3092TIP3   OH230766   1.592   0.506   0.409  0.2111 -0.1606  0.1535
 3092TIP3    H130767   1.499   0.510   0.432  0.0565 -1.0047 -0.2685
 3092TIP3    H230768   1.633   0.460   0.482  0.4825  1.0789  0.8130
 3093TIP3   OH230769   1.835   3.703  15.335 -0.4783  0.3594  0.4168
 3093TIP3    H130770   1.823   3.617  15.374 -0.3269  0.0666 -0.1713
 3093TIP3    H230771   1.909   3.692  15.275  0.6928  1.3370  1.6208
 3094TIP3   OH230772   5.416   4.130  10.860  0.1184 -0.1258 -0.1961
 3094TIP3    H130773   5.474   4.083  10.921 -2.4970 -1.0046  1.7930
 3094TIP3    H230774   5.415   4.075  10.781  2.4141  0.2527 -0.5604
 3095TIP3   OH230775   5.655   5.935  17.120  0.3767 -0.0944  0.6402
 3095TIP3    H130776   5.633   6.026  17.099 -1.1394 -1.2193 -3.5675
 3095TIP3    H230777   5.740   5.922  17.077 -0.3261 -1.1011 -0.5042
 3096TIP3   OH230778   3.696   6.450  11.724 -0.2709 -0.1528 -0.3338
 3096TIP3    H130779   3.780   6.493  11.738  0.0525 -0.4337 -1.3377
 3096TIP3    H230780   3.704   6.367  11.771 -0.6892  0.5830  1.1268
 3097TIP3   OH230781   5.187   1.153   4.987 -0.0143 -0.0801  0.2391
 3097TIP3    H130782   5.122   1.220   5.009  0.8316 -0.0784  3.1265
 3097TIP3    H230783   5.239   1.192   4.917 -1.1785  1.1691  0.0264
 3098TIP3   OH230784   3.640   1.655  17.163 -0.1920  0.4870 -0.0226
 3098TIP3    H130785   3.609   1.690  17.246  0.6246  2.6675 -0.5537
 3098TIP3    H230786   3.561   1.621  17.120 -0.6799 -0.2765  1.4387
 3099TIP3   OH230787   2.032   4.948   0.231  0.9625 -0.2696  0.1343
 3099TIP3    H130788   2.028   4.997   0.314 -0.5727  0.4035 -0.2957
 3099TIP3    H230789   2.082   5.005   0.173 -2.4715  1.9552 -0.9843
 3100TIP3   OH230790   4.367   6.049  16.152 -0.3305  0.4168  0.0632
 3100TIP3    H130791   4.320   6.006  16.224  0.4618  0.8819  0.8696
 3100TIP3    H230792   4.424   5.981  16.117 -1.2557 -0.0250 -0.6326
 3101TIP3   OH230793   6.802   3.796   1.539 -0.0603  0.1545  0.6454
 3101TIP3    H130794   6.716   3.789   1.580 -0.5945 -1.2952 -0.6135
 3101TIP3    H230795   6.787   3.846   1.459 -0.1082 -1.4222 -0.3929
 3102TIP3   OH230796   3.996   1.870   1.578  0.0054  0.3997  0.0183
 3102TIP3    H130797   4.045   1.827   1.648 -0.1544 -1.0190 -0.7036
 3102TIP3    H230798   3.943   1.936   1.623 -0.2647 -0.6241  1.2657
 3103TIP3   OH230799   3.639   1.260  13.958  1.0251 -0.1900  0.3595
 3103TIP3    H130800   3.713   1.208  13.927  2.7185  2.0393  0.3947
 3103TIP3    H230801   3.593   1.286  13.878  0.0618 -1.8061  0.3524
 3104TIP3   OH230802   2.454   5.560  14.862  0.2850  0.8094 -0.1689
 3104TIP3    H130803   2.487   5.650  14.862  0.2598  0.8843  2.3651
 3104TIP3    H230804   2.445   5.538  14.954 -2.0253 -0.9672 -0.7293
 3105TIP3   OH230805   0.275   6.364  12.044  0.3981 -0.0918  0.1653
 3105TIP3    H130806   0.235   6.388  12.128 -2.8583  1.9572 -1.7410
 3105TIP3    H230807   0.332   6.437  12.022  1.3408 -0.6811  0.5915
 3106TIP3   OH230808   4.285   1.988   3.008 -0.5161  0.2012 -0.4404
 3106TIP3    H130809   4.331   2.024   3.084 -0.7492  1.9578 -1.0841
 3106TIP3    H230810   4.338   2.014   2.933 -1.0305 -0.2941 -0.9870
 3107TIP3   OH230811   5.726   5.320  11.932 -0.4661 -0.2400 -0.4752
 3107TIP3    H130812   5.694   5.341  11.845 -0.2272 -1.2449 -0.8212
 3107TIP3    H230813   5.803   5.265  11.918 -1.0442 -1.3248  0.3416
 3108TIP3   OH230814   5.268   6.231   0.511  0.0847 -0.2748 -0.1779
 3108TIP3    H130815   5.305   6.220   0.424 -0.4927 -0.1200 -0.4448
 3108TIP3    H230816   5.312   6.165   0.564 -1.2803 -2.0337 -1.1170
 3109TIP3   OH230817   3.785   0.787  15.592 -0.0937 -0.1479  0.4813
 3109TIP3    H130818   3.793   0.746  15.677  0.1510 -0.1757  0.4471
 3109TIP3    H230819   3.863   0.843  15.585 -1.1445  1.4567  1.1391
 3110TIP3   OH230820   4.558   4.286   4.676  0.5515  0.0907 -0.6656
 3110TIP3    H130821   4.542   4.215   4.613 -0.6192 -0.0421 -0.2346
 3110TIP3    H230822   4.556   4.365   4.623  3.1642 -0.2271 -1.3826
 3111TIP3   OH230823   5.805   4.310  13.762  0.1369  1.3382  0.1562
 3111TIP3    H130824   5.861   4.286  13.689 -0.4682  0.1591  0.0452
 3111TIP3    H230825   5.732   4.357  13.722 -0.6586 -0.0985 -0.1478
 3112TIP3   OH230826   1.686   4.142  13.973  0.2024  0.4438  0.0920
 3112TIP3    H130827   1.624   4.077  13.941  0.9238 -1.3760  2.1869
 3112TIP3    H230828   1.736   4.167  13.895 -0.2247 -1.3372 -0.8078
 3113TIP3   OH230829   4.462   6.404  16.114  0.2920  0.1407  0.1263
 3113TIP3    H130830   4.534   6.361  16.069 -0.5911  0.5448 -1.7488
 3113TIP3    H230831   4.383   6.371  16.071 -0.4827  2.4038 -0.3242
 3114TIP3   OH230832   1.413   1.028  13.158 -0.0054 -0.1689 -0.0277
 3114TIP3    H130833   1.497   0.982  13.157 -0.2128 -0.5444 -1.0976
 3114TIP3    H230834   1.423   1.095  13.226  0.7507 -0.9492  0.6467
 3115TIP3   OH230835   3.712   5.102   1.517  0.6179 -0.1882 -0.0086
 3115TIP3    H130836   3.714   5.197   1.524  1.0121 -0.1930 -0.0297
 3115TIP3    H230837   3.705   5.085   1.423 -0.6392 -0.1695  0.0708
 3116TIP3   OH230838   2.744   0.500  12.559  0.1733 -0.0554 -0.3391
 3116TIP3    H130839   2.772   0.425  12.611 -0.8902 -0.7680 -0.7601
 3116TIP3    H230840   2.815   0.513  12.496  0.6182 -0.3439  0.0968
 3117TIP3   OH230841   4.204   1.911  11.561 -0.3608 -0.6137 -0.2806
 3117TIP3    H130842   4.293   1.939  11.581 -0.9589  0.2178  1.3749
 3117TIP3    H230843   4.178   1.967  11.488  0.0089  0.0846  0.1133
 3118TIP3   OH230844   2.553   2.381  12.354 -0.7375  0.5518  0.2922
 3118TIP3    H130845   2.517   2.360  12.267  0.1676  0.5498 -0.0960
 3118TIP3    H230846   2.644   2.405  12.336 -0.3996  0.0542  1.3094
 3119TIP3   OH230847   2.569   5.122  12.680 -0.1933  0.4430  0.5434
 3119TIP3    H130848   2.628   5.074  12.739  0.7144  0.9197  0.0371
 3119TIP3    H230849   2.623   5.192  12.644 -0.7045  0.1149 -0.9269
 3120TIP3   OH230850   1.112   4.854   6.771 -0.1277 -0.3064  0.1908
 3120TIP3    H130851   1.069   4.780   6.814 -2.4304  1.4729  1.1768
 3120TIP3    H230852   1.176   4.884   6.836 -0.1228 -0.6243  0.3363
 3121TIP3   OH230853   3.242   5.779   5.826 -0.1698  0.4830 -0.0197
 3121TIP3    H130854   3.158   5.759   5.783  0.0311 -0.0798 -0.1573
 3121TIP3    H230855   3.228   5.865   5.866 -1.3955 -0.3716  1.4551
 3122TIP3   OH230856   6.461   1.244   1.649  0.5697  0.1149  0.5404
 3122TIP3    H130857   6.416   1.205   1.724  0.9154 -0.2233  0.5757
 3122TIP3    H230858   6.392   1.286   1.599  0.3713  0.5531  1.1760
 3123TIP3   OH230859   5.983   4.431   5.924 -0.3340  0.2729 -0.3406
 3123TIP3    H130860   6.042   4.397   5.857  0.2094  1.3185 -0.4066
 3123TIP3    H230861   5.988   4.367   5.995  1.0412  0.4326 -0.2690
 3124TIP3   OH230862   6.415   6.768   3.397  0.4615  0.3245  0.0295
 3124TIP3    H130863   6.482   6.821   3.439  0.1144 -0.0618  1.0871
 3124TIP3    H230864   6.357   6.833   3.355 -0.8146  0.9522  2.5541
 3125TIP3   OH230865   2.695   3.066  16.596 -0.0372 -0.3285 -0.3908
 3125TIP3    H130866   2.608   3.039  16.567 -1.3116  0.2934  2.5803
 3125TIP3    H230867   2.687   3.159  16.614  0.9992 -0.4281  0.6994
 3126TIP3   OH230868   5.033   0.225   4.845 -0.1752  0.4959 -0.1026
 3126TIP3    H130869   4.989   0.179   4.917  0.1515  0.9789  0.4065
 3126TIP3    H230870   5.123   0.193   4.848  0.4456  2.2306  1.1910
 3127TIP3   OH230871   4.977   2.257   5.481 -0.1115 -0.5027 -0.2299
 3127TIP3    H130872   5.029   2.271   5.402 -1.2579  1.0331 -0.7659
 3127TIP3    H230873   5.042   2.249   5.552  0.8939 -0.6400 -1.1450
 3128TIP3   OH230874   4.068   2.789  12.209 -0.2683  0.3569 -0.5701
 3128TIP3    H130875   4.080   2.845  12.286  0.3024 -1.7644  0.9995
 3128TIP3    H230876   4.155   2.752  12.193 -0.8172 -0.8005 -0.9408
 3129TIP3   OH230877   2.512   5.847  15.834  0.6144  0.2689 -0.6489
 3129TIP3    H130878   2.488   5.903  15.908 -0.9092 -0.9192 -0.1817
 3129TIP3    H230879   2.590   5.800  15.864  0.9022  0.8935 -0.3980
 3130TIP3   OH230880   2.405   6.643   1.424  0.2351 -0.2340  0.2850
 3130TIP3    H130881   2.438   6.566   1.377  0.8665  0.2900 -0.1356
 3130TIP3    H230882   2.396   6.710   1.357  0.2119  0.2283  0.7457
 3131TIP3   OH230883   1.280   3.787   3.147  0.7035 -0.6729 -0.1921
 3131TIP3    H130884   1.216   3.776   3.076  1.0100 -1.1982 -0.3926
 3131TIP3    H230885   1.317   3.874   3.132  1.7592 -1.3050 -1.5278
 3132TIP3   OH230886   0.980   5.763   2.011 -0.6756 -0.0705 -0.1895
 3132TIP3    H130887   1.023   5.748   2.095  0.6921 -1.8070 -1.1152
 3132TIP3    H230888   1.018   5.845   1.979 -0.9776  0.4361  0.7374
 3133TIP3   OH230889   1.652   0.048   3.091 -0.1935  0.1015  0.2084
 3133TIP3    H130890   1.743   0.055   3.060 -0.5276  0.7901 -0.6546
 3133TIP3    H230891   1.616  -0.026   3.043 -0.9123  1.5814 -1.6579
 3134TIP3   OH230892   5.781   3.691   5.053  0.2292 -0.4451  0.3600
 3134TIP3    H130893   5.709   3.742   5.015 -0.5637 -1.9669 -0.2745
 3134TIP3    H230894   5.853   3.702   4.991  0.6912  1.3194  1.1411
 3135TIP3   OH230895   5.213   6.034  15.175  0.3846  0.1871  0.1173
 3135TIP3    H130896   5.224   5.987  15.092  1.2206  0.3394  0.1260
 3135TIP3    H230897   5.201   5.964  15.240 -0.3792  0.0726 -0.1405
 3136TIP3   OH230898   1.390   4.294   2.390 -0.3010 -0.7712  0.0796
 3136TIP3    H130899   1.307   4.340   2.402 -0.2443 -0.8097  0.6167
 3136TIP3    H230900   1.403   4.246   2.471  0.4437 -0.4546  0.1542
 3137TIP3   OH230901   2.182   1.644  17.124  0.1755  0.3706 -0.6883
 3137TIP3    H130902   2.145   1.714  17.178  0.4041 -0.5877  0.8000
 3137TIP3    H230903   2.108   1.584  17.110 -0.1660  1.1418 -2.4431
 3138TIP3   OH230904   1.951   2.684  13.920  0.0236 -0.0811 -0.2622
 3138TIP3    H130905   1.892   2.610  13.914  0.9039 -0.7364 -1.2140
 3138TIP3    H230906   1.957   2.703  14.014  1.1260 -2.3338  0.1895
 3139TIP3   OH230907   0.626   5.161   0.299  0.0124 -0.2948  1.2228
 3139TIP3    H130908   0.645   5.068   0.287  1.7966  0.3778 -2.8759
 3139TIP3    H230909   0.538   5.173   0.263  0.8198 -0.0773 -0.7833
 3140TIP3   OH230910   4.363   3.470   5.785 -0.4497  0.0610 -0.1305
 3140TIP3    H130911   4.321   3.466   5.870 -1.2348 -0.5551 -0.5319
 3140TIP3    H230912   4.391   3.380   5.768 -2.1669 -0.2797 -1.4193
 3141TIP3   OH230913   0.926   3.702  14.236  0.2519  1.0769  0.0794
 3141TIP3    H130914   0.945   3.707  14.142 -0.7324 -2.3958 -0.4124
 3141TIP3    H230915   0.836   3.735  14.244  0.4224  1.6114 -0.1109
 3142TIP3   OH230916   0.718   5.080  13.397  0.6308  0.7838 -0.3446
 3142TIP3    H130917   0.662   5.079  13.319  0.6289  1.0383 -0.3473
 3142TIP3    H230918   0.681   5.149  13.452 -0.3624 -0.4750  0.6218
 3143TIP3   OH230919   1.767   0.868   2.237  0.2125  0.4715 -0.8805
 3143TIP3    H130920   1.804   0.851   2.151  1.7557  0.1236 -0.1835
 3143TIP3    H230921   1.838   0.847   2.298 -0.7086  1.1115  0.4540
 3144TIP3   OH230922   2.613   0.711  15.588  0.5210 -0.2893  0.1984
 3144TIP3    H130923   2.621   0.686  15.495  0.8317  2.2369 -0.5267
 3144TIP3    H230924   2.691   0.763  15.606 -0.8077  1.5042  1.0734
 3145TIP3   OH230925   2.059   5.954  14.067 -0.0795  0.5558  0.0452
 3145TIP3    H130926   1.989   5.985  14.010  1.6975 -0.9185 -3.2115
 3145TIP3    H230927   2.137   5.951  14.011  1.8335 -1.0951  2.5484
 3146TIP3   OH230928   3.894   4.430  13.449  0.5216  0.3202 -0.0936
 3146TIP3    H130929   3.976   4.458  13.492  0.6663  0.5695 -0.5247
 3146TIP3    H230930   3.898   4.470  13.362 -0.6989  1.4970  0.3495
 3147TIP3   OH230931   2.890   4.461   4.470 -0.1218  0.1845  0.1485
 3147TIP3    H130932   2.931   4.527   4.526  0.8137  0.1751 -0.4908
 3147TIP3    H230933   2.798   4.486   4.467  0.2291  1.5543 -0.1734
 3148TIP3   OH230934   3.465   5.471  12.239 -0.2502 -0.0020 -0.2591
 3148TIP3    H130935   3.414   5.551  12.227 -0.6622 -0.4412 -1.6809
 3148TIP3    H230936   3.479   5.438  12.150  1.0328 -0.8220  0.2232
 3149TIP3   OH230937   2.677   4.216   5.651  0.1629  0.6517  0.1708
 3149TIP3    H130938   2.586   4.208   5.678  0.2205  1.4937  0.6450
 3149TIP3    H230939   2.706   4.300   5.687  1.5577 -0.2619  1.2894
 3150TIP3   OH230940   3.027   0.435  15.518 -0.5185  0.4938  0.6191
 3150TIP3    H130941   3.024   0.406  15.609 -1.9119 -0.2988  0.3551
 3150TIP3    H230942   2.954   0.498  15.511  0.3206  1.4606  0.3291
 3151TIP3   OH230943   0.111   1.545  14.604 -0.2824  0.3069 -0.6801
 3151TIP3    H130944   0.062   1.501  14.535 -0.5855 -0.5566  0.0618
 3151TIP3    H230945   0.072   1.514  14.685  0.2925  1.0312 -0.1019
 3152TIP3   OH230946   5.022   6.200   2.626 -0.3048 -0.0222  0.3044
 3152TIP3    H130947   4.928   6.214   2.616 -0.2944 -0.1353  0.0424
 3152TIP3    H230948   5.029   6.129   2.690 -0.3756  0.5766  0.9980
 3153TIP3   OH230949   4.192   5.372   2.381 -0.4439 -0.3102  0.1936
 3153TIP3    H130950   4.157   5.400   2.466  0.1012  0.1633  0.2675
 3153TIP3    H230951   4.125   5.398   2.318 -0.2813  0.4926  0.3435
 3154TIP3   OH230952   2.246   3.902  12.530 -0.0896  0.0876  0.1170
 3154TIP3    H130953   2.167   3.928  12.482 -0.2539  2.0533  1.3481
 3154TIP3    H230954   2.213   3.870  12.614  0.3738 -0.4165  0.1113
 3155TIP3   OH230955   5.957   6.688  14.336  0.4335  0.0231 -0.5597
 3155TIP3    H130956   5.992   6.696  14.248  0.9079 -0.1170 -0.3874
 3155TIP3    H230957   5.866   6.714  14.328  1.1891  2.9905 -0.5176
 3156TIP3   OH230958   4.771   4.987   2.809  0.2469 -0.9082 -0.0200
 3156TIP3    H130959   4.766   5.070   2.856 -0.7695 -0.4334 -0.9217
 3156TIP3    H230960   4.789   4.921   2.877 -1.5815 -0.3136  1.1069
 3157TIP3   OH230961   6.530   5.654   5.731  0.4569 -0.4196 -0.1629
 3157TIP3    H130962   6.443   5.642   5.768  0.4674  0.8099  0.3247
 3157TIP3    H230963   6.544   5.576   5.677 -0.4432 -1.2149  0.6995
 3158TIP3   OH230964   0.968   2.993  14.430 -0.0830 -0.0840 -0.0570
 3158TIP3    H130965   0.958   2.928  14.360  0.2340 -2.1686  1.7249
 3158TIP3    H230966   1.042   3.046  14.403  2.0163 -2.7662  0.0052
 3159TIP3   OH230967   4.826   0.898  15.911 -0.0398  0.2253 -0.1686
 3159TIP3    H130968   4.747   0.848  15.931 -0.9588  1.4191 -0.6844
 3159TIP3    H230969   4.849   0.941  15.994  0.2131 -0.3107  0.0419
 3160TIP3   OH230970   5.288   0.961  15.873 -0.0335  0.4634  0.0843
 3160TIP3    H130971   5.249   0.884  15.832 -0.9496 -0.3454  2.3079
 3160TIP3    H230972   5.381   0.939  15.882 -0.0525  0.1587 -0.4598
 3161TIP3   OH230973   4.333   6.537  16.420  0.4485  0.5949  0.2031
 3161TIP3    H130974   4.298   6.585  16.494 -3.7747  0.8698 -1.6657
 3161TIP3    H230975   4.411   6.586  16.393 -1.3222  4.0528  0.8815
 3162TIP3   OH230976   5.440   3.869  12.212  0.3094 -0.5363 -0.6694
 3162TIP3    H130977   5.466   3.961  12.213 -0.5180 -0.2937  0.5080
 3162TIP3    H230978   5.503   3.826  12.269 -0.1893 -0.4321 -0.0316
 3163TIP3   OH230979   5.353   6.543   0.130 -0.6460  0.0552 -0.8214
 3163TIP3    H130980   5.435   6.565   0.175 -1.1048 -1.3033  0.7750
 3163TIP3    H230981   5.378   6.479   0.063 -0.1574  1.0892 -1.6640
 3164TIP3   OH230982   3.389   3.875   1.183  0.0871  0.2077  0.1695
 3164TIP3    H130983   3.389   3.799   1.125  0.3626  0.6625 -0.4373
 3164TIP3    H230984   3.353   3.842   1.266  1.5437 -0.9297  0.3878
 3165TIP3   OH230985   6.406   5.444  14.544 -0.1571  0.0198  0.0050
 3165TIP3    H130986   6.333   5.500  14.519 -0.7870 -1.0099 -0.5349
 3165TIP3    H230987   6.420   5.464  14.636 -1.4836 -0.1305  0.2702
 3166TIP3   OH230988   6.189   5.738  15.362  0.6089  0.1550 -0.4482
 3166TIP3    H130989   6.105   5.750  15.408  1.0189 -1.7811  0.9261
 3166TIP3    H230990   6.174   5.778  15.276 -1.2479  1.0993  0.2305
 3167TIP3   OH230991   0.600   5.092  12.299 -0.2896 -0.1004 -0.0376
 3167TIP3    H130992   0.529   5.030  12.314  0.6380 -0.7610  1.9267
 3167TIP3    H230993   0.673   5.058  12.350  0.0228  3.0702  1.8980
 3168TIP3   OH230994   3.011   1.690  12.688  0.0959  0.1617 -0.4704
 3168TIP3    H130995   3.051   1.681  12.602 -1.2673  0.9798 -1.2230
 3168TIP3    H230996   2.919   1.665  12.675 -0.1996  0.5918  0.6689
 3169TIP3   OH230997   3.587   0.627  12.394  0.3279 -0.2326 -0.4509
 3169TIP3    H130998   3.595   0.552  12.453  0.4727  0.3622  0.3023
 3169TIP3    H230999   3.649   0.609  12.323 -0.7533 -1.5653 -1.1099
 3170TIP3   OH231000   2.641   3.152  14.084 -0.4227  0.4514 -0.8275
 3170TIP3    H131001   2.671   3.174  14.171 -0.2044 -1.3583 -0.3991
 3170TIP3    H231002   2.551   3.184  14.080 -0.3389  0.7854 -0.0308
 3171TIP3   OH231003   3.020   4.376  12.907 -0.5648 -0.0883 -0.1057
 3171TIP3    H131004   3.107   4.405  12.934 -1.3031 -0.0506  2.5050
 3171TIP3    H231005   3.003   4.423  12.825  1.4725  0.6165 -0.1743
 3172TIP3   OH231006   5.964   6.149   5.954  0.2359  0.3021 -0.1000
 3172TIP3    H131007   5.994   6.089   6.022  2.5419 -0.1380 -1.3709
 3172TIP3    H231008   6.000   6.113   5.873 -3.0526  0.3705 -1.7496
 3173TIP3   OH231009   6.457   3.108  13.625 -0.1890 -0.0592 -0.4328
 3173TIP3    H131010   6.401   3.139  13.697  0.2117  0.8044 -0.4811
 3173TIP3    H231011   6.417   3.144  13.546  1.1752  1.7431 -0.3576
 3174TIP3   OH231012   2.598   0.561   2.094 -0.1328 -0.2404  0.4193
 3174TIP3    H131013   2.611   0.490   2.156 -1.2173  1.2915  2.5219
 3174TIP3    H231014   2.531   0.617   2.135  2.0043  3.0264 -0.1773
 3175TIP3   OH231015   6.083   0.952   4.996 -0.6305  0.4375 -0.0034
 3175TIP3    H131016   6.067   0.944   4.902  2.7112  0.7034 -0.7441
 3175TIP3    H231017   6.099   0.862   5.025 -0.2302  0.4904 -0.0458
 3176TIP3   OH231018   2.760   4.472  12.217  0.7029 -0.0385 -0.0242
 3176TIP3    H131019   2.752   4.487  12.311  0.0413  1.7303 -0.3228
 3176TIP3    H231020   2.670   4.459  12.186  0.8407  0.1706 -0.5266
 3177TIP3   OH231021   0.729   5.166   1.931  0.1677  0.7287 -0.1611
 3177TIP3    H131022   0.663   5.108   1.891 -0.3200  1.7743 -0.9333
 3177TIP3    H231023   0.747   5.231   1.863 -0.2338  2.2210  1.1047
 3178TIP3   OH231024   0.902   6.430   5.734 -0.2916 -0.4473 -0.3227
 3178TIP3    H131025   0.942   6.517   5.745 -1.6229  0.4612 -2.1352
 3178TIP3    H231026   0.847   6.439   5.656  0.5399 -3.3202 -1.3499
 3179TIP3   OH231027   3.940   0.976   0.583  0.0749  0.4384  0.2525
 3179TIP3    H131028   3.888   0.937   0.513  0.9213  1.0150 -0.7233
 3179TIP3    H231029   4.031   0.967   0.554  0.4589  0.5462  1.3533
 3180TIP3   OH231030   1.187   2.342  15.195  0.1479 -0.1014  0.3920
 3180TIP3    H131031   1.160   2.434  15.201  0.3255 -0.0401  0.2621
 3180TIP3    H231032   1.251   2.331  15.265  0.7369  0.0899 -0.1125
 3181TIP3   OH231033   2.547   0.983  11.412 -0.5396 -0.2148 -0.7325
 3181TIP3    H131034   2.526   0.916  11.477  1.3361  1.5136  1.8951
 3181TIP3    H231035   2.624   0.949  11.367 -1.2625 -1.0011 -1.4056
 3182TIP3   OH231036   5.685   3.460  15.423 -0.4316 -0.0686  0.6235
 3182TIP3    H131037   5.618   3.527  15.435  0.3193  0.6480  0.9002
 3182TIP3    H231038   5.698   3.458  15.328 -1.1159 -0.4992  0.5280
 3183TIP3   OH231039   5.073   4.653  11.670 -0.1420  0.3777 -0.2574
 3183TIP3    H131040   5.007   4.591  11.701  0.2030 -0.3966 -1.0375
 3183TIP3    H231041   5.133   4.664  11.744 -1.1120  1.0701  0.4476
 3184TIP3   OH231042   5.725   4.582   3.184  0.4540  0.1615  0.3024
 3184TIP3    H131043   5.744   4.597   3.092  1.9504 -1.3820  0.2928
 3184TIP3    H231044   5.781   4.644   3.231 -0.4351  1.0655  0.1988
 3185TIP3   OH231045   2.515   2.151   0.083  0.6898  0.0787 -0.6230
 3185TIP3    H131046   2.437   2.118   0.127  0.9793  0.0604 -0.1068
 3185TIP3    H231047   2.518   2.105  -0.000 -0.5791  1.0437 -1.2420
 3186TIP3   OH231048   2.640   2.547   1.691  0.3438 -0.7016 -0.2549
 3186TIP3    H131049   2.644   2.538   1.596 -0.8552 -0.0282 -0.3945
 3186TIP3    H231050   2.724   2.513   1.723  0.7822 -0.8676 -1.5508
 3187TIP3   OH231051   1.459   0.558  10.765 -0.3883 -0.2078  0.4057
 3187TIP3    H131052   1.415   0.578  10.682  1.5829 -1.3192 -0.9659
 3187TIP3    H231053   1.387   0.555  10.829 -1.8669  1.5606 -1.0381
 3188TIP3   OH231054   0.654   1.323  15.223 -0.1358 -0.1181  0.4456
 3188TIP3    H131055   0.594   1.389  15.188  0.4186 -0.5900 -1.5440
 3188TIP3    H231056   0.601   1.244  15.233  0.2457 -0.8224 -2.2588
 3189TIP3   OH231057   3.799   4.919  15.111 -1.0866  0.1181  0.1073
 3189TIP3    H131058   3.803   4.884  15.022  1.1920  1.7433 -0.5321
 3189TIP3    H231059   3.884   4.898  15.149 -0.7514  2.2821  0.7043
 3190TIP3   OH231060   5.765   3.550  16.751 -0.1013 -0.1882 -0.2770
 3190TIP3    H131061   5.823   3.596  16.811 -0.2693 -2.4359  1.7716
 3190TIP3    H231062   5.813   3.550  16.667  0.6746  2.0136  0.1040
 3191TIP3   OH231063   3.091   1.783   5.648 -0.1823 -0.7120 -0.2451
 3191TIP3    H131064   3.150   1.710   5.629 -3.4501 -3.3367 -1.1589
 3191TIP3    H231065   3.018   1.743   5.695 -2.7058  1.7020 -1.8161
 3192TIP3   OH231066   1.290   3.389  14.731  0.5835  0.5094 -0.6772
 3192TIP3    H131067   1.205   3.373  14.690  0.0398 -3.3452  1.4439
 3192TIP3    H231068   1.276   3.465  14.787 -1.3097  0.2713 -0.7612
 3193TIP3   OH231069   2.719   6.070  16.459  0.4326 -0.1334  0.0149
 3193TIP3    H131070   2.660   6.034  16.525  0.1024  0.6405  0.1521
 3193TIP3    H231071   2.795   6.101  16.509  2.0604 -3.1848 -0.3579
 3194TIP3   OH231072   0.893   1.693  12.489  0.0403  0.0277  0.1811
 3194TIP3    H131073   0.974   1.653  12.520  0.1167  2.2729  3.4184
 3194TIP3    H231074   0.824   1.637  12.524  0.1931  0.9545  2.0830
 3195TIP3   OH231075   5.355   0.842   3.994 -0.1792 -0.2066 -0.3272
 3195TIP3    H131076   5.281   0.862   4.051 -1.9777 -0.0746 -2.5304
 3195TIP3    H231077   5.325   0.767   3.943  0.4746  0.8800 -2.4289
 3196TIP3   OH231078   6.182   2.308   1.313 -0.1232 -0.2415  0.2774
 3196TIP3    H131079   6.214   2.269   1.394  0.7570  0.4964  0.3082
 3196TIP3    H231080   6.223   2.394   1.310  1.7919 -1.1014 -2.0726
 3197TIP3   OH231081   0.944   5.135   3.018  0.2182 -0.4596 -0.1790
 3197TIP3    H131082   0.990   5.094   3.092  0.6646 -0.2925 -0.3616
 3197TIP3    H231083   0.999   5.116   2.942  0.2532  0.1844 -0.3199
 3198TIP3   OH231084   2.281   2.026   1.719 -0.1623  0.4476 -0.3093
 3198TIP3    H131085   2.225   2.093   1.758  0.7881  0.2868  1.4551
 3198TIP3    H231086   2.369   2.065   1.720  0.2797 -0.5255  0.0668
 3199TIP3   OH231087   5.609   3.783  12.406  0.1239  0.1804 -0.0177
 3199TIP3    H131088   5.597   3.792  12.500  2.1792  0.1254  0.3013
 3199TIP3    H231089   5.693   3.825  12.389  0.1338 -0.4571 -1.7123
 3200TIP3   OH231090   4.808   4.066  15.135 -0.5951 -0.1429 -0.4241
 3200TIP3    H131091   4.782   3.983  15.173 -0.4116  0.7745  1.9143
 3200TIP3    H231092   4.899   4.077  15.163 -0.6100  0.8129 -0.7061
 3201TIP3   OH231093   2.731   6.017   0.370 -0.4509 -0.2408  0.0155
 3201TIP3    H131094   2.724   6.062   0.455 -0.4289 -0.8072  0.3229
 3201TIP3    H231095   2.825   6.000   0.361 -0.1484  1.7483 -1.1530
 3202TIP3   OH231096   0.662   6.014   4.457  0.2514 -0.1824  0.3071
 3202TIP3    H131097   0.711   6.095   4.442 -2.3440  1.5969  0.7257
 3202TIP3    H231098   0.666   6.001   4.551 -2.8876  2.0432  0.8858
 3203TIP3   OH231099   5.938   1.836  10.843  0.1231 -0.1037 -0.2982
 3203TIP3    H131100   5.967   1.851  10.933  1.0492  0.7835 -0.7245
 3203TIP3    H231101   6.018   1.816  10.795 -0.1398  0.9844 -1.2327
 3204TIP3   OH231102   4.046   2.302  16.917  0.2340  0.6308 -0.5468
 3204TIP3    H131103   4.088   2.385  16.942  2.1063 -0.5867  0.5450
 3204TIP3    H231104   4.114   2.254  16.870 -0.8642 -0.2828 -1.2580
 3205TIP3   OH231105   4.252   5.167   3.012  0.5359 -0.1157 -0.7789
 3205TIP3    H131106   4.196   5.127   3.079  0.6600 -1.3314 -1.3710
 3205TIP3    H231107   4.211   5.251   2.993 -0.1528 -0.2699 -0.0147
 3206TIP3   OH231108   4.231   1.065   5.602  0.5954 -0.7423 -0.2095
 3206TIP3    H131109   4.305   1.100   5.552 -0.1395  0.0215 -0.7955
 3206TIP3    H231110   4.271   1.010   5.669  1.7824  0.8483  0.4374
 3207TIP3   OH231111   1.840   2.302   3.398  0.6536 -0.3486  0.3759
 3207TIP3    H131112   1.904   2.268   3.336  2.2962  1.0640  1.1985
 3207TIP3    H231113   1.892   2.335   3.471 -0.7838  2.8755  0.1423
 3208TIP3   OH231114   6.033   1.337   4.263 -0.5234 -0.5442 -0.3507
 3208TIP3    H131115   5.986   1.410   4.304 -0.0213  1.7679 -3.5471
 3208TIP3    H231116   6.000   1.336   4.173  3.2136 -0.8367 -1.8619
 3209TIP3   OH231117   2.144   2.468  11.931 -0.3839 -0.1099 -0.4328
 3209TIP3    H131118   2.154   2.492  11.838  0.8567  1.7580  0.1294
 3209TIP3    H231119   2.232   2.444  11.959 -0.3622  1.1511  0.6921
 3210TIP3   OH231120   1.546   1.421  17.014 -0.6698 -0.0334 -0.4756
 3210TIP3    H131121   1.598   1.342  17.030 -0.2574  0.3186 -0.0596
 3210TIP3    H231122   1.470   1.390  16.964 -0.0895 -0.5639 -1.0509
 3211TIP3   OH231123   4.137   2.362  12.764 -0.0453  0.2884  0.2148
 3211TIP3    H131124   4.046   2.337  12.780 -0.1527  0.9162  0.6274
 3211TIP3    H231125   4.159   2.321  12.680 -0.3617 -0.7618  0.6283
 3212TIP3   OH231126   3.390   5.603   3.577 -0.1835 -0.0658 -0.4379
 3212TIP3    H131127   3.303   5.613   3.615 -0.0857 -0.7812 -0.0260
 3212TIP3    H231128   3.449   5.598   3.652 -0.0735 -2.3061 -0.6052
 3213TIP3   OH231129   4.996   0.184  14.922 -0.0677  0.3253 -0.0180
 3213TIP3    H131130   4.982   0.201  14.829 -0.8684 -0.1334  0.0161
 3213TIP3    H231131   4.943   0.107  14.941  0.0333  0.4586  0.8390
 3214TIP3   OH231132   1.763   3.949   4.363 -0.3108  0.0073 -0.6842
 3214TIP3    H131133   1.799   3.969   4.277  0.7808 -0.4337 -0.3500
 3214TIP3    H231134   1.801   4.014   4.422 -0.1092 -0.4123 -0.3384
 3215TIP3   OH231135   1.519   3.804   4.762  0.2368  0.0885 -0.2490
 3215TIP3    H131136   1.574   3.828   4.687  0.1537 -0.1998 -0.4018
 3215TIP3    H231137   1.430   3.827   4.735  0.1196 -0.6781 -0.5147
 3216TIP3   OH231138   3.328   2.892   6.260  0.6083 -0.4623  0.1248
 3216TIP3    H131139   3.377   2.952   6.202  0.2797  0.2286  0.5472
 3216TIP3    H231140   3.271   2.844   6.201 -0.6542  1.1359 -0.0272
 3217TIP3   OH231141   4.835   6.628  16.710  0.2888 -0.1744  0.1788
 3217TIP3    H131142   4.805   6.702  16.761  0.4790  0.1615 -0.1869
 3217TIP3    H231143   4.878   6.667  16.634 -2.1225 -0.6357 -1.5345
 3218TIP3   OH231144   2.891   6.568  14.530  0.3502  0.1195  0.1598
 3218TIP3    H131145   2.966   6.628  14.534  1.5211 -1.2817  0.0420
 3218TIP3    H231146   2.825   6.609  14.586  1.4623  1.0335  0.8560
 3219TIP3   OH231147   4.759   6.159   2.570 -0.2653 -0.6903  0.4075
 3219TIP3    H131148   4.700   6.208   2.513 -0.2675 -1.5364 -0.3395
 3219TIP3    H231149   4.705   6.086   2.603 -0.1889 -0.3617  1.2878
 3220TIP3   OH231150   5.213   0.653  12.481 -0.4911 -0.4791  0.6887
 3220TIP3    H131151   5.122   0.683  12.485 -0.4481  0.1028 -1.3492
 3220TIP3    H231152   5.254   0.690  12.559 -1.4292  1.3817  0.3662
 3221TIP3   OH231153   6.297   4.325  11.402 -0.0551 -0.0419 -0.3311
 3221TIP3    H131154   6.291   4.417  11.378 -1.2430  0.1405  0.5717
 3221TIP3    H231155   6.391   4.307  11.406  0.2793  1.7593  1.7162
 3222TIP3   OH231156   6.248   0.110   2.563  0.1136  0.4067  0.0091
 3222TIP3    H131157   6.206   0.099   2.648  0.9589  3.0204  0.8811
 3222TIP3    H231158   6.175   0.120   2.501 -0.5113 -1.7748  0.3145
 3223TIP3   OH231159   0.772   4.427  14.581  0.1163 -0.2016 -0.1796
 3223TIP3    H131160   0.677   4.422  14.589  0.0685  1.0179  0.1729
 3223TIP3    H231161   0.798   4.501  14.635  1.3260 -0.7648  0.0658
 3224TIP3   OH231162   2.302   2.378   5.774 -0.2825  0.4980  0.2984
 3224TIP3    H131163   2.300   2.416   5.862  2.4297  0.8633  0.2792
 3224TIP3    H231164   2.333   2.288   5.788 -0.1696  0.4475 -0.2560
 3225TIP3   OH231165   0.149   0.044  12.484  0.3014 -0.3220 -0.2650
 3225TIP3    H131166   0.144   0.048  12.580 -0.3993  1.6183 -0.3357
 3225TIP3    H231167   0.097   0.119  12.454 -1.7273 -2.3551 -2.2722
 3226TIP3   OH231168   4.490   1.888   5.960  0.1113  0.3169 -0.1683
 3226TIP3    H131169   4.544   1.826   5.911 -0.5153 -0.2548 -0.1471
 3226TIP3    H231170   4.483   1.964   5.903  2.7142  1.3092  0.6785
 3227TIP3   OH231171   5.946   6.006  12.959 -0.6328  0.8845 -0.0017
 3227TIP3    H131172   5.864   6.015  13.007  0.1833 -1.3806  2.0180
 3227TIP3    H231173   5.931   5.933  12.899 -0.7090  1.8603 -1.2367
 3228TIP3   OH231174   2.072   5.043  14.924 -0.3637 -0.4767  0.2843
 3228TIP3    H131175   2.033   4.998  14.848 -3.0763  1.2867  0.4986
 3228TIP3    H231176   2.059   5.136  14.906  3.0267  0.2592  0.9152
 3229TIP3   OH231177   0.997   3.428   3.914 -0.1425 -0.5865 -0.3971
 3229TIP3    H131178   1.074   3.376   3.935  0.3832  1.5741  4.4447
 3229TIP3    H231179   0.930   3.364   3.890  1.8794 -2.9546 -0.0945
 3230TIP3   OH231180   2.643   5.014  12.357 -0.0810 -0.1297  0.0773
 3230TIP3    H131181   2.707   4.973  12.415 -1.2046 -1.8466  0.1943
 3230TIP3    H231182   2.613   4.943  12.300 -0.1246  1.1729 -1.6092
 3231TIP3   OH231183   6.830   2.623   6.550  0.6457 -0.1335 -0.0226
 3231TIP3    H131184   6.865   2.708   6.524 -1.9249  1.2408  0.6865
 3231TIP3    H231185   6.895   2.588   6.611  1.3675  1.7142  0.3384
 3232TIP3   OH231186   6.097   3.753  12.630 -0.2164 -0.3587  0.6156
 3232TIP3    H131187   6.123   3.755  12.722 -2.3563 -0.3862  1.2741
 3232TIP3    H231188   6.098   3.661  12.606 -0.0690 -0.3882  0.7363
 3233TIP3   OH231189   5.999   4.562   6.277  0.2478 -0.3952 -0.2247
 3233TIP3    H131190   5.969   4.580   6.366  0.3175 -0.5815 -0.1630
 3233TIP3    H231191   5.921   4.533   6.231  0.1944 -0.2178 -0.2478
 3234TIP3   OH231192   1.679   1.863  13.895 -0.3994  0.0266  0.1980
 3234TIP3    H131193   1.712   1.904  13.814  1.9789 -2.6001 -0.3449
 3234TIP3    H231194   1.723   1.910  13.965  0.9569 -0.4144 -0.3191
 3235TIP3   OH231195   4.724   1.004   4.244 -0.2603  0.2109  0.0071
 3235TIP3    H131196   4.670   0.927   4.265 -1.3499  1.4663  2.1362
 3235TIP3    H231197   4.709   1.019   4.150 -1.8924 -0.7889  0.0678
 3236TIP3   OH231198   5.103   0.946  11.721 -0.4407 -0.1976  0.0128
 3236TIP3    H131199   5.085   0.900  11.803  1.2700 -1.2373 -0.1568
 3236TIP3    H231200   5.029   0.924  11.665 -0.5771 -1.2279  0.5643
 3237TIP3   OH231201   3.530   6.737   4.770  0.6171  0.3225  0.2742
 3237TIP3    H131202   3.559   6.684   4.696 -1.4702  0.2129 -0.5109
 3237TIP3    H231203   3.537   6.827   4.739  1.0943  0.3567  0.4686
 3238TIP3   OH231204   2.708   0.768  16.870 -0.3418  0.2197  0.4864
 3238TIP3    H131205   2.736   0.846  16.917  0.5033 -0.2360  0.7643
 3238TIP3    H231206   2.685   0.705  16.939 -0.2280 -0.0522  0.2778
 3239TIP3   OH231207   4.772   1.701   5.055  0.2966  0.2109 -0.1918
 3239TIP3    H131208   4.777   1.740   5.142  1.1183  0.4387 -0.3305
 3239TIP3    H231209   4.863   1.682   5.032 -0.0911 -2.7607  0.3133
 3240TIP3   OH231210   3.873   3.478   4.010 -0.1144 -0.1458  0.1882
 3240TIP3    H131211   3.862   3.385   4.032 -1.9200 -0.1447 -0.5263
 3240TIP3    H231212   3.784   3.510   3.998  0.5304  1.0868 -1.9477
 3241TIP3   OH231213   4.786   2.560  14.527  0.4302  0.3484 -0.1222
 3241TIP3    H131214   4.867   2.534  14.570  0.1361 -0.8371 -0.2658
 3241TIP3    H231215   4.716   2.524  14.581  0.0003  1.0117 -0.2203
 3242TIP3   OH231216   0.579   4.070   3.315 -0.1631 -0.0278 -0.3121
 3242TIP3    H131217   0.517   4.096   3.383 -0.6127 -1.2741 -0.2295
 3242TIP3    H231218   0.608   3.983   3.340  0.2761 -0.1786 -1.3006
 3243TIP3   OH231219   4.216   4.639  13.721 -0.0763 -0.1547  0.3720
 3243TIP3    H131220   4.229   4.732  13.701 -1.6175  0.1360  0.6153
 3243TIP3    H231221   4.215   4.635  13.816 -1.6547 -0.1332  0.3841
 3244TIP3   OH231222   2.961   5.390   1.696 -0.6871  0.3405 -0.2288
 3244TIP3    H131223   3.034   5.445   1.726 -0.6211  1.0472 -1.6038
 3244TIP3    H231224   2.918   5.362   1.776  1.6708 -0.9169  0.7110
 3245TIP3   OH231225   3.114   0.810  12.196 -0.3738 -0.0260 -0.0915
 3245TIP3    H131226   3.049   0.823  12.264 -0.7187  0.1535 -0.4488
 3245TIP3    H231227   3.110   0.890  12.144 -0.0663 -0.1316 -0.2812
 3246TIP3   OH231228   2.344   3.550  15.198 -0.2658  0.5533  0.0065
 3246TIP3    H131229   2.421   3.544  15.254 -0.1485 -0.1442 -0.2194
 3246TIP3    H231230   2.284   3.607  15.245 -0.8873 -1.3857  1.7346
 3247TIP3   OH231231   3.594   6.523  12.636 -0.4319 -0.2820  0.0575
 3247TIP3    H131232   3.545   6.472  12.572  0.5056 -0.8502 -0.2298
 3247TIP3    H231233   3.663   6.566  12.585  0.3129 -0.7240  0.6701
 3248TIP3   OH231234   1.475   2.407  15.675  0.4126  0.1174 -0.3774
 3248TIP3    H131235   1.465   2.495  15.711  2.4146 -0.1811  1.1140
 3248TIP3    H231236   1.427   2.351  15.735  1.5351 -0.0889  0.3563
 3249TIP3   OH231237   4.246   2.246  13.983  0.2834  0.3992  0.2693
 3249TIP3    H131238   4.237   2.242  13.887  2.2442  2.3258 -0.0717
 3249TIP3    H231239   4.163   2.282  14.013 -0.4061 -0.3360 -0.6660
 3250TIP3   OH231240   0.131   0.819   0.671 -0.0928 -0.3561  0.2516
 3250TIP3    H131241   0.195   0.758   0.635  0.9727  0.8037  0.1155
 3250TIP3    H231242   0.178   0.865   0.741 -0.5179  1.0544 -0.3576
 3251TIP3   OH231243   2.867   2.616  13.658 -0.4404  0.4274  0.0619
 3251TIP3    H131244   2.896   2.701  13.693  0.0747 -0.0962  0.9334
 3251TIP3    H231245   2.858   2.631  13.564 -1.0510  1.6449  0.2962
 3252TIP3   OH231246   3.846   6.231   2.309  0.3917  0.0199  0.4853
 3252TIP3    H131247   3.848   6.307   2.251  0.3270 -0.0886  0.3386
 3252TIP3    H231248   3.861   6.156   2.250  1.1215 -0.0283  0.7185
 3253TIP3   OH231249   4.510   2.794  13.911 -0.5935  0.0436  0.1037
 3253TIP3    H131250   4.446   2.727  13.889 -1.1194  1.2708 -2.5114
 3253TIP3    H231251   4.459   2.863  13.953  0.0391 -1.2728  3.3725
 3254TIP3   OH231252   0.197   4.744   4.653  0.0229  0.7231 -0.7400
 3254TIP3    H131253   0.245   4.699   4.722 -0.2267 -3.0211 -2.7631
 3254TIP3    H231254   0.128   4.791   4.699  1.7593  1.0478  1.7373
 3255TIP3   OH231255   2.177   4.123   3.162  0.8654  0.4234  0.7354
 3255TIP3    H131256   2.094   4.171   3.172 -1.2938 -2.6191 -0.8434
 3255TIP3    H231257   2.163   4.040   3.207  2.0845 -1.1383 -1.5227
 3256TIP3   OH231258   0.003   1.869  14.172 -0.1857 -0.2355  0.2074
 3256TIP3    H131259   0.080   1.926  14.170 -1.0178  0.8959 -0.4577
 3256TIP3    H231260   0.011   1.822  14.255 -0.1444  1.8313  1.4413
 3257TIP3   OH231261   6.606   1.199  13.841  0.0471  0.3984 -0.1467
 3257TIP3    H131262   6.604   1.249  13.922  0.2779 -0.4955  0.4202
 3257TIP3    H231263   6.665   1.248  13.784  0.6405  0.5273  0.5702
 3258TIP3   OH231264   1.122   1.992  17.162  0.0721 -0.7380  0.5912
 3258TIP3    H131265   1.182   1.989  17.087 -0.6028  0.6617 -0.0517
 3258TIP3    H231266   1.039   1.959  17.127 -0.3789  0.3755  0.5413
 3259TIP3   OH231267   6.295   3.780   3.068  0.0797  0.2345 -0.8472
 3259TIP3    H131268   6.271   3.688   3.060 -1.6525  0.6746 -0.9952
 3259TIP3    H231269   6.360   3.782   3.139  2.5531 -1.4582 -2.8697
 3260TIP3   OH231270   1.307   0.775   1.388  0.3235 -0.5758  0.6269
 3260TIP3    H131271   1.367   0.710   1.352  1.9215  0.2591  1.6772
 3260TIP3    H231272   1.277   0.737   1.470 -2.2223 -1.8531 -0.7561
 3261TIP3   OH231273   6.189   3.073  14.098  0.3911  0.1249  0.3129
 3261TIP3    H131274   6.114   3.099  14.044  0.6355  0.0060 -0.0878
 3261TIP3    H231275   6.151   3.021  14.169 -0.1131  1.5782  1.1481
 3262TIP3   OH231276   1.057   4.981  12.990  0.5609 -0.5860  1.0026
 3262TIP3    H131277   1.072   4.911  13.054 -0.2722 -1.6194  0.1086
 3262TIP3    H231278   1.036   4.935  12.909 -3.8045  0.5205  1.2273
 3263TIP3   OH231279   2.871   1.351   2.366 -0.2018  0.4359  0.5185
 3263TIP3    H131280   2.784   1.390   2.375 -0.9704 -0.9202 -0.6663
 3263TIP3    H231281   2.857   1.272   2.315  1.5845 -0.4163  1.2568
 3264TIP3   OH231282   0.819   2.868   2.237 -0.8684 -0.7239 -0.0040
 3264TIP3    H131283   0.795   2.784   2.276  0.8953 -1.0403  0.4671
 3264TIP3    H231284   0.912   2.860   2.216 -0.3106  1.5388  1.2551
 3265TIP3   OH231285   1.042   3.053  16.051  0.3072 -0.2444 -0.3363
 3265TIP3    H131286   1.041   3.070  15.956  1.0017 -0.6965 -0.4310
 3265TIP3    H231287   1.096   2.974  16.060 -1.2404 -1.2701  0.2718
 3266TIP3   OH231288   3.828   3.781   4.643 -0.4246  0.4070  0.3142
 3266TIP3    H131289   3.770   3.714   4.607 -1.7880  2.4596 -1.5684
 3266TIP3    H231290   3.798   3.794   4.733 -1.6064  0.0470 -0.0168
 3267TIP3   OH231291   3.045   6.438   3.068 -0.4653 -0.1907  0.7900
 3267TIP3    H131292   3.067   6.366   3.009  1.5293  1.7625 -1.0457
 3267TIP3    H231293   3.129   6.479   3.089 -1.4861  1.4340  2.0345
 3268TIP3   OH231294   4.436   1.650  14.290  0.5628  0.2000  0.0855
 3268TIP3    H131295   4.428   1.735  14.334  1.5396  0.2952  0.0919
 3268TIP3    H231296   4.347   1.614  14.293  0.4276  0.5895  1.3325
 3269TIP3   OH231297   5.866   6.724  13.201  0.0267 -0.0539  0.5079
 3269TIP3    H131298   5.904   6.785  13.139 -1.1809  1.7431  1.4248
 3269TIP3    H231299   5.921   6.730  13.279  0.0514 -0.3258  0.5135
 3270TIP3   OH231300   5.679   5.328  15.430  0.0667 -0.0745 -0.0728
 3270TIP3    H131301   5.608   5.359  15.373 -0.9334 -0.8293  0.7296
 3270TIP3    H231302   5.711   5.407  15.474 -0.1902  0.2929 -0.5391
 3271TIP3   OH231303   6.148   3.740  15.124  0.3418  0.1764 -0.3793
 3271TIP3    H131304   6.132   3.813  15.064  1.2175  1.3338  0.7269
 3271TIP3    H231305   6.060   3.706  15.143 -0.2708  1.9587  0.2671
 3272TIP3   OH231306   4.190   5.212  16.250 -0.1178  0.1960 -0.4970
 3272TIP3    H131307   4.097   5.237  16.253  0.1564  1.3388 -0.9462
 3272TIP3    H231308   4.223   5.235  16.337  0.1631  1.5968 -0.9491
 3273TIP3   OH231309   0.007   2.378  16.067 -0.5350 -0.2329  0.3099
 3273TIP3    H131310   0.018   2.412  15.978 -1.7480 -0.3417  0.0994
 3273TIP3    H231311   0.079   2.417  16.116  0.3511 -0.4379 -0.7887
 3274TIP3   OH231312   5.048   5.500   5.704  0.4382 -0.1942  0.4954
 3274TIP3    H131313   5.022   5.565   5.639 -0.2317 -0.6831  0.2677
 3274TIP3    H231314   5.113   5.545   5.758  1.0178  0.2013 -0.5205
 3275TIP3   OH231315   6.344   0.083   4.378  0.4259  0.3151  0.4514
 3275TIP3    H131316   6.397   0.047   4.449 -0.8089 -0.8372  0.8361
 3275TIP3    H231317   6.371   0.035   4.300 -0.2740 -0.5297  0.7148
 3276TIP3   OH231318   0.638   0.592   2.344  0.5163 -0.1435 -0.6954
 3276TIP3    H131319   0.733   0.590   2.360  0.1804  1.3744  2.0168
 3276TIP3    H231320   0.609   0.674   2.382 -1.9643 -0.7121 -1.1965
 3277TIP3   OH231321   2.706   4.922   0.882 -0.4225 -0.1230 -0.0015
 3277TIP3    H131322   2.763   4.998   0.896  1.2675 -1.7696  3.0867
 3277TIP3    H231323   2.643   4.926   0.953 -2.1720 -0.1541 -1.4837
 3278TIP3   OH231324   6.655   2.149   3.609 -0.5718  0.1084 -0.1318
 3278TIP3    H131325   6.670   2.064   3.568  2.2868  0.6890 -0.5080
 3278TIP3    H231326   6.667   2.212   3.537  0.3868  0.9346  0.7179
 3279TIP3   OH231327   0.874   3.217  13.006 -0.0693  0.3281 -0.1550
 3279TIP3    H131328   0.860   3.306  13.040 -0.3923  0.1887  0.0739
 3279TIP3    H231329   0.788   3.188  12.977  0.1358  0.3028 -0.7645
 3280TIP3   OH231330   6.423   0.452  16.379  1.1059  1.0255 -0.5130
 3280TIP3    H131331   6.501   0.493  16.343  0.9210 -0.2581 -2.5011
 3280TIP3    H231332   6.353   0.515  16.364  1.4575  1.4911 -0.2092
 3281TIP3   OH231333   6.475   3.442  15.357 -0.4479  0.4078  0.5050
 3281TIP3    H131334   6.443   3.531  15.342 -3.0734 -0.4864  0.2544
 3281TIP3    H231335   6.461   3.427  15.451 -0.0915  0.2177  0.5308
 3282TIP3   OH231336   4.954   5.211  12.176  0.4030  0.0288  0.1729
 3282TIP3    H131337   4.968   5.119  12.153 -0.4032  0.0079 -0.2799
 3282TIP3    H231338   4.920   5.207  12.266 -0.6642 -0.2120 -0.2191
 3283TIP3   OH231339   1.501   4.450  15.148  0.2563 -0.0015 -0.3268
 3283TIP3    H131340   1.429   4.466  15.087 -0.6194  0.8430  0.8788
 3283TIP3    H231341   1.472   4.376  15.201  0.2541  0.3544  0.1770
 3284TIP3   OH231342   0.239   2.899  10.699 -0.2573  0.3650  0.0078
 3284TIP3    H131343   0.275   2.865  10.617 -1.0920 -0.2467 -0.1267
 3284TIP3    H231344   0.149   2.865  10.701 -1.3299  2.9196 -0.3654
 3285TIP3   OH231345   5.086   5.236   5.699 -0.1614  0.2551 -0.2392
 3285TIP3    H131346   5.099   5.331   5.701  1.0158  0.1217 -0.7570
 3285TIP3    H231347   5.130   5.204   5.778  1.9390 -0.1002 -1.4750
 3286TIP3   OH231348   1.843   4.602   3.146 -0.5598  0.6710  0.2385
 3286TIP3    H131349   1.887   4.518   3.141 -1.3062  0.1640  1.7159
 3286TIP3    H231350   1.879   4.644   3.224  0.0618  1.9044 -0.6673
 3287TIP3   OH231351   1.080   6.274   1.891 -0.6443 -0.1612 -0.0177
 3287TIP3    H131352   1.007   6.289   1.952 -0.4157 -1.0698  0.4826
 3287TIP3    H231353   1.085   6.179   1.882  2.8980 -0.4526  2.9650
 3288TIP3   OH231354   1.554   6.410  16.833  0.1615 -0.7158 -0.0536
 3288TIP3    H131355   1.550   6.315  16.821  2.4299 -0.6234 -2.5086
 3288TIP3    H231356   1.560   6.445  16.744  4.4858  1.2857  0.7586
 3289TIP3   OH231357   4.339   3.158   1.192  0.3354  0.9763 -0.2020
 3289TIP3    H131358   4.409   3.190   1.135 -0.2194  0.6458 -1.1017
 3289TIP3    H231359   4.358   3.065   1.202  0.8222  1.1759  0.7373
 3290TIP3   OH231360   5.723   4.424   7.010 -0.0503 -0.6037 -0.0447
 3290TIP3    H131361   5.783   4.388   6.944  1.3367  1.3495  0.0470
 3290TIP3    H231362   5.671   4.489   6.962  1.4016  1.2923  0.7829
 3291TIP3   OH231363   0.063   1.144  17.084  0.4802  0.3089 -0.5125
 3291TIP3    H131364   0.147   1.177  17.115  0.9948 -0.8543 -0.6199
 3291TIP3    H231365   0.006   1.147  17.161  0.4610  1.5693 -0.5621
 3292TIP3   OH231366   0.280   3.153   5.866  0.1613 -0.4207  0.0640
 3292TIP3    H131367   0.326   3.094   5.806  0.0803 -1.9971  1.4706
 3292TIP3    H231368   0.190   3.156   5.833  0.2568 -0.8002 -0.2355
 3293TIP3   OH231369   3.467   5.176  12.915 -0.2835  0.7042 -0.0937
 3293TIP3    H131370   3.386   5.182  12.864 -1.2647  0.6015  1.4162
 3293TIP3    H231371   3.522   5.246  12.880 -0.0889 -0.6243 -2.6804
 3294TIP3   OH231372   0.934   0.767   5.347  0.1069  0.3987 -0.1245
 3294TIP3    H131373   0.997   0.784   5.417  0.0601 -0.8796  0.2507
 3294TIP3    H231374   0.956   0.831   5.279  2.4905 -0.6851 -0.4620
 3295TIP3   OH231375   5.537   6.617   6.732  0.0390  0.6376  0.4634
 3295TIP3    H131376   5.571   6.688   6.786 -1.2162 -0.3582  2.6732
 3295TIP3    H231377   5.562   6.537   6.777 -3.0171 -0.1892  0.9440
 3296TIP3   OH231378   1.569   5.414  14.271 -0.2913 -0.4603 -0.6944
 3296TIP3    H131379   1.537   5.349  14.334  2.4432  0.5976  2.0479
 3296TIP3    H231380   1.536   5.498  14.304  0.4001  0.0247 -1.1915
 3297TIP3   OH231381   3.154   0.545   1.843 -0.0045 -0.5611  0.3393
 3297TIP3    H131382   3.148   0.578   1.933  1.2963 -1.3899  0.7544
 3297TIP3    H231383   3.248   0.540   1.826 -0.1987  1.6644 -1.8724
 3298TIP3   OH231384   3.848   0.085  13.858  0.9495  0.3286 -0.0138
 3298TIP3    H131385   3.753   0.087  13.869  0.8842  0.1572 -0.5385
 3298TIP3    H231386   3.864   0.127  13.774  1.4999  2.2254  0.9904
 3299TIP3   OH231387   2.303   2.814  16.068 -0.4928 -0.0419 -0.0645
 3299TIP3    H131388   2.351   2.767  16.000  0.6944  0.1782  0.5838
 3299TIP3    H231389   2.349   2.898  16.076 -1.1006  0.2533  0.4665
 3300TIP3   OH231390   0.169   4.511   5.582 -0.7269  0.2797 -0.2579
 3300TIP3    H131391   0.157   4.505   5.487 -1.1584 -0.7516 -0.1545
 3300TIP3    H231392   0.263   4.502   5.596 -0.4441  2.1802 -0.6847
 3301TIP3   OH231393   1.846   3.213  11.612  0.4306  0.1192  0.0019
 3301TIP3    H131394   1.805   3.236  11.528 -0.3133  0.2395  0.3893
 3301TIP3    H231395   1.773   3.186  11.668  0.4385  3.1405  1.6797
 3302TIP3   OH231396   5.074   3.243   4.958 -0.0095  0.5488 -0.0540
 3302TIP3    H131397   4.985   3.212   4.946  0.1294  0.4608 -0.9458
 3302TIP3    H231398   5.067   3.313   5.022 -0.5765 -0.1218  0.6363
 3303TIP3   OH231399   4.297   6.662  14.588 -0.0979 -0.4969  0.0918
 3303TIP3    H131400   4.337   6.601  14.650 -0.9927  0.7974  2.0525
 3303TIP3    H231401   4.234   6.609  14.540  0.7594 -1.5879  0.1427
 3304TIP3   OH231402   5.781   3.722   3.487  0.2112 -0.0262  0.1205
 3304TIP3    H131403   5.816   3.803   3.451 -1.4525  0.7108  0.0641
 3304TIP3    H231404   5.780   3.662   3.412  1.3394 -0.0822  0.1351
 3305TIP3   OH231405   0.937   5.434  12.181 -0.7935  0.4719  0.0271
 3305TIP3    H131406   1.027   5.440  12.213 -0.4217  0.2195 -0.9322
 3305TIP3    H231407   0.887   5.403  12.256  0.2151 -1.0067  0.1242
 3306TIP3   OH231408   6.566   1.656  12.251 -0.5194 -0.4806  0.2498
 3306TIP3    H131409   6.475   1.629  12.257  0.2585 -3.6948 -0.6733
 3306TIP3    H231410   6.564   1.739  12.203 -2.8277 -1.5532 -1.6865
 3307TIP3   OH231411   3.526   2.446  16.662  0.1535  0.0271  0.5145
 3307TIP3    H131412   3.569   2.411  16.740 -0.9060 -1.2176  0.5848
 3307TIP3    H231413   3.569   2.530  16.645  2.3362 -0.9688  0.7853
 3308TIP3   OH231414   5.380   5.077   1.839 -0.7060  0.6984  0.1175
 3308TIP3    H131415   5.351   5.157   1.883 -2.1897 -0.5287  1.4919
 3308TIP3    H231416   5.475   5.078   1.849 -0.7169  2.1767  0.2902
 3309TIP3   OH231417   1.007   1.606   1.724 -0.3335  0.1569  0.1839
 3309TIP3    H131418   0.946   1.628   1.794  1.4006  0.0530  1.7877
 3309TIP3    H231419   0.990   1.514   1.704  0.7813 -0.5527  2.2489
 3310TIP3   OH231420   0.750   6.126   2.688 -0.4107  0.3083  0.1408
 3310TIP3    H131421   0.746   6.127   2.593 -0.2376  0.7810  0.1374
 3310TIP3    H231422   0.659   6.114   2.716 -0.9932  3.5223 -0.0459
 3311TIP3   OH231423   0.572   6.683   1.202 -0.2929  0.2919  0.0262
 3311TIP3    H131424   0.535   6.762   1.241 -1.2340 -0.1580  0.0584
 3311TIP3    H231425   0.609   6.634   1.275  1.0534  1.0785 -0.0895
 3312TIP3   OH231426   0.300   5.074  15.452 -0.2431 -0.1542 -0.0553
 3312TIP3    H131427   0.286   5.074  15.357  0.1840  2.8637 -0.2307
 3312TIP3    H231428   0.222   5.033  15.488 -1.1922  0.1510 -1.6682
 3313TIP3   OH231429   1.420   5.302  13.326 -0.3123  0.1144 -0.3362
 3313TIP3    H131430   1.396   5.318  13.235 -0.6064 -0.4248 -0.3576
 3313TIP3    H231431   1.377   5.219  13.348  0.9253 -0.5001 -0.1486
 3314TIP3   OH231432   4.171   6.387   6.376  0.1485 -0.2964 -0.5295
 3314TIP3    H131433   4.256   6.343   6.378 -0.5250 -1.7037 -0.8704
 3314TIP3    H231434   4.163   6.428   6.462  0.8751 -0.7627 -0.2250
 3315TIP3   OH231435   0.342   0.804  16.666 -0.0615  0.0309 -0.1160
 3315TIP3    H131436   0.338   0.871  16.734 -0.6696  0.3619 -0.4683
 3315TIP3    H231437   0.405   0.740  16.699  1.1753  1.1755 -0.1306
 3316TIP3   OH231438   2.352   5.937   5.089 -0.0946  0.5082  0.0640
 3316TIP3    H131439   2.406   6.003   5.045  1.2786 -0.1715  0.6721
 3316TIP3    H231440   2.383   5.853   5.055 -1.1673  0.1094  0.0167
 3317TIP3   OH231441   1.630   6.317  13.792  0.2163  0.0911  0.0874
 3317TIP3    H131442   1.659   6.278  13.709  1.1451  2.3217 -0.7271
 3317TIP3    H231443   1.702   6.374  13.818 -1.5733  2.3613  0.4022
 3318TIP3   OH231444   2.638   1.797  14.772 -0.5894  0.3445  0.6536
 3318TIP3    H131445   2.567   1.797  14.836 -0.9394 -0.7491  0.2874
 3318TIP3    H231446   2.704   1.740  14.810 -0.5893  0.0817  0.2652
 3319TIP3   OH231447   5.623   2.127   1.483 -0.1360  0.0033 -0.1339
 3319TIP3    H131448   5.672   2.045   1.491  0.7249  0.5249  0.1643
 3319TIP3    H231449   5.660   2.168   1.405 -0.2710  0.2898 -0.0463
 3320TIP3   OH231450   1.816   0.265  15.880 -0.2390  0.1490  0.0306
 3320TIP3    H131451   1.726   0.240  15.902  0.5057 -1.2387  1.7064
 3320TIP3    H231452   1.836   0.338  15.938 -1.1789  2.4741 -2.3535
 3321TIP3   OH231453   2.419   2.156  15.988 -0.2960 -0.2851 -0.3688
 3321TIP3    H131454   2.462   2.196  16.064  0.9866 -3.8021  0.9357
 3321TIP3    H231455   2.487   2.154  15.921  0.1341 -1.5659  0.0859
 3322TIP3   OH231456   5.101   2.759   2.755 -0.2473  0.3675  0.2261
 3322TIP3    H131457   5.172   2.726   2.700 -1.0759 -0.9374 -0.1060
 3322TIP3    H231458   5.140   2.832   2.802  1.0896  0.1857 -0.5311
 3323TIP3   OH231459   5.096   1.580   2.436 -0.4757 -0.4889 -0.8659
 3323TIP3    H131460   5.148   1.660   2.446 -0.4835 -0.3577 -1.8509
 3323TIP3    H231461   5.020   1.607   2.385 -0.6505 -1.0540 -0.9097
 3324TIP3   OH231462   0.081   1.151   4.887  0.2069  0.1541 -0.7191
 3324TIP3    H131463   0.040   1.071   4.853  1.7445  0.0756 -2.5432
 3324TIP3    H231464   0.009   1.213   4.897 -0.8901 -1.1675 -0.0682
 3325TIP3   OH231465   3.936   3.272   3.791  0.7640 -0.3609 -0.5258
 3325TIP3    H131466   3.873   3.344   3.786  1.6516  0.6965  1.8603
 3325TIP3    H231467   3.925   3.224   3.709 -0.3179  2.1255 -1.9432
 3326TIP3   OH231468   0.561   3.416   3.805 -0.4868 -0.0863 -0.0422
 3326TIP3    H131469   0.568   3.331   3.849 -0.3392 -0.3477 -0.5626
 3326TIP3    H231470   0.650   3.451   3.806 -0.1264 -0.8418 -1.5832
 3327TIP3   OH231471   0.053   0.502  13.768  0.3848 -0.0753  0.3247
 3327TIP3    H131472  -0.024   0.457  13.802 -0.4944  1.6470  0.7350
 3327TIP3    H231473   0.124   0.479  13.828 -0.6810  1.2593  2.1668
 3328TIP3   OH231474   4.336   0.232   1.094 -0.9169 -0.1509  0.0039
 3328TIP3    H131475   4.278   0.191   1.158  0.8139  0.6775  2.2499
 3328TIP3    H231476   4.350   0.320   1.127  0.4597  0.1368 -1.2374
 3329TIP3   OH231477   6.154   5.284  13.536  0.4395  0.3639  0.1274
 3329TIP3    H131478   6.247   5.302  13.549 -0.1417  2.5755  1.9401
 3329TIP3    H231479   6.136   5.312  13.446  1.2572  1.3187  0.2401
 3330TIP3   OH231480   1.660   1.618  14.020 -0.0027 -0.2853 -0.0622
 3330TIP3    H131481   1.671   1.701  13.973 -0.4102 -0.0276  0.2873
 3330TIP3    H231482   1.593   1.637  14.086 -0.6759 -1.1064 -0.4897
 3331TIP3   OH231483   6.668   4.412   5.942  0.3328  0.4364 -0.4514
 3331TIP3    H131484   6.754   4.372   5.954  0.6132  0.8829 -0.9144
 3331TIP3    H231485   6.622   4.395   6.024  0.4993 -0.6829 -0.5694
 3332TIP3   OH231486   4.781   1.016   5.307 -0.3805 -0.0538  0.2639
 3332TIP3    H131487   4.804   1.100   5.346 -1.5703  1.0870 -1.3659
 3332TIP3    H231488   4.866   0.976   5.285  0.1935  0.7536  0.9691
 3333TIP3   OH231489   6.280   4.601   2.288  0.2181 -0.0957 -0.5619
 3333TIP3    H131490   6.336   4.554   2.226 -0.3241 -1.4635 -0.0579
 3333TIP3    H231491   6.340   4.654   2.339  1.0745 -1.5065 -0.0624
 3334TIP3   OH231492   1.164   2.225   2.586 -0.2939  0.5586  0.7104
 3334TIP3    H131493   1.175   2.130   2.582 -0.3941  0.5931 -1.1533
 3334TIP3    H231494   1.249   2.259   2.557 -0.9621  0.9845 -0.8231
 3335TIP3   OH231495   0.992   0.244  11.316  0.2212 -0.6135  0.1588
 3335TIP3    H131496   0.974   0.254  11.410 -1.1568  1.2945 -0.2420
 3335TIP3    H231497   1.004   0.150  11.304  0.9444 -0.8616  2.3173
 3336TIP3   OH231498   4.041   2.103  14.823  0.4411  0.0975 -0.1509
 3336TIP3    H131499   4.015   2.014  14.801 -2.7372  0.3528  2.0289
 3336TIP3    H231500   4.101   2.093  14.897  1.2141 -0.2246 -0.7989
 3337TIP3   OH231501   6.343   0.356  12.950 -0.4760  0.7266  0.1257
 3337TIP3    H131502   6.364   0.301  12.875  0.4471  1.1217  0.0813
 3337TIP3    H231503   6.309   0.437  12.912 -0.9751  0.5385  0.1663
 3338TIP3   OH231504   3.321   6.632   1.734 -0.3397  0.2410 -0.8047
 3338TIP3    H131505   3.328   6.727   1.733 -0.6768  0.3103  0.7540
 3338TIP3    H231506   3.232   6.614   1.763  0.1174 -0.5246  0.1951
 3339TIP3   OH231507   5.867   6.696   0.781  0.4267  0.1162  0.3657
 3339TIP3    H131508   5.908   6.708   0.867 -1.2584 -0.7685  1.3365
 3339TIP3    H231509   5.792   6.639   0.798 -1.3722  1.8416 -1.2674
 3340TIP3   OH231510   2.307   1.046  14.163  0.4283 -0.4736  0.0697
 3340TIP3    H131511   2.292   1.060  14.257  0.8876 -1.1702  0.2561
 3340TIP3    H231512   2.363   1.118  14.137  0.9273 -0.6980  0.5053
 3341TIP3   OH231513   0.497   3.085  16.911 -1.2194 -0.0504 -0.3752
 3341TIP3    H131514   0.411   3.105  16.948 -0.3918 -1.4387  2.5457
 3341TIP3    H231515   0.483   3.004  16.861 -1.6327 -0.1808 -0.0525
 3342TIP3   OH231516   4.936   1.445  13.193 -0.0450 -0.1725  0.1200
 3342TIP3    H131517   5.005   1.408  13.247  1.6963  2.3645 -0.2061
 3342TIP3    H231518   4.945   1.540  13.203 -1.6862  0.3104 -2.1298
 3343TIP3   OH231519   0.080   3.032   1.360 -0.1890 -1.2019 -0.1390
 3343TIP3    H131520   0.133   2.963   1.320  0.8089 -0.3354 -0.3547
 3343TIP3    H231521  -0.009   2.995   1.364 -0.1264 -1.6825 -2.2425
 3344TIP3   OH231522   6.701   3.501  16.078  0.3033 -0.4715  0.1656
 3344TIP3    H131523   6.776   3.520  16.135 -1.5763  1.1158  2.3076
 3344TIP3    H231524   6.642   3.448  16.132 -0.6020 -0.7677 -1.0704
 3345TIP3   OH231525   5.029   4.261  11.078 -0.0460 -0.8688 -0.3636
 3345TIP3    H131526   4.945   4.307  11.086  0.2434 -0.2791 -0.6584
 3345TIP3    H231527   5.081   4.294  11.151  0.4896 -0.0150 -1.1187
 3346TIP3   OH231528   2.717   2.008  17.066 -0.0495 -0.3492 -0.3055
 3346TIP3    H131529   2.650   2.076  17.052  0.9905  0.5889 -0.8330
 3346TIP3    H231530   2.676   1.927  17.033 -0.9895  0.1789 -0.4636
 3347TIP3   OH231531   3.101   3.503  12.656 -0.5474  0.4282 -0.1805
 3347TIP3    H131532   3.109   3.418  12.612  0.3497  0.6576 -0.4774
 3347TIP3    H231533   3.104   3.481  12.750 -0.4156  0.1241 -0.2543
 3348TIP3   OH231534   3.121   6.795  12.745 -0.2513  0.5566 -0.1091
 3348TIP3    H131535   3.093   6.811  12.835  0.5486  1.7096 -0.0376
 3348TIP3    H231536   3.198   6.738  12.753 -0.3084  0.4841 -0.0765
 3349TIP3   OH231537   6.707   0.834  14.422  0.5497 -0.7490  0.2681
 3349TIP3    H131538   6.785   0.888  14.433  2.8011 -3.7454  0.3470
 3349TIP3    H231539   6.668   0.830  14.509  0.1651  0.8842  0.1993
 3350TIP3   OH231540   6.095   0.464  14.666  0.1291  0.2995  0.3343
 3350TIP3    H131541   6.158   0.531  14.639  0.5149 -0.1725  0.0515
 3350TIP3    H231542   6.010   0.509  14.664  0.3550  0.7152 -0.0721
 3351TIP3   OH231543   3.664   6.822  14.229  0.6823  0.2681  0.1459
 3351TIP3    H131544   3.714   6.786  14.302  0.5581  1.5151  0.8957
 3351TIP3    H231545   3.575   6.790  14.244  0.4594  1.2524  1.1095
 3352TIP3   OH231546   3.387   4.770   2.664  0.5207 -0.2363  0.4319
 3352TIP3    H131547   3.327   4.695   2.659 -0.0699  0.2869 -0.6738
 3352TIP3    H231548   3.344   4.831   2.724  0.0577  0.0225 -0.1517
 3353TIP3   OH231549   4.210   2.191   1.929  0.3153  0.3002 -0.1189
 3353TIP3    H131550   4.275   2.244   1.975  1.8903 -3.4043  2.4346
 3353TIP3    H231551   4.262   2.130   1.877 -1.2647 -0.3427 -0.9972
 3354TIP3   OH231552   2.069   2.876   1.607  0.5344  0.0171 -0.2393
 3354TIP3    H131553   2.044   2.965   1.580  0.8286  0.4225  0.7672
 3354TIP3    H231554   2.097   2.834   1.526 -3.2668 -0.4944 -1.4996
 3355TIP3   OH231555   6.705   6.092  16.402 -0.1998 -0.3560 -0.8395
 3355TIP3    H131556   6.793   6.095  16.364  0.3746  1.3364  0.5214
 3355TIP3    H231557   6.691   5.999  16.421  1.6760 -0.5646 -0.2619
 3356TIP3   OH231558   5.588   6.133  16.851 -0.1542  1.0043 -0.6197
 3356TIP3    H131559   5.660   6.096  16.799 -0.7698  0.4909 -1.1300
 3356TIP3    H231560   5.509   6.103  16.805 -0.7461 -0.0735  1.0199
 3357TIP3   OH231561   5.830   5.281   6.318  0.4833  0.1735 -0.0787
 3357TIP3    H131562   5.831   5.203   6.372  2.4469  0.0925 -0.1764
 3357TIP3    H231563   5.768   5.340   6.362  0.2918 -0.7671  0.9471
 3358TIP3   OH231564   1.386   3.743  11.220 -0.3359 -0.4033 -0.3913
 3358TIP3    H131565   1.423   3.770  11.136 -1.0784 -1.0832 -0.9551
 3358TIP3    H231566   1.313   3.686  11.196 -0.9665 -0.0771  0.7159
 3359TIP3   OH231567   0.431   4.162  13.095  0.3446  0.0683  0.1778
 3359TIP3    H131568   0.434   4.208  13.011  0.0059 -0.6764 -0.2595
 3359TIP3    H231569   0.517   4.120  13.102  0.2154 -0.2412 -0.0268
 3360TIP3   OH231570   1.541   4.344  13.533  0.1199  0.0393 -0.6009
 3360TIP3    H131571   1.567   4.298  13.454  0.3104  0.4307 -0.7710
 3360TIP3    H231572   1.546   4.437  13.510 -1.2388  0.1393 -0.5734
 3361TIP3   OH231573   2.083   1.639   4.827 -0.2750  0.3143  0.3227
 3361TIP3    H131574   2.178   1.643   4.818  0.1555 -4.0869  0.6409
 3361TIP3    H231575   2.053   1.600   4.745 -1.5111 -0.4158  1.0945
 3362TIP3   OH231576   0.332   2.275  16.021  0.5729  0.0739  0.3440
 3362TIP3    H131577   0.354   2.350  15.965  2.0734  0.0533  0.8723
 3362TIP3    H231578   0.278   2.219  15.965 -0.7387  1.6140  0.0033
 3363TIP3   OH231579   5.346   3.214  16.861 -0.5115  0.6396 -0.3358
 3363TIP3    H131580   5.383   3.156  16.927 -0.3439  0.5741 -0.4839
 3363TIP3    H231581   5.402   3.291  16.863  0.3403  0.0839 -1.3376
 3364TIP3   OH231582   0.718   0.550  12.402  0.1896 -0.5122  0.3671
 3364TIP3    H131583   0.772   0.539  12.480  0.5777  0.0232  0.1839
 3364TIP3    H231584   0.722   0.644  12.384  0.3785 -0.6806 -0.4919
 3365TIP3   OH231585   3.128   3.433   0.125  0.3822 -0.6169 -0.6524
 3365TIP3    H131586   3.149   3.464   0.037 -0.8096  0.8548 -0.4675
 3365TIP3    H231587   3.141   3.338   0.121  0.5577 -0.5552 -2.3373
 3366TIP3   OH231588   5.514   3.887  13.985 -0.0424 -0.2656 -0.2121
 3366TIP3    H131589   5.585   3.900  13.923 -0.1317  0.4699 -0.1614
 3366TIP3    H231590   5.444   3.945  13.954  0.6838  1.7907  1.7890
 3367TIP3   OH231591   6.713   3.661   5.850  0.4147 -0.3530 -0.6203
 3367TIP3    H131592   6.624   3.675   5.882  0.4003  1.4543 -1.3048
 3367TIP3    H231593   6.706   3.671   5.755  1.6498  2.1251 -0.5367
 3368TIP3   OH231594   1.946   1.660  13.359 -0.1997  0.4347 -0.2199
 3368TIP3    H131595   2.039   1.651  13.337  0.1804  0.9916  1.0499
 3368TIP3    H231596   1.912   1.571  13.360  1.2941 -0.2570  3.1592
 3369TIP3   OH231597   5.062   2.506  15.398 -0.1252 -0.1946 -0.1925
 3369TIP3    H131598   5.072   2.461  15.481  0.9326 -0.1622 -0.2901
 3369TIP3    H231599   4.970   2.495  15.375 -0.7658  0.9473  1.6368
 3370TIP3   OH231600   4.710   6.095  13.789 -0.2354 -0.2740 -0.9655
 3370TIP3    H131601   4.685   6.187  13.801  1.0497 -0.0373  0.0976
 3370TIP3    H231602   4.768   6.096  13.713  1.6425  0.1941  0.4141
 3371TIP3   OH231603   1.552   1.624   5.443  0.1656  0.2801 -0.0840
 3371TIP3    H131604   1.491   1.626   5.369  0.9094  0.4028 -0.7082
 3371TIP3    H231605   1.602   1.543   5.432  0.1816  0.2237  0.3672
 3372TIP3   OH231606   5.321   6.836   4.167 -0.3731 -0.7282  0.2870
 3372TIP3    H131607   5.292   6.904   4.228  0.7389  0.6028 -0.6213
 3372TIP3    H231608   5.393   6.792   4.211  0.6778  0.4808 -0.1951
 3373TIP3   OH231609   2.266   6.355  12.001 -0.1404  0.9542 -0.2953
 3373TIP3    H131610   2.290   6.263  12.012 -2.3225  0.4318  0.6006
 3373TIP3    H231611   2.252   6.366  11.907  1.9295  0.9112 -0.6558
 3374TIP3   OH231612   6.051   1.954   0.882 -0.1095 -0.2913 -0.0235
 3374TIP3    H131613   6.020   2.008   0.810 -2.4649  0.2500  1.2855
 3374TIP3    H231614   6.097   2.015   0.940 -2.1513  0.2686  1.1002
 3375TIP3   OH231615   2.535   0.277  12.659 -0.3330  0.4664  0.4263
 3375TIP3    H131616   2.460   0.330  12.632 -0.0801  0.8525  0.4684
 3375TIP3    H231617   2.611   0.331  12.637 -0.0164 -0.3573 -0.5981
 3376TIP3   OH231618   5.691   4.774   5.293 -0.7901 -0.2101  0.4530
 3376TIP3    H131619   5.675   4.785   5.387 -1.3705  0.0184  0.3330
 3376TIP3    H231620   5.651   4.852   5.253 -0.6215 -0.3489  0.0083
 3377TIP3   OH231621   0.120   5.283  12.691  0.1029  0.0697  0.2155
 3377TIP3    H131622   0.122   5.190  12.668 -1.2815  0.3290 -1.1823
 3377TIP3    H231623   0.201   5.318  12.654  1.5841 -0.8409  2.3595
 3378TIP3   OH231624   1.582   6.074   3.271 -0.2472  0.1656  0.1567
 3378TIP3    H131625   1.520   6.126   3.322 -1.6926 -0.7718 -0.5726
 3378TIP3    H231626   1.601   5.998   3.326  0.8645  0.7913  0.6817
 3379TIP3   OH231627   1.970   2.878  13.685 -0.5628  0.1533 -0.4001
 3379TIP3    H131628   2.031   2.824  13.636  2.4802  2.7078  0.2430
 3379TIP3    H231629   1.935   2.820  13.752  1.7493 -1.3187 -0.3463
 3380TIP3   OH231630   4.390   0.485  14.626 -0.0688 -0.1257 -0.0587
 3380TIP3    H131631   4.446   0.543  14.678  0.2924 -1.3799  0.9862
 3380TIP3    H231632   4.319   0.542  14.596  1.1917  1.2599 -0.5587
 3381TIP3   OH231633   4.020   0.223  14.032  0.4924 -0.1414  0.6570
 3381TIP3    H131634   4.069   0.275  13.968  2.3402 -0.7324  1.5237
 3381TIP3    H231635   3.949   0.182  13.981  1.4150  0.0602 -0.8350
 3382TIP3   OH231636   0.865   0.823  14.547 -0.3005 -0.6451  0.1187
 3382TIP3    H131637   0.887   0.781  14.464 -0.5505 -1.4731  0.4624
 3382TIP3    H231638   0.947   0.824  14.597 -0.2064 -0.3667 -0.0380
 3383TIP3   OH231639   2.990   4.489  11.762 -0.2714  0.3679  0.0509
 3383TIP3    H131640   2.944   4.566  11.793  1.0980  2.0707 -1.8436
 3383TIP3    H231641   2.930   4.416  11.778 -1.7961  1.8650  1.4880
 3384TIP3   OH231642   2.768   0.470  15.357 -0.4725  0.3823  0.5011
 3384TIP3    H131643   2.692   0.525  15.341 -0.4709  0.2525  0.0389
 3384TIP3    H231644   2.736   0.400  15.413 -0.7781  0.1296  0.0187
 3385TIP3   OH231645   5.493   2.687  12.534 -0.0475  0.3109  0.1449
 3385TIP3    H131646   5.465   2.779  12.538 -0.0157  0.3478 -0.4974
 3385TIP3    H231647   5.538   2.679  12.450  0.5085 -0.1374  0.4757
 3386TIP3   OH231648   2.724   1.604   4.653 -0.0907  0.1077 -0.7088
 3386TIP3    H131649   2.655   1.620   4.588  1.4543 -1.2469 -2.8044
 3386TIP3    H231650   2.729   1.685   4.703 -2.2795  0.7163 -1.3584
 3387TIP3   OH231651   4.585   6.714  13.860  0.6186  0.0982  0.0845
 3387TIP3    H131652   4.643   6.663  13.803 -0.6031  0.7254 -1.7976
 3387TIP3    H231653   4.594   6.804  13.830  0.6685  0.6078  1.5546
 3388TIP3   OH231654   5.504   4.783   1.130 -0.1936  0.1392  0.2132
 3388TIP3    H131655   5.539   4.793   1.041 -0.0860 -0.0795  0.2319
 3388TIP3    H231656   5.427   4.840   1.132 -1.4098 -1.4374 -0.6577
 3389TIP3   OH231657   2.374   0.668  12.617  0.2670 -0.5928 -0.5426
 3389TIP3    H131658   2.346   0.577  12.623 -0.0902 -0.3825  2.7944
 3389TIP3    H231659   2.292   0.718  12.619  0.5318 -0.1623 -0.4203
 3390TIP3   OH231660   2.154   4.673  15.304  0.2265  0.3114  0.5222
 3390TIP3    H131661   2.109   4.594  15.331 -0.7982  0.1432 -1.5347
 3390TIP3    H231662   2.088   4.743  15.314  0.1489  0.3990 -0.5281
 3391TIP3   OH231663   3.164   5.196   1.364 -0.0989 -0.1520  0.1381
 3391TIP3    H131664   3.145   5.122   1.422  0.6401 -0.8882 -0.5444
 3391TIP3    H231665   3.208   5.259   1.421 -0.3890 -0.3920  0.6401
 3392TIP3   OH231666   3.278   1.492   2.470 -0.5138 -0.3314  0.0676
 3392TIP3    H131667   3.356   1.460   2.515 -0.6884 -0.7249  0.0901
 3392TIP3    H231668   3.210   1.491   2.538 -0.6878 -0.5742 -0.1078
 3393TIP3   OH231669   2.985   4.268  15.530  0.1073 -0.3733  0.0396
 3393TIP3    H131670   2.978   4.323  15.451 -0.3332 -0.7360 -0.1825
 3393TIP3    H231671   3.077   4.243  15.534 -0.2288 -2.2168 -1.6668
 3394TIP3   OH231672   2.850   4.153   6.463  0.4162  0.4361  0.3220
 3394TIP3    H131673   2.805   4.219   6.516  1.3921  0.4775  1.1130
 3394TIP3    H231674   2.920   4.200   6.420 -1.1802  0.7145 -2.1705
 3395TIP3   OH231675   3.683   4.757   2.741  0.0749 -0.1570  0.4467
 3395TIP3    H131676   3.703   4.684   2.799  0.0052  0.2233  0.9517
 3395TIP3    H231677   3.590   4.747   2.721  0.3420 -0.9153 -0.4911
 3396TIP3   OH231678   2.709   4.596  15.838 -0.2408  0.0739 -0.0274
 3396TIP3    H131679   2.635   4.612  15.779  0.9293  1.6263 -1.1615
 3396TIP3    H231680   2.718   4.678  15.887 -1.0430 -1.0978  2.2302
 3397TIP3   OH231681   0.515   5.158  13.206 -0.4099 -0.4560 -0.5209
 3397TIP3    H131682   0.571   5.121  13.137 -0.6623  1.4110 -1.8135
 3397TIP3    H231683   0.426   5.137  13.177 -0.4777 -1.4407  0.3443
 3398TIP3   OH231684   2.648   1.187   1.490  0.4791  0.2725  0.0045
 3398TIP3    H131685   2.663   1.262   1.548  0.3441  0.3737 -0.0926
 3398TIP3    H231686   2.616   1.118   1.549  0.3493  0.3732  0.0537
 3399TIP3   OH231687   5.873   3.804  14.259 -0.2910  0.5527  0.2103
 3399TIP3    H131688   5.855   3.829  14.169 -0.8268  1.1171  0.4652
 3399TIP3    H231689   5.895   3.711  14.255 -3.4024 -0.2806 -0.1499
 3400TIP3   OH231690   2.155   0.091  13.468  0.2377  0.0229  0.1143
 3400TIP3    H131691   2.194   0.018  13.421  1.4924  0.0267  1.0889
 3400TIP3    H231692   2.061   0.072  13.469  0.3520 -0.7066 -1.0725
 3401TIP3   OH231693   6.511   5.304   3.385  0.2787  0.3761 -0.1771
 3401TIP3    H131694   6.555   5.295   3.470 -0.3538 -1.2176  0.0224
 3401TIP3    H231695   6.574   5.272   3.322  0.7157  1.4783 -0.3221
 3402TIP3   OH231696   4.848   1.416  11.596 -0.1795  0.5268  0.2847
 3402TIP3    H131697   4.839   1.482  11.665 -0.0333 -1.0485  1.8776
 3402TIP3    H231698   4.758   1.397  11.570 -0.3784 -0.3348  1.5241
 3403TIP3   OH231699   3.494   5.616  17.121 -0.1595 -0.6066  0.7729
 3403TIP3    H131700   3.502   5.607  17.216  0.9193 -2.6652  0.5529
 3403TIP3    H231701   3.418   5.563  17.098 -0.5389  0.0454  0.4799
 3404TIP3   OH231702   6.779   2.522  13.582 -0.1573  0.0101 -0.0217
 3404TIP3    H131703   6.868   2.505  13.612 -0.3963 -0.9597  0.1642
 3404TIP3    H231704   6.740   2.576  13.651 -0.1622 -0.7696  0.5923
 3405TIP3   OH231705   3.829   4.366  15.770 -0.6565 -0.1091  0.0232
 3405TIP3    H131706   3.904   4.425  15.764 -1.1843  0.4287 -1.8226
 3405TIP3    H231707   3.838   4.325  15.856  0.4903  1.6127  0.7725
 3406TIP3   OH231708   3.821   4.874  13.416 -0.7396  0.6890 -0.6770
 3406TIP3    H131709   3.794   4.860  13.507  0.6078  0.6025 -0.2713
 3406TIP3    H231710   3.913   4.900  13.422 -0.8810  1.5810 -1.9663
 3407TIP3   OH231711   1.348   1.605  12.307 -0.0229  1.4354 -0.5445
 3407TIP3    H131712   1.354   1.566  12.394 -0.4099  1.0362 -0.6947
 3407TIP3    H231713   1.355   1.531  12.247  1.6778  1.8495 -0.9060
 3408TIP3   OH231714   5.267   2.218  13.420  0.1424  0.9029 -0.0401
 3408TIP3    H131715   5.312   2.262  13.348  1.3573  0.1045  0.2085
 3408TIP3    H231716   5.331   2.214  13.491  0.4365 -2.0062 -0.3473
 3409TIP3   OH231717   3.462   6.352   2.840 -0.4089  0.5718  0.0476
 3409TIP3    H131718   3.518   6.412   2.790 -0.6181 -0.7326 -1.8375
 3409TIP3    H231719   3.517   6.323   2.912  0.0808  2.1222  0.3294
 3410TIP3   OH231720   0.709   1.149  16.438  0.1485  0.1564 -0.3414
 3410TIP3    H131721   0.627   1.191  16.410 -0.9869 -1.9039 -0.3401
 3410TIP3    H231722   0.715   1.168  16.531  0.3731  1.3842 -0.5872
 3411TIP3   OH231723   5.330   4.695  14.673 -0.5449  0.0154  0.1630
 3411TIP3    H131724   5.332   4.782  14.632  0.9735  0.4339  1.0135
 3411TIP3    H231725   5.364   4.710  14.761  0.7805 -1.5861 -0.0179
 3412TIP3   OH231726   1.157   1.276   3.568 -0.1026  0.1158 -0.1962
 3412TIP3    H131727   1.246   1.291   3.598 -0.3702  0.9125  0.2330
 3412TIP3    H231728   1.102   1.293   3.645 -0.7497  1.4594 -0.9119
 3413TIP3   OH231729   4.017   6.164   5.667  0.6076 -0.7827 -0.2826
 3413TIP3    H131730   4.060   6.200   5.590 -0.3612 -0.3493 -0.6339
 3413TIP3    H231731   3.953   6.102   5.633 -1.2906  0.9260  0.0049
 3414TIP3   OH231732   4.413   6.243   1.861 -0.3537  0.3871 -0.0760
 3414TIP3    H131733   4.501   6.275   1.883 -0.9420  0.8483  1.7919
 3414TIP3    H231734   4.420   6.148   1.866 -0.4417  0.4449  2.3447
 3415TIP3   OH231735   4.636   1.464   4.357  0.3930 -0.2269  0.6217
 3415TIP3    H131736   4.688   1.407   4.300  1.5797  0.2546  1.1908
 3415TIP3    H231737   4.559   1.487   4.304 -0.8649 -3.4052  0.8176
 3416TIP3   OH231738   3.218   1.187  12.439  0.1078  0.0119 -0.1577
 3416TIP3    H131739   3.171   1.198  12.357 -0.2929 -1.9391 -0.2348
 3416TIP3    H231740   3.200   1.267  12.488 -3.1964 -0.5191 -0.2574
 3417TIP3   OH231741   0.571   0.993  12.012 -0.4021  0.2519  0.6516
 3417TIP3    H131742   0.523   0.975  12.093 -0.8508  1.7486  0.7535
 3417TIP3    H231743   0.654   1.031  12.041  1.1787 -2.7451  0.4948
 3418TIP3   OH231744   6.715   0.688  14.190 -0.2136 -0.2435 -0.1180
 3418TIP3    H131745   6.732   0.716  14.279 -0.3728 -1.1591  0.2121
 3418TIP3    H231746   6.624   0.656  14.191  0.3601 -2.0007 -0.1254
 3419TIP3   OH231747   4.165   1.872  16.427 -0.2291  0.1983  0.9695
 3419TIP3    H131748   4.153   1.873  16.522  0.5366 -0.8803  1.1030
 3419TIP3    H231749   4.171   1.964  16.402 -3.6163  0.6785  1.5071
 3420TIP3   OH231750   0.780   0.133   0.760  0.2353  0.2745 -0.0278
 3420TIP3    H131751   0.714   0.073   0.727  0.1839  0.1082  0.3642
 3420TIP3    H231752   0.863   0.090   0.741  0.2120  0.2448 -0.0626
 3421TIP3   OH231753   0.169   2.516  16.722 -0.0979  0.6390 -0.7104
 3421TIP3    H131754   0.147   2.432  16.763  1.4124 -0.2988 -1.7144
 3421TIP3    H231755   0.187   2.574  16.796  0.8806 -0.5265  0.0109
 3422TIP3   OH231756   3.821   1.337   0.368 -0.0971 -0.3266  0.4123
 3422TIP3    H131757   3.854   1.259   0.324  1.2936  1.9786 -3.0118
 3422TIP3    H231758   3.898   1.374   0.412 -0.4027 -0.0734  0.7407
 3423TIP3   OH231759   3.951   5.943   0.741 -0.4936 -0.3604 -0.1982
 3423TIP3    H131760   3.902   5.927   0.660  1.6382  1.5622 -2.0157
 3423TIP3    H231761   4.041   5.917   0.720  0.0978  0.0978  1.5912
 3424TIP3   OH231762   3.004   1.818  13.548 -0.0756  0.1297 -0.4498
 3424TIP3    H131763   2.995   1.909  13.578  1.7214  0.7110 -1.4968
 3424TIP3    H231764   2.977   1.821  13.456 -2.2282 -0.9262  0.0778
 3425TIP3   OH231765   2.863   0.638  11.205  0.3296 -0.6372 -0.4671
 3425TIP3    H131766   2.787   0.583  11.224  0.2124 -0.6428 -0.9435
 3425TIP3    H231767   2.933   0.576  11.183 -1.0676 -0.7728 -6.3201
 3426TIP3   OH231768   0.679   0.047   5.593  0.3280  0.2942  0.4745
 3426TIP3    H131769   0.677  -0.012   5.517  0.8821 -0.2780  0.8912
 3426TIP3    H231770   0.660   0.133   5.557 -0.6396 -0.1538 -0.1351
 3427TIP3   OH231771   6.397   5.414  16.284  0.5230  0.2705 -0.2433
 3427TIP3    H131772   6.451   5.406  16.363 -0.8777 -1.3548  0.6214
 3427TIP3    H231773   6.307   5.421  16.317  0.0665  1.7703 -1.6684
 3428TIP3   OH231774   1.703   6.407  10.486  0.3966 -0.7525  0.0271
 3428TIP3    H131775   1.641   6.429  10.416 -0.6462  0.9505  1.3899
 3428TIP3    H231776   1.664   6.331  10.529  0.5220 -1.1768 -0.5908
 3429TIP3   OH231777   0.174   0.540  10.922  0.2349 -0.1024  0.4673
 3429TIP3    H131778   0.256   0.588  10.931  0.0303  0.4257 -0.3705
 3429TIP3    H231779   0.132   0.579  10.846 -1.5362  0.7080  1.7800
 3430TIP3   OH231780   6.622   0.453   2.525  0.3069  0.4265 -0.0452
 3430TIP3    H131781   6.651   0.363   2.508  1.8133  0.9835 -0.5984
 3430TIP3    H231782   6.578   0.448   2.610 -1.4886 -1.1912 -0.9917
 3431TIP3   OH231783   3.672   1.011  14.984  0.0146 -0.5757 -0.0676
 3431TIP3    H131784   3.584   0.985  15.011  0.1720 -1.8073 -0.6776
 3431TIP3    H231785   3.726   0.999  15.062 -0.0895 -1.2144 -0.0919
 3432TIP3   OH231786   2.591   3.762  12.349  0.4992  0.0968 -0.0973
 3432TIP3    H131787   2.498   3.773  12.331  0.7328  0.6410 -1.0852
 3432TIP3    H231788   2.631   3.843  12.317  1.2477  0.1104  0.8369
 3433TIP3   OH231789   0.855   5.346   1.377  0.0675 -0.2361 -0.0846
 3433TIP3    H131790   0.935   5.368   1.425  0.0228  1.3900 -0.6905
 3433TIP3    H231791   0.794   5.417   1.399 -0.2882  0.0043 -1.7243
 3434TIP3   OH231792   3.275   1.024  11.615 -0.3516  0.1162 -0.3980
 3434TIP3    H131793   3.194   0.983  11.646  1.4338 -1.8552  2.0901
 3434TIP3    H231794   3.280   0.999  11.523 -2.0163 -0.6329 -0.3306
 3435TIP3   OH231795   2.398   4.256   1.320  0.0591  0.0425 -0.1681
 3435TIP3    H131796   2.431   4.179   1.367  3.8400  1.5086 -0.1280
 3435TIP3    H231797   2.440   4.251   1.234 -0.5060  1.4934 -0.5455
 3436TIP3   OH231798   2.115   5.829   5.509  0.3973 -0.0033  0.1986
 3436TIP3    H131799   2.209   5.816   5.524  0.7469  3.1850  1.7490
 3436TIP3    H231800   2.110   5.912   5.462 -1.6646  0.5992  1.3601
 3437TIP3   OH231801   6.118   5.131   4.434  0.0318 -0.4937 -0.0734
 3437TIP3    H131802   6.038   5.175   4.463  1.4547  2.2077  0.0280
 3437TIP3    H231803   6.170   5.121   4.513 -0.3565 -2.7481 -0.0438
 3438TIP3   OH231804   2.308   1.457   2.768  0.0490  0.5189  0.2628
 3438TIP3    H131805   2.332   1.526   2.831 -0.6045 -0.5146  1.6919
 3438TIP3    H231806   2.215   1.470   2.752  0.4403  1.4903 -1.4476
 3439TIP3   OH231807   4.716   2.238  14.142  0.3473  0.4160  0.3515
 3439TIP3    H131808   4.697   2.145  14.132 -0.3031  0.5194  0.5908
 3439TIP3    H231809   4.642   2.282  14.102  0.0270  0.8332  1.3795
 3440TIP3   OH231810   1.014   1.858  16.772 -0.6177 -0.5567 -0.2995
 3440TIP3    H131811   1.009   1.768  16.805  0.4564 -0.6372 -0.3010
 3440TIP3    H231812   0.925   1.892  16.781 -1.4984 -2.2040 -1.9637
 3441TIP3   OH231813   4.780   5.749   4.353  0.5749  0.3215  0.7549
 3441TIP3    H131814   4.795   5.658   4.326 -1.8488  0.0510  0.1039
 3441TIP3    H231815   4.803   5.800   4.276 -2.4439 -0.1647 -0.6185
 3442TIP3   OH231816   3.864   3.951  12.481  0.0618  0.6577 -0.0342
 3442TIP3    H131817   3.856   3.904  12.564 -0.4181 -0.6806 -0.8208
 3442TIP3    H231818   3.773   3.971  12.456  0.1568  0.3928 -0.6044
 3443TIP3   OH231819   1.548   2.842  12.697 -0.3744  0.0023  0.2653
 3443TIP3    H131820   1.465   2.808  12.732 -0.5537  0.0362 -0.1190
 3443TIP3    H231821   1.527   2.930  12.668 -0.5261 -0.4356 -1.0001
 3444TIP3   OH231822   5.226   0.033  11.732  0.3105 -0.3977 -0.2733
 3444TIP3    H131823   5.252   0.122  11.707  1.3136 -0.7186 -0.4031
 3444TIP3    H231824   5.137   0.043  11.767  1.0847  0.9402  1.4603
 3445TIP3   OH231825   1.293   1.842   1.191  0.3542  0.3748 -0.0313
 3445TIP3    H131826   1.208   1.885   1.181  0.2514  0.2607  0.3155
 3445TIP3    H231827   1.276   1.750   1.170  0.6519  0.5569 -1.1298
 3446TIP3   OH231828   3.916   3.064   4.496  0.5944 -0.3317 -0.0827
 3446TIP3    H131829   3.892   3.011   4.419  1.0672 -2.4027  1.1068
 3446TIP3    H231830   3.880   3.015   4.570  3.1034 -0.2753  1.2669
 3447TIP3   OH231831   2.258   2.451  15.965 -0.0951  0.0011  0.0597
 3447TIP3    H131832   2.296   2.386  15.906  0.5681 -1.2055  1.7556
 3447TIP3    H231833   2.308   2.531  15.948 -0.9181  0.1454 -2.0432
 3448TIP3   OH231834   5.730   2.823   5.791  0.0478 -0.2839  0.5680
 3448TIP3    H131835   5.797   2.843   5.857  0.0966  2.1502 -0.1216
 3448TIP3    H231836   5.708   2.731   5.806  3.8011 -1.3426  0.5655
 3449TIP3   OH231837   2.812   3.095   2.860 -0.3954  0.2853 -0.6000
 3449TIP3    H131838   2.875   3.090   2.931  0.5027 -0.0047 -1.3860
 3449TIP3    H231839   2.784   3.004   2.846 -0.9433  0.4005 -0.3109
 3450TIP3   OH231840   5.345   3.559   1.944 -0.3073  0.6815  1.0152
 3450TIP3    H131841   5.404   3.489   1.915 -0.1648  1.0796  0.3222
 3450TIP3    H231842   5.266   3.547   1.892  0.9843  3.1404 -1.8253
 3451TIP3   OH231843   0.859   4.934   1.597 -0.3183 -0.0857  0.1415
 3451TIP3    H131844   0.930   4.957   1.657  1.6437 -1.0976 -1.6449
 3451TIP3    H231845   0.843   4.841   1.613 -1.8507  0.3126  1.0788
 3452TIP3   OH231846   2.427   3.888   4.759  0.3737  0.0680 -0.1329
 3452TIP3    H131847   2.433   3.793   4.762  0.1104  0.0588  2.4070
 3452TIP3    H231848   2.412   3.914   4.850  1.0971  2.5824 -0.6486
 3453TIP3   OH231849   1.595   0.947  14.546 -0.5058 -0.3414 -0.1269
 3453TIP3    H131850   1.558   0.950  14.458 -1.3260 -0.1215  0.2069
 3453TIP3    H231851   1.523   0.913  14.600  0.2765 -1.3588  0.3161
 3454TIP3   OH231852   4.540   0.603   3.794 -0.1901  0.1039 -0.3277
 3454TIP3    H131853   4.556   0.585   3.887 -0.0678  1.4211 -0.0733
 3454TIP3    H231854   4.478   0.676   3.794  1.0171  1.1786 -1.2617
 3455TIP3   OH231855   6.017   1.296  11.819 -0.6723 -0.3831 -0.4193
 3455TIP3    H131856   5.939   1.309  11.765 -1.1598 -0.6222  0.2213
 3455TIP3    H231857   6.072   1.236  11.768 -1.2110 -0.7569 -0.5606
 3456TIP3   OH231858   6.597   1.577  16.755  0.0476 -0.2009  0.4046
 3456TIP3    H131859   6.669   1.624  16.798  0.1072 -1.3120  1.6043
 3456TIP3    H231860   6.541   1.646  16.720  0.9565  0.7236  0.6985
 3457TIP3   OH231861   0.445   2.250   4.600 -0.1900 -0.3299  0.0904
 3457TIP3    H131862   0.443   2.332   4.550  0.6827 -1.0241 -1.1486
 3457TIP3    H231863   0.532   2.249   4.641  0.0950 -0.9762 -0.5173
 3458TIP3   OH231864   0.608   6.314   3.021  0.0548  0.1409  0.1715
 3458TIP3    H131865   0.691   6.294   3.066  0.0733 -0.4366 -0.1139
 3458TIP3    H231866   0.614   6.408   3.001  0.4690  0.1912  0.5015
 3459TIP3   OH231867   6.224   2.693  14.936 -0.0074 -0.4116 -0.7883
 3459TIP3    H131868   6.316   2.699  14.911  0.2099 -1.0553 -0.1520
 3459TIP3    H231869   6.196   2.783  14.948  1.0993 -0.2856  1.0457
 3460TIP3   OH231870   0.515   6.099  15.178 -0.1472 -0.0374 -0.3484
 3460TIP3    H131871   0.480   6.032  15.236 -2.0412  0.0086 -1.3689
 3460TIP3    H231872   0.592   6.059  15.139 -0.7171 -1.2701 -0.2311
 3461TIP3   OH231873   2.491   2.492  12.084 -0.4044 -0.0222  0.5235
 3461TIP3    H131874   2.521   2.571  12.039 -0.1981  0.5965  1.7046
 3461TIP3    H231875   2.556   2.425  12.062 -0.7088  0.0587 -0.6741
 3462TIP3   OH231876   0.361   6.587   5.432 -0.3247 -0.3794  0.2305
 3462TIP3    H131877   0.421   6.512   5.430 -0.0146 -0.1234 -0.1548
 3462TIP3    H231878   0.336   6.600   5.340  2.6654  2.4026 -0.3636
 3463TIP3   OH231879   6.307   0.909   6.213  0.0423  0.0205 -0.2775
 3463TIP3    H131880   6.242   0.885   6.147  0.7508  1.0163 -1.3805
 3463TIP3    H231881   6.388   0.867   6.183  0.4954  0.9265 -0.3791
 3464TIP3   OH231882   1.447   5.840   5.383 -0.1209 -0.1929  0.3406
 3464TIP3    H131883   1.528   5.821   5.430  1.2043  0.7199 -1.4812
 3464TIP3    H231884   1.453   5.932   5.359 -3.2971  0.9475  3.0516
 3465TIP3   OH231885   3.379   6.578   0.301  0.0286  0.7985  0.0239
 3465TIP3    H131886   3.413   6.658   0.261  0.3647  0.8923  0.4920
 3465TIP3    H231887   3.301   6.607   0.348  0.6183  1.0173  0.8967
 3466TIP3   OH231888   2.124   5.006  12.790  0.2700  0.3543 -1.1839
 3466TIP3    H131889   2.125   4.911  12.798 -0.2536  0.3474 -1.1504
 3466TIP3    H231890   2.203   5.028  12.741 -0.5410 -0.2375 -2.7963
 3467TIP3   OH231891   5.294   5.616   3.873 -0.0371 -0.4013 -0.8033
 3467TIP3    H131892   5.300   5.712   3.873 -0.9044 -0.2817  1.3407
 3467TIP3    H231893   5.321   5.590   3.785  1.4059  1.7220 -1.0596
 3468TIP3   OH231894   5.920   2.865   1.578 -0.0357  0.4005 -0.4269
 3468TIP3    H131895   5.999   2.903   1.540 -0.9209  0.0314 -2.8457
 3468TIP3    H231896   5.873   2.941   1.614  0.6453  0.8445 -0.4461
 3469TIP3   OH231897   2.475   0.945   5.622  0.1572  0.0421  0.5580
 3469TIP3    H131898   2.555   0.992   5.601 -0.1095 -0.1491 -1.0376
 3469TIP3    H231899   2.500   0.853   5.623  0.0074 -0.0064  0.2222
 3470TIP3   OH231900   3.291   4.492  13.355  0.1976  0.5126 -0.2303
 3470TIP3    H131901   3.345   4.556  13.401  1.4504 -1.0285  0.4898
 3470TIP3    H231902   3.272   4.425  13.420  0.6462 -0.8980 -1.5014
 3471TIP3   OH231903   3.600   5.376   2.290  0.1324 -0.4847  0.2712
 3471TIP3    H131904   3.569   5.292   2.257 -1.7906  0.7477 -1.3406
 3471TIP3    H231905   3.524   5.415   2.333  0.4249  1.1277 -0.5762
 3472TIP3   OH231906   3.123   4.590   6.406  0.1699  0.2486  0.0361
 3472TIP3    H131907   3.150   4.680   6.423  3.0618 -0.7032  1.2999
 3472TIP3    H231908   3.098   4.588   6.314  0.8250  2.1914 -0.2169
 3473TIP3   OH231909   3.914   0.045  11.575 -0.5123  0.3051 -0.0176
 3473TIP3    H131910   3.870   0.109  11.630 -1.0111 -1.2597  1.4978
 3473TIP3    H231911   3.978   0.004  11.633  3.1065  2.4616 -2.0977
 3474TIP3   OH231912   1.763   6.470   0.170  0.1884  0.0341  0.0308
 3474TIP3    H131913   1.767   6.382   0.132  0.7856 -0.2553  0.7458
 3474TIP3    H231914   1.699   6.463   0.241 -0.6928  0.4990 -0.6907
 3475TIP3   OH231915   0.280   4.235  14.788 -0.0176  0.0032 -0.5075
 3475TIP3    H131916   0.238   4.256  14.705 -0.1591  1.8140 -0.0077
 3475TIP3    H231917   0.287   4.139  14.788 -1.6635 -0.1469 -1.7953
 3476TIP3   OH231918   6.661   0.142  13.677  0.0131  0.3517 -0.9681
 3476TIP3    H131919   6.637   0.137  13.584  0.0849 -2.3567 -0.9099
 3476TIP3    H231920   6.606   0.076  13.719  1.9748 -0.4839  0.4296
 3477TIP3   OH231921   5.725   1.271  14.733  0.0614  0.2874 -0.9614
 3477TIP3    H131922   5.779   1.325  14.676 -0.4123 -1.0547 -2.7403
 3477TIP3    H231923   5.683   1.208  14.675 -1.4821 -0.3019  0.6954
 3478TIP3   OH231924   3.716   4.012   4.472 -0.3870  0.4106 -0.1306
 3478TIP3    H131925   3.773   4.007   4.395  0.7817  0.3939  0.7126
 3478TIP3    H231926   3.773   3.992   4.546 -1.7059 -0.6243  0.6667
 3479TIP3   OH231927   1.459   1.927  13.423  0.3431 -0.7792  0.0333
 3479TIP3    H131928   1.526   1.992  13.402 -0.1931  0.1064  0.9642
 3479TIP3    H231929   1.500   1.872  13.490  0.4530 -0.7919 -0.0433
 3480TIP3   OH231930   4.828   6.234   2.120  0.0021 -0.3665 -0.3515
 3480TIP3    H131931   4.844   6.301   2.054 -0.0512 -0.6306 -0.6352
 3480TIP3    H231932   4.872   6.156   2.087  2.5266  0.2237  1.3189
 3481TIP3   OH231933   5.573   1.952   2.720  0.3945  0.0123 -0.0394
 3481TIP3    H131934   5.577   2.047   2.721 -0.7678  0.0662  0.4292
 3481TIP3    H231935   5.495   1.930   2.771  1.4001 -1.2392  1.0376
 3482TIP3   OH231936   5.697   2.687  15.665 -0.1738  0.2631  0.3399
 3482TIP3    H131937   5.641   2.664  15.591  1.3584  1.1877 -1.1743
 3482TIP3    H231938   5.677   2.620  15.731  0.1144 -2.1016 -1.7923
 3483TIP3   OH231939   2.884   3.379   2.842  0.0657 -0.0001  0.0588
 3483TIP3    H131940   2.892   3.288   2.816  1.5255 -0.3738  1.6674
 3483TIP3    H231941   2.957   3.394   2.902  1.0829  2.7995 -1.6688
 3484TIP3   OH231942   0.127   1.047   0.877 -0.0787  0.3202 -0.4913
 3484TIP3    H131943   0.209   0.998   0.882  0.0758  0.6601  3.0963
 3484TIP3    H231944   0.153   1.131   0.840  1.6235  0.9548  1.8571
 3485TIP3   OH231945   5.570   4.457  15.275 -0.2379  0.3930  0.4540
 3485TIP3    H131946   5.492   4.466  15.331 -0.2389  1.6932  0.2948
 3485TIP3    H231947   5.597   4.548  15.259  1.6074 -0.0411  0.9134
 3486TIP3   OH231948   2.307   0.059   3.994  0.5702  0.2671 -0.3713
 3486TIP3    H131949   2.366   0.029   3.925 -0.1155  1.8160 -1.7043
 3486TIP3    H231950   2.265  -0.020   4.026  2.3212 -0.7080 -0.3513
 3487TIP3   OH231951   3.277   6.379  14.651  0.3300  0.2856 -0.2860
 3487TIP3    H131952   3.282   6.387  14.556  1.0533 -1.3130 -0.4192
 3487TIP3    H231953   3.343   6.314  14.673  0.0819  0.5346  1.3036
 3488TIP3   OH231954   1.890   6.451  13.841 -0.5036 -0.3848 -0.0663
 3488TIP3    H131955   1.984   6.461  13.850 -0.4717  1.4625 -1.7443
 3488TIP3    H231956   1.876   6.430  13.749 -1.7329 -0.3876  0.0936
 3489TIP3   OH231957   4.216   4.040   2.206  0.5287 -0.0606 -0.3099
 3489TIP3    H131958   4.217   3.946   2.224  1.2654  0.1400  0.7833
 3489TIP3    H231959   4.139   4.053   2.150 -1.2860 -0.9038  1.8159
 3490TIP3   OH231960   5.849   0.730   4.504  0.0196  0.4767  0.4284
 3490TIP3    H131961   5.913   0.659   4.500  1.2626  1.5972 -0.9181
 3490TIP3    H231962   5.867   0.774   4.587  1.0682  0.7977  0.0555
 3491TIP3   OH231963   4.184   4.389  14.811  0.2105  0.1650 -0.1921
 3491TIP3    H131964   4.237   4.311  14.789  0.0303  0.1841 -0.7095
 3491TIP3    H231965   4.195   4.447  14.736  0.6266  0.7973  0.3490
 3492TIP3   OH231966   6.834   2.907   0.617 -0.1368  0.5804 -0.1946
 3492TIP3    H131967   6.898   2.911   0.545 -0.0686  0.8820 -0.1175
 3492TIP3    H231968   6.882   2.864   0.688 -0.1419  0.4614 -0.2618
 3493TIP3   OH231969   5.264   2.694  11.246  0.5672 -0.4087 -0.7268
 3493TIP3    H131970   5.207   2.769  11.229 -0.5559 -0.3963  2.3117
 3493TIP3    H231971   5.292   2.665  11.160 -3.4487  0.0662 -2.4485
 3494TIP3   OH231972   4.992   5.703  14.946 -0.0259 -0.4579 -0.0821
 3494TIP3    H131973   4.994   5.794  14.976 -0.7784 -0.2122 -0.7528
 3494TIP3    H231974   4.935   5.704  14.869  0.7357 -1.3189 -0.6841
 3495TIP3   OH231975   3.751   1.775  11.100  0.1965  0.0672  0.1267
 3495TIP3    H131976   3.763   1.729  11.017 -0.9360  1.0856 -0.6324
 3495TIP3    H231977   3.686   1.843  11.081  0.0555  0.4476  1.8020
 3496TIP3   OH231978   1.114   1.755  15.962  0.8382 -0.4308  0.3768
 3496TIP3    H131979   1.136   1.802  16.042 -2.1495  0.6008  0.6913
 3496TIP3    H231980   1.023   1.728  15.974  0.3117 -0.3165 -2.6359
 3497TIP3   OH231981   5.107   3.620  15.528  0.1506 -0.3973  0.1162
 3497TIP3    H131982   5.035   3.560  15.548  1.0450 -1.2632  0.8757
 3497TIP3    H231983   5.071   3.681  15.464 -0.8535 -1.6145 -0.5123
 3498TIP3   OH231984   4.708   3.754   4.517 -0.0313  0.2494  0.1425
 3498TIP3    H131985   4.666   3.785   4.437  1.0354 -0.7530 -0.8465
 3498TIP3    H231986   4.652   3.683   4.548 -1.5903  1.9829  1.5079
 3499TIP3   OH231987   1.169   5.938   0.227 -0.2050  0.0289 -0.4335
 3499TIP3    H131988   1.162   5.975   0.139 -0.6553 -2.6014 -1.5981
 3499TIP3    H231989   1.089   5.966   0.271 -1.5703 -1.2328 -1.9831
 3500TIP3   OH231990   6.780   4.138  15.337  0.3815 -0.6262 -0.6832
 3500TIP3    H131991   6.779   4.107  15.247  1.1477  0.0923 -0.9421
 3500TIP3    H231992   6.821   4.067  15.386 -0.5570 -1.2635 -0.7949
 3501TIP3   OH231993   0.722   1.912  14.105  0.4122  0.0382  0.0280
 3501TIP3    H131994   0.719   1.929  14.199 -0.9264 -0.3052  0.0638
 3501TIP3    H231995   0.734   1.998  14.065 -1.0600  0.4702  0.4446
 3502TIP3   OH231996   5.679   0.220  11.577  0.8175  0.1583 -0.3618
 3502TIP3    H131997   5.632   0.294  11.615  0.3163 -0.6984  0.7435
 3502TIP3    H231998   5.769   0.252  11.565  0.7237  0.7874  0.5486
 3503TIP3   OH231999   2.397   0.253  13.259 -0.2988 -0.1420 -0.0164
 3503TIP3    H132000   2.472   0.274  13.203  1.1319  0.0241  1.8401
 3503TIP3    H232001   2.397   0.158  13.264 -2.2252 -0.3484 -2.5332
 3504TIP3   OH232002   6.831   4.638  15.751 -0.2181 -0.2977  0.2419
 3504TIP3    H132003   6.921   4.645  15.720 -1.0247 -0.6569 -2.4126
 3504TIP3    H232004   6.795   4.726  15.739 -0.5144 -0.4175  0.2336
 3505TIP3   OH232005   2.060   1.144   5.270 -0.1188  0.4377 -0.6418
 3505TIP3    H132006   1.996   1.161   5.339 -1.4089 -1.2753 -1.3340
 3505TIP3    H232007   2.142   1.129   5.316 -1.2315 -2.1440  0.7367
 3506TIP3   OH232008   5.796   3.440   0.346  0.6337 -0.1918 -0.0690
 3506TIP3    H132009   5.765   3.529   0.366  0.0474 -0.4415  0.1330
 3506TIP3    H232010   5.871   3.428   0.404 -1.0071 -0.8919  2.0352
 3507TIP3   OH232011   2.462   3.837   4.009  0.1117  0.4021 -0.5337
 3507TIP3    H132012   2.422   3.903   3.952  1.0422  2.9462  1.5647
 3507TIP3    H232013   2.388   3.793   4.051 -0.5442 -0.5483 -2.5486
 3508TIP3   OH232014   0.461   1.359  12.642  0.1797  0.4731  0.1970
 3508TIP3    H132015   0.389   1.369  12.580  0.8770  2.2543 -0.3917
 3508TIP3    H232016   0.431   1.403  12.721 -0.1155 -0.4883  0.6366
 3509TIP3   OH232017   3.219   3.360   1.107  0.1008  0.4758 -0.0348
 3509TIP3    H132018   3.181   3.389   1.024 -0.6275 -0.5828 -0.0988
 3509TIP3    H232019   3.143   3.349   1.165  0.5560  0.7061  0.6084
 3510TIP3   OH232020   4.388   1.238  12.314 -0.3812  0.7734 -0.2685
 3510TIP3    H132021   4.449   1.311  12.301 -0.6498  0.9381 -0.6261
 3510TIP3    H232022   4.307   1.268  12.274 -1.4399  1.5269  2.2086
 3511TIP3   OH232023   1.067   2.407   1.557  0.5132 -0.0169 -0.1996
 3511TIP3    H132024   0.973   2.404   1.573  0.4116 -1.7698 -0.9598
 3511TIP3    H232025   1.106   2.363   1.632  0.4468 -2.4577 -1.4994
 3512TIP3   OH232026   2.581   1.349  14.780 -0.5006 -0.2518  0.5360
 3512TIP3    H132027   2.486   1.337  14.776 -0.5237 -0.6007  1.7896
 3512TIP3    H232028   2.601   1.405  14.705 -1.5415 -1.0850 -0.3978
 3513TIP3   OH232029   5.207   1.306   2.419 -0.2488  0.0985  0.0250
 3513TIP3    H132030   5.183   1.399   2.421  2.1975  0.8309 -0.7445
 3513TIP3    H232031   5.213   1.281   2.511 -2.2556  0.2822  0.2422
 3514TIP3   OH232032   4.072   6.297   4.766 -0.5750  0.2202  0.0641
 3514TIP3    H132033   4.034   6.229   4.711 -2.0184  0.2598  0.9566
 3514TIP3    H232034   4.023   6.377   4.744  0.5461  0.8077 -0.3819
 3515TIP3   OH232035   6.422   4.956  12.687 -0.0256  0.4904  0.1977
 3515TIP3    H132036   6.495   5.018  12.686 -0.0802  0.6004  1.4069
 3515TIP3    H232037   6.450   4.887  12.747 -0.4147 -0.1178 -0.2984
 3516TIP3   OH232038   0.364   2.100   5.595  0.3692  0.7714 -0.1968
 3516TIP3    H132039   0.308   2.128   5.523 -0.6326 -0.1897  0.1718
 3516TIP3    H232040   0.374   2.005   5.581  0.1738  0.5792  0.9068
 3517TIP3   OH232041   2.908   1.856   2.315  0.0129  0.3104 -0.4299
 3517TIP3    H132042   2.864   1.799   2.252 -1.0265  0.2205  0.3424
 3517TIP3    H232043   2.998   1.826   2.316  0.1688  0.6127 -2.1959
 3518TIP3   OH232044   1.799   0.068  16.244  0.2447  0.2545 -0.3943
 3518TIP3    H132045   1.882   0.114  16.228  1.1912 -0.7263  1.3674
 3518TIP3    H232046   1.805   0.041  16.335 -0.9633 -1.9643 -0.9213
 3519TIP3   OH232047   0.482   1.073   1.336  0.5774 -0.1940  0.6790
 3519TIP3    H132048   0.470   0.979   1.322  0.3726 -0.1719  0.6906
 3519TIP3    H232049   0.392   1.107   1.342  0.6246  0.1802 -0.4964
 3520TIP3   OH232050   5.509   3.819   5.073 -0.7327  0.2001 -0.0399
 3520TIP3    H132051   5.470   3.907   5.069 -2.1606 -0.4650 -1.9384
 3520TIP3    H232052   5.442   3.766   5.116 -0.9946 -0.4835 -1.2578
 3521TIP3   OH232053   1.264   2.436   3.456 -0.3097 -0.8352  0.0904
 3521TIP3    H132054   1.282   2.373   3.526 -1.8351 -0.2360  1.0903
 3521TIP3    H232055   1.299   2.519   3.488  1.2382 -1.0374 -0.9987
 3522TIP3   OH232056   2.903   4.032  15.624  0.2087  0.2545 -0.2281
 3522TIP3    H132057   2.936   4.115  15.588  1.4548 -0.4739 -0.8081
 3522TIP3    H232058   2.942   4.028  15.712  1.2480 -0.3506 -0.7100
 3523TIP3   OH232059   0.989   1.252  16.562 -0.4255  0.5673 -0.2386
 3523TIP3    H132060   0.937   1.192  16.616  0.2483 -0.1794 -0.4061
 3523TIP3    H232061   0.947   1.337  16.574 -1.4730  0.0503 -0.0852
 3524TIP3   OH232062   2.440   2.639  15.906 -0.4963 -0.0448  0.1036
 3524TIP3    H132063   2.506   2.622  15.839  0.8673 -2.6901  1.9246
 3524TIP3    H232064   2.489   2.675  15.980 -1.3955 -0.2497  0.8156
 3525TIP3   OH232065   4.068   2.434  16.197  0.1631  0.0296  0.0908
 3525TIP3    H132066   4.011   2.489  16.251 -1.1001 -0.8007 -0.3544
 3525TIP3    H232067   4.155   2.443  16.237 -0.8255 -1.1439  2.7829
 3526TIP3   OH232068   0.362   3.336  15.542 -0.3559 -0.2226 -0.7770
 3526TIP3    H132069   0.357   3.390  15.463  0.8109  1.3227  0.1487
 3526TIP3    H232070   0.358   3.246  15.510 -0.9333  0.3737 -2.4983
 3527TIP3   OH232071   5.274   5.534  10.161  0.0114 -0.4939 -0.1177
 3527TIP3    H132072   5.187   5.507  10.191 -1.1038 -0.0288 -2.7011
 3527TIP3    H232073   5.309   5.459  10.115 -0.5506  0.3928 -2.0920
 3528TIP3   OH232074   3.857   4.592  14.333 -0.0739  0.0999 -0.0597
 3528TIP3    H132075   3.879   4.519  14.391 -1.5566 -0.4686 -0.1577
 3528TIP3    H232076   3.904   4.667  14.369 -0.4437 -0.3823  1.5057
 3529TIP3   OH232077   0.592   2.816  12.483 -0.7081  0.2442 -0.3419
 3529TIP3    H132078   0.670   2.849  12.529 -2.8917  3.0711  1.7015
 3529TIP3    H232079   0.610   2.835  12.391  0.4220  2.4244  0.2397
 3530TIP3   OH232080   5.202   0.403  14.093  0.2307  0.1283  0.2262
 3530TIP3    H132081   5.292   0.401  14.063  0.0250 -1.6900 -0.4062
 3530TIP3    H232082   5.203   0.462  14.169  1.4712  1.9268 -1.1037
 3531TIP3   OH232083   2.592   5.130   3.514 -0.3265 -0.4187 -0.0169
 3531TIP3    H132084   2.638   5.047   3.499  0.4390 -0.4495  2.0668
 3531TIP3    H232085   2.503   5.104   3.536 -0.3986 -0.6075 -0.5263
 3532TIP3   OH232086   0.286   0.762  11.883 -0.0701  0.1049 -0.5755
 3532TIP3    H132087   0.340   0.729  11.811 -2.4136  0.0059 -2.3948
 3532TIP3    H232088   0.332   0.733  11.962  2.0254 -0.7468 -2.0067
 3533TIP3   OH232089   6.062   3.926   3.332  0.6273  0.2897  0.2716
 3533TIP3    H132090   6.034   3.842   3.295  0.2610 -0.1567  1.5259
 3533TIP3    H232091   5.982   3.978   3.337  0.4116 -0.1411  1.6627
 3534TIP3   OH232092   2.461   6.832   1.222  0.3258 -0.7806 -0.0636
 3534TIP3    H132093   2.411   6.833   1.140 -2.3031 -1.9179  1.4040
 3534TIP3    H232094   2.451   6.921   1.256 -0.9584 -1.0464  0.3090
 3535TIP3   OH232095   3.403   0.952  16.772  0.2186 -0.1213  0.7544
 3535TIP3    H132096   3.332   1.015  16.783 -0.4697 -0.7804  0.2082
 3535TIP3    H232097   3.381   0.880  16.831  0.3566 -0.3870  0.4880
 3536TIP3   OH232098   1.519   4.539   3.484  1.2368 -0.0198  0.4369
 3536TIP3    H132099   1.431   4.500   3.478  1.0663  0.5317 -1.4778
 3536TIP3    H232100   1.538   4.567   3.394  2.5803  1.6067  1.1810
 3537TIP3   OH232101   4.957   6.170  14.259  0.4671 -0.3237  0.4538
 3537TIP3    H132102   4.922   6.252  14.294  0.9800  0.7929 -1.5115
 3537TIP3    H232103   5.034   6.153  14.314 -1.0148 -0.8982  2.4890
 3538TIP3   OH232104   1.729   1.668  17.046 -1.1324  0.1774 -0.4425
 3538TIP3    H132105   1.656   1.609  17.028 -2.1994  1.0050  1.0708
 3538TIP3    H232106   1.714   1.743  16.989 -1.1258  0.1073 -0.5391
 3539TIP3   OH232107   3.357   0.076  16.108  0.6338  0.0629 -0.5169
 3539TIP3    H132108   3.324   0.092  16.020  3.4235  2.7748 -1.2422
 3539TIP3    H232109   3.297   0.124  16.165 -0.3718 -0.5489 -1.0156
 3540TIP3   OH232110   5.808   0.506  14.378  0.5349 -1.4152 -1.1231
 3540TIP3    H132111   5.822   0.485  14.471  0.1051 -1.6530 -1.1058
 3540TIP3    H232112   5.737   0.571  14.379  1.4125 -0.4439 -1.2165
 3541TIP3   OH232113   5.190   1.655  13.461 -0.0266 -0.2097  0.1464
 3541TIP3    H132114   5.267   1.677  13.408  0.0036 -0.1592  0.2108
 3541TIP3    H232115   5.154   1.576  13.421 -1.3327  1.0783 -1.3802
 3542TIP3   OH232116   3.870   2.960   5.910  0.7290  0.4870  0.4561
 3542TIP3    H132117   3.824   3.030   5.957  0.7579  0.7526  0.0936
 3542TIP3    H232118   3.922   3.006   5.844 -0.2486  0.0453 -0.6432
 3543TIP3   OH232119   3.078   3.357   0.854 -0.4653  0.1864 -0.1155
 3543TIP3    H132120   2.995   3.322   0.822 -0.5114  0.5374 -0.3953
 3543TIP3    H232121   3.145   3.305   0.808 -0.5004 -1.1372  1.2548
 3544TIP3   OH232122   3.982   1.242   1.638 -0.4411  0.1516  0.1545
 3544TIP3    H132123   3.930   1.261   1.716  1.7262  0.5656  1.5710
 3544TIP3    H232124   4.054   1.188   1.669 -0.1946 -0.7490 -1.8194
 3545TIP3   OH232125   0.268   4.793   2.215  0.0489 -0.6612  0.2498
 3545TIP3    H132126   0.291   4.734   2.143 -1.3718 -0.6106 -0.2658
 3545TIP3    H232127   0.245   4.735   2.287 -0.5760 -0.7311 -0.0052
 3546TIP3   OH232128   5.616   1.108   5.311  0.2185  0.3025 -0.8459
 3546TIP3    H132129   5.539   1.139   5.263 -0.4573  0.5145  0.3399
 3546TIP3    H232130   5.609   1.149   5.397  2.0389  0.8800 -0.9376
 3547TIP3   OH232131   0.073   1.014   4.299  0.0461  0.5590 -1.0428
 3547TIP3    H132132   0.054   1.069   4.375 -0.7261 -1.1411  0.0474
 3547TIP3    H232133   0.135   1.066   4.247 -1.4051  2.8756 -0.6256
 3548TIP3   OH232134   2.063   5.000   0.522 -0.1785 -0.1855 -0.0838
 3548TIP3    H132135   2.087   5.091   0.504 -0.5922  0.0468  0.4759
 3548TIP3    H232136   2.145   4.951   0.518  0.5897  0.6927  2.4976
 3549TIP3   OH232137   4.811   0.871  12.094  0.1758  0.4814 -0.4823
 3549TIP3    H132138   4.774   0.834  12.174 -0.3464  0.3586 -0.7810
 3549TIP3    H232139   4.761   0.952  12.079  0.7606  0.8849 -0.2839
 3550TIP3   OH232140   2.034   5.376  16.646 -0.1189 -0.0221 -0.4471
 3550TIP3    H132141   2.094   5.441  16.683 -0.4446 -0.6410  1.2321
 3550TIP3    H232142   2.073   5.354  16.561  0.5374  1.6036 -0.6063
 3551TIP3   OH232143   2.331   2.312  15.735 -0.0250  0.2002  0.1078
 3551TIP3    H132144   2.423   2.333  15.719 -0.3343  0.8823 -0.9068
 3551TIP3    H232145   2.325   2.218  15.718  0.0026  0.5905 -2.4910
 3552TIP3   OH232146   6.290   4.174   4.867  0.1215  0.2339  0.3957
 3552TIP3    H132147   6.385   4.189   4.863  0.1528  0.6257  2.0365
 3552TIP3    H232148   6.257   4.207   4.784  1.2612  1.4201  0.3941
 3553TIP3   OH232149   0.627   6.149  15.773 -0.0706  0.5885  0.3433
 3553TIP3    H132150   0.688   6.215  15.740  0.7196 -0.2984 -0.0066
 3553TIP3    H232151   0.643   6.148  15.868  1.0551 -0.2029  0.1626
 3554TIP3   OH232152   3.518   4.776  13.754 -0.3718 -0.3041 -0.2705
 3554TIP3    H132153   3.532   4.821  13.837  1.7204 -0.7994 -0.3161
 3554TIP3    H232154   3.476   4.842  13.698  0.4405  0.8361  0.4273
 3555TIP3   OH232155   5.583   6.113   3.758 -0.8145 -0.5088  0.6472
 3555TIP3    H132156   5.547   6.090   3.843 -2.4836 -2.8213 -0.5428
 3555TIP3    H232157   5.678   6.105   3.768 -1.0558 -3.0088  1.7903
 3556TIP3   OH232158   3.945   1.597  12.275 -0.2737 -0.4381 -0.3946
 3556TIP3    H132159   3.917   1.527  12.216 -1.1196  0.7988 -1.5137
 3556TIP3    H232160   3.863   1.635  12.308  0.1780 -0.4523  0.8137
 3557TIP3   OH232161   3.838   0.530   3.889  0.6719  0.0891 -0.2538
 3557TIP3    H132162   3.758   0.545   3.940  0.6650  0.5678 -0.4027
 3557TIP3    H232163   3.843   0.605   3.829 -0.2273 -1.3032 -2.1619
 3558TIP3   OH232164   3.447   6.799   3.161 -0.0156  0.1903  0.5840
 3558TIP3    H132165   3.411   6.809   3.073 -0.0279  3.0217  0.8013
 3558TIP3    H232166   3.532   6.757   3.148  0.8856  2.3349 -1.0913
 3559TIP3   OH232167   6.353   2.695  14.431 -0.2487  0.0653 -0.0528
 3559TIP3    H132168   6.321   2.711  14.342 -0.7764  1.0779  0.3092
 3559TIP3    H232169   6.304   2.756  14.486  0.3052 -0.3222  0.8965
 3560TIP3   OH232170   4.470   4.915  15.092 -0.3929 -0.0087 -0.4588
 3560TIP3    H132171   4.527   4.911  15.169 -1.3208 -0.7463  0.2359
 3560TIP3    H232172   4.393   4.963  15.123 -0.6944 -0.1520 -0.9855
 3561TIP3   OH232173   3.977   2.017  10.895 -0.9915 -0.2384  0.2038
 3561TIP3    H132174   3.967   2.018  10.800  1.5971 -0.5218 -0.1238
 3561TIP3    H232175   4.006   1.928  10.916  2.7843  0.9015  0.6173
 3562TIP3   OH232176   0.223   2.763  10.409 -0.3439 -0.2034 -0.1271
 3562TIP3    H132177   0.226   2.704  10.484  3.0586 -0.7215 -0.5510
 3562TIP3    H232178   0.181   2.712  10.340 -0.8038 -0.7623  0.5527
 3563TIP3   OH232179   2.807   2.703  15.223  0.3128 -0.1897  0.0626
 3563TIP3    H132180   2.896   2.728  15.196 -0.3409  0.2068 -1.8868
 3563TIP3    H232181   2.772   2.654  15.148 -1.9021  1.6237 -0.1974
 3564TIP3   OH232182   0.889   4.592  12.232 -0.1865 -0.9610  0.4001
 3564TIP3    H132183   0.883   4.601  12.137 -0.1723  0.7134  0.5235
 3564TIP3    H232184   0.980   4.565  12.248 -0.1346 -1.0551 -0.0557
 3565TIP3   OH232185   5.469   5.785   2.286 -0.4045 -0.0561  0.2151
 3565TIP3    H132186   5.424   5.781   2.202  0.2348  0.9225 -0.1855
 3565TIP3    H232187   5.398   5.781   2.351 -1.0210  0.6942 -0.3893
 3566TIP3   OH232188   6.418   5.049  11.871 -0.2486  0.2927 -0.2073
 3566TIP3    H132189   6.368   4.980  11.827  0.9464  0.7905 -2.4751
 3566TIP3    H232190   6.488   5.002  11.916 -0.0811 -0.0726 -0.8315
 3567TIP3   OH232191   6.099   5.380  10.553  0.0754  0.3454  0.4215
 3567TIP3    H132192   6.070   5.360  10.464  0.4455 -1.7829  0.7349
 3567TIP3    H232193   6.188   5.415  10.543 -0.4008  1.4604 -0.1088
 3568TIP3   OH232194   6.401   5.638   5.351 -0.3612 -0.3414  0.0862
 3568TIP3    H132195   6.350   5.562   5.379 -1.1038  1.2371  3.3946
 3568TIP3    H232196   6.491   5.618   5.378 -0.4645 -0.2493  0.4954
 3569TIP3   OH232197   0.134   5.880   4.393  0.4549  0.5257  0.5221
 3569TIP3    H132198   0.182   5.931   4.458  1.1239  0.9475 -0.2957
 3569TIP3    H232199   0.139   5.932   4.313  0.3499 -0.3861 -0.0842
 3570TIP3   OH232200   1.847   2.675  14.297  0.4266 -0.1446 -0.5558
 3570TIP3    H132201   1.751   2.673  14.300  0.4128  0.0800 -0.8149
 3570TIP3    H232202   1.868   2.737  14.227  0.7783  1.0465  0.5832
 3571TIP3   OH232203   3.954   0.798   3.655  0.2111  0.0492 -0.7994
 3571TIP3    H132204   3.866   0.817   3.624 -0.4879 -0.6271  0.6393
 3571TIP3    H232205   3.998   0.883   3.657 -0.8517  0.6129 -0.2740
 3572TIP3   OH232206   6.024   5.175   0.330  0.3825  0.1140  0.0431
 3572TIP3    H132207   6.088   5.242   0.307  0.0778  0.2300 -0.4872
 3572TIP3    H232208   6.027   5.113   0.256 -0.2644  0.2341 -0.0928
 3573TIP3   OH232209   4.001   0.995   6.105 -0.0012 -0.1566 -0.0099
 3573TIP3    H132210   3.993   1.062   6.173 -0.3457  0.5775 -0.7538
 3573TIP3    H232211   4.084   0.951   6.124  0.1967  0.4335  0.5258
 3574TIP3   OH232212   2.228   6.366   2.761 -0.3200 -0.3900 -0.7212
 3574TIP3    H132213   2.287   6.308   2.712 -0.6117 -0.3287 -1.1516
 3574TIP3    H232214   2.201   6.314   2.837 -0.0635 -0.5781 -0.7569
 3575TIP3   OH232215   0.024   3.291   5.145 -0.1135  0.5591 -0.1821
 3575TIP3    H132216  -0.056   3.241   5.152 -0.3533  0.9123 -0.3456
 3575TIP3    H232217   0.068   3.279   5.229 -1.4888  2.2990  0.8684
 3576TIP3   OH232218   3.720   6.116  14.915 -0.3452 -0.1789 -0.1711
 3576TIP3    H132219   3.751   6.030  14.941 -0.2162 -0.4512 -1.1634
 3576TIP3    H232220   3.800   6.166  14.896 -0.4362 -0.6398 -1.9840
 3577TIP3   OH232221   5.499   0.020  14.615 -0.2892  0.0655 -0.2699
 3577TIP3    H132222   5.493   0.115  14.616  0.3647  0.1427 -1.5543
 3577TIP3    H232223   5.412  -0.010  14.643 -0.9018  1.0438 -1.0486
 3578TIP3   OH232224   6.117   6.148   3.688 -0.2839 -0.9443 -0.1684
 3578TIP3    H132225   6.132   6.233   3.729 -0.5189 -0.9927  0.0251
 3578TIP3    H232226   6.201   6.123   3.651  0.2650 -1.4827  1.3887
 3579TIP3   OH232227   1.740   3.246   4.493 -0.3237 -0.1188 -0.2633
 3579TIP3    H132228   1.656   3.286   4.516  0.3147  2.2856 -1.7224
 3579TIP3    H232229   1.794   3.258   4.572 -0.8739 -0.2813  0.1460
 3580TIP3   OH232230   0.454   1.701   2.305  0.1067  0.2214  0.3865
 3580TIP3    H132231   0.467   1.635   2.237 -1.7729  0.0828  0.0985
 3580TIP3    H232232   0.378   1.669   2.355 -0.2192  1.6658  0.8580
 3581TIP3   OH232233   0.840   4.559   0.202  0.5459  0.0844 -0.1705
 3581TIP3    H132234   0.906   4.627   0.186  0.5709 -0.2493 -1.5464
 3581TIP3    H232235   0.761   4.591   0.159  0.6146 -0.8424 -1.0056
 3582TIP3   OH232236   3.540   0.265  16.695  0.0992 -0.0537 -0.1078
 3582TIP3    H132237   3.512   0.339  16.748 -1.2954 -1.1585  0.7708
 3582TIP3    H232238   3.463   0.242  16.643  1.0631  0.2218 -1.7404
 3583TIP3   OH232239   4.031   0.035  11.344  0.0842 -0.2740  0.7420
 3583TIP3    H132240   3.955   0.042  11.286 -1.6724 -1.2298  2.7774
 3583TIP3    H232241   3.998   0.063  11.430  2.0951 -0.5471  1.6624
 3584TIP3   OH232242   0.742   2.968  12.671  0.6586 -0.1982  0.0920
 3584TIP3    H132243   0.687   3.002  12.741  0.0836  2.7622 -1.6250
 3584TIP3    H232244   0.827   2.954  12.711  0.1539  0.6906  1.5367
 3585TIP3   OH232245   0.076   1.026   1.493 -0.1513 -0.1009 -0.1782
 3585TIP3    H132246  -0.017   1.044   1.509  0.1647  1.8143 -0.2731
 3585TIP3    H232247   0.112   1.012   1.580 -0.4746 -0.6953 -0.1284
 3586TIP3   OH232248   5.941   4.588   6.536  0.0243 -0.9927 -0.7118
 3586TIP3    H132249   5.864   4.562   6.587  0.0197 -2.2095 -1.2982
 3586TIP3    H232250   6.015   4.570   6.594 -0.1002 -0.1721 -0.2857
 3587TIP3   OH232251   5.275   3.005  11.141  0.0746 -0.6350  0.0521
 3587TIP3    H132252   5.181   2.987  11.142 -0.4604  1.8451 -0.0647
 3587TIP3    H232253   5.294   3.034  11.052  1.2836 -2.4213 -0.3310
 3588TIP3   OH232254   5.168   5.191  17.068 -0.5079  0.2090 -0.5172
 3588TIP3    H132255   5.162   5.161  17.159  1.7431  0.0583 -0.3729
 3588TIP3    H232256   5.254   5.162  17.039  0.0714  2.8777 -1.7278
 3589TIP3   OH232257   1.849   4.860  10.762  0.5090  0.4410 -0.3322
 3589TIP3    H132258   1.885   4.772  10.779  0.3678  0.6711  1.3827
 3589TIP3    H232259   1.786   4.847  10.692  0.0686 -0.9571  0.2853
 3590TIP3   OH232260   2.497   4.172  12.962 -0.3016  0.3846  0.1341
 3590TIP3    H132261   2.574   4.226  12.946 -0.4475  0.3853 -0.6023
 3590TIP3    H232262   2.427   4.213  12.911 -0.8059  0.3928  0.8037
 3591TIP3   OH232263   4.851   0.508  12.804 -0.0991 -0.1472  0.2144
 3591TIP3    H132264   4.823   0.433  12.855  0.1731  0.1584  0.8246
 3591TIP3    H232265   4.894   0.471  12.727  0.4468 -0.6177  0.7402
 3592TIP3   OH232266   5.741   5.998   2.670  0.6212 -0.1057 -0.2485
 3592TIP3    H132267   5.664   5.948   2.698  0.6579 -1.2011 -1.9007
 3592TIP3    H232268   5.722   6.088   2.696 -0.5133 -0.5981  0.7509
 3593TIP3   OH232269   3.125   5.692  12.387  0.1432 -0.1842 -0.1121
 3593TIP3    H132270   3.168   5.658  12.465  0.1220 -2.1601 -0.8849
 3593TIP3    H232271   3.033   5.700  12.411  0.2625 -0.0230  0.2964
 3594TIP3   OH232272   0.714   4.561   5.499  0.3533  0.2214 -0.4000
 3594TIP3    H132273   0.762   4.525   5.424  1.1370 -0.0295  0.2161
 3594TIP3    H232274   0.751   4.648   5.512 -0.2114  0.5110 -0.6809
 3595TIP3   OH232275   6.635   6.288   1.329  0.0210  0.0484 -0.2329
 3595TIP3    H132276   6.681   6.339   1.262 -2.5902  0.4765 -1.8834
 3595TIP3    H232277   6.638   6.343   1.407  0.3740  1.0787 -0.9486
 3596TIP3   OH232278   6.575   1.580  16.453 -0.2681  0.3747  0.7282
 3596TIP3    H132279   6.599   1.498  16.497 -2.9800  0.1132  1.8963
 3596TIP3    H232280   6.555   1.640  16.525 -3.4360  0.3903 -0.0342
 3597TIP3   OH232281   6.590   3.531  13.368 -0.0024 -0.4764  0.0786
 3597TIP3    H132282   6.635   3.607  13.332 -1.7351 -0.0275 -1.3292
 3597TIP3    H232283   6.602   3.537  13.462  0.3895  1.2254 -0.0553
 3598TIP3   OH232284   4.561   0.752   0.617 -0.3877 -0.0748  0.3077
 3598TIP3    H132285   4.505   0.708   0.553 -0.7949  0.3301  0.3803
 3598TIP3    H232286   4.650   0.723   0.596 -0.4300  0.6343 -0.9260
 3599TIP3   OH232287   0.423   5.488  15.780  0.3913 -0.3676  0.4461
 3599TIP3    H132288   0.415   5.419  15.845  1.5462  0.4840  1.5380
 3599TIP3    H232289   0.404   5.445  15.697  0.3984 -1.8281  1.1788
 3600TIP3   OH232290   0.980   0.217  14.833  0.0249  0.0893 -0.4542
 3600TIP3    H132291   0.981   0.129  14.794  0.7024  0.0310 -0.3103
 3600TIP3    H232292   1.038   0.268  14.777 -0.8921  0.6266 -0.9372
 3601TIP3   OH232293   3.744   1.351  15.705 -0.5314 -0.4511 -0.0755
 3601TIP3    H132294   3.687   1.407  15.652 -2.5032  0.0440  2.3990
 3601TIP3    H232295   3.711   1.262  15.689  0.5900 -0.6261 -1.6151
 3602TIP3   OH232296   4.722   4.050  13.368  0.2536  0.3107 -0.8716
 3602TIP3    H132297   4.656   4.011  13.426 -0.0171  0.0697 -1.3352
 3602TIP3    H232298   4.670   4.097  13.302  0.5684  1.6425 -0.2057
 3603TIP3   OH232299   2.618   0.989  12.594 -0.2706  0.2737 -0.1247
 3603TIP3    H132300   2.679   1.032  12.534  0.8797  1.3211  1.6966
 3603TIP3    H232301   2.662   0.908  12.619 -0.4939  0.1085 -0.2638
 3604TIP3   OH232302   4.341   1.006   1.511  0.0182 -0.4762 -0.3335
 3604TIP3    H132303   4.413   0.943   1.515 -0.5404 -1.1509 -0.6721
 3604TIP3    H232304   4.316   1.007   1.418 -0.2602 -0.0797 -0.2523
 3605TIP3   OH232305   5.163   2.228   5.676  0.1744 -0.7725 -0.4008
 3605TIP3    H132306   5.254   2.225   5.648  0.6569 -1.2497  1.1245
 3605TIP3    H232307   5.163   2.188   5.763 -1.4194 -0.3830 -0.1858
 3606TIP3   OH232308   0.555   6.368  13.761  0.3941  0.0487  0.1809
 3606TIP3    H132309   0.561   6.273  13.767  2.2130  0.1564  0.5064
 3606TIP3    H232310   0.630   6.400  13.811  0.4430  1.6328 -0.8442
 3607TIP3   OH232311   0.191   4.158  12.205 -0.4091 -0.1902  0.6311
 3607TIP3    H132312   0.232   4.074  12.186 -0.7765 -0.4358  0.9058
 3607TIP3    H232313   0.249   4.223  12.165  0.9090 -0.4407  2.0424
 3608TIP3   OH232314   2.010   3.230   4.597  0.2145  0.3123 -0.0270
 3608TIP3    H132315   2.083   3.175   4.624 -0.5864  0.3352  2.4373
 3608TIP3    H232316   1.972   3.184   4.522 -0.2206 -2.4236  1.6999
 3609TIP3   OH232317   5.398   1.452   1.251  0.0440  0.3717 -0.6704
 3609TIP3    H132318   5.490   1.434   1.270  0.1197 -0.1513 -1.4768
 3609TIP3    H232319   5.349   1.394   1.310  0.2386  0.3115 -0.5684
 3610TIP3   OH232320   2.309   4.483  14.100 -0.1105  0.2907  0.2311
 3610TIP3    H132321   2.277   4.393  14.097  0.7319 -0.1545  2.7270
 3610TIP3    H232322   2.404   4.475  14.108 -0.1600  1.2978  2.3352
 3611TIP3   OH232323   4.376   0.040  17.102 -0.2421  0.1749  0.1824
 3611TIP3    H132324   4.323  -0.014  17.043 -0.6007  1.2055 -0.4712
 3611TIP3    H232325   4.435   0.088  17.044  0.3651  0.1628  0.7861
 3612TIP3   OH232326   3.605   4.812  13.127  0.2173 -0.0950  0.3742
 3612TIP3    H132327   3.665   4.744  13.158  2.1521  1.1318 -0.5338
 3612TIP3    H232328   3.628   4.824  13.035 -3.3972 -1.5528 -0.9016
 3613TIP3   OH232329   4.877   6.446  13.292 -0.0859  0.1722 -0.2641
 3613TIP3    H132330   4.903   6.530  13.330 -2.2135  0.5214  0.5768
 3613TIP3    H232331   4.799   6.421  13.341 -0.4051 -1.5527 -1.5515
 3614TIP3   OH232332   5.972   0.780  12.880 -0.0997 -0.0083 -0.1911
 3614TIP3    H132333   6.023   0.739  12.810 -0.0533  1.0617 -0.8215
 3614TIP3    H232334   6.017   0.757  12.961  0.3641 -0.5303 -0.5978
 3615TIP3   OH232335   5.858   5.909   1.433  0.4917 -0.3278 -0.0851
 3615TIP3    H132336   5.800   5.919   1.509  0.0976 -0.2263 -0.3962
 3615TIP3    H232337   5.923   5.978   1.444  0.1803 -0.0345 -0.0659
 3616TIP3   OH232338   3.398   1.362  13.381  0.1552 -0.2527  0.5309
 3616TIP3    H132339   3.336   1.431  13.403 -1.1058 -1.4647  0.8905
 3616TIP3    H232340   3.483   1.406  13.381 -0.5777  1.2377  0.9948
 3617TIP3   OH232341   4.391   3.179   1.761 -0.6654 -0.1428 -0.6799
 3617TIP3    H132342   4.472   3.134   1.735 -0.1462  0.8631 -0.8731
 3617TIP3    H232343   4.388   3.257   1.705 -0.3517  1.2583  1.1530
 3618TIP3   OH232344   4.078   2.254  11.750  0.0131  0.0899 -0.2651
 3618TIP3    H132345   4.069   2.159  11.750 -0.9841  0.1794 -0.3554
 3618TIP3    H232346   4.053   2.281  11.838 -0.4791  0.3335 -0.4766
 3619TIP3   OH232347   2.662   3.907  15.564 -0.2705  0.3917  0.5005
 3619TIP3    H132348   2.671   3.875  15.653 -1.2557 -1.9858 -0.1731
 3619TIP3    H232349   2.733   3.971  15.554  2.3672 -2.0934  1.7784
 3620TIP3   OH232350   0.255   1.517   3.192  0.3311  0.2099  0.1183
 3620TIP3    H132351   0.257   1.612   3.206  0.5446  0.2366 -0.0771
 3620TIP3    H232352   0.223   1.481   3.274 -0.9319  0.5366 -0.2079
 3621TIP3   OH232353   2.054   5.124  16.788  0.5923 -0.7065 -0.2841
 3621TIP3    H132354   2.032   5.214  16.766  3.0119 -0.3081 -1.3914
 3621TIP3    H232355   2.024   5.072  16.714  0.5762 -0.5943 -0.3554
 3622TIP3   OH232356   1.043   0.584   6.171  0.2380 -0.6530 -0.1532
 3622TIP3    H132357   0.968   0.628   6.210  0.2040  0.2838 -1.2449
 3622TIP3    H232358   1.006   0.514   6.119  0.3370 -2.9241  2.5835
 3623TIP3   OH232359   4.469   3.651   0.853 -0.3643  1.4222 -0.1046
 3623TIP3    H132360   4.543   3.613   0.901 -0.7103 -0.0964 -0.7211
 3623TIP3    H232361   4.480   3.620   0.763 -1.9237  0.8742 -0.1315
 3624TIP3   OH232362   2.054   0.172   3.458  0.4633 -0.2809 -0.1866
 3624TIP3    H132363   1.999   0.241   3.495 -0.9984  0.9307 -4.1044
 3624TIP3    H232364   2.026   0.092   3.502 -0.1833  1.1037  2.0828
 3625TIP3   OH232365   6.733   3.223   3.455  0.3389 -0.0950  0.0559
 3625TIP3    H132366   6.672   3.215   3.528  0.7106 -0.8387  0.2965
 3625TIP3    H232367   6.815   3.250   3.496  0.4655 -0.2010 -0.1263
 3626TIP3   OH232368   0.683   1.970   5.399  0.2264 -0.1131  0.0016
 3626TIP3    H132369   0.595   1.934   5.412 -0.2001  0.8434 -0.1590
 3626TIP3    H232370   0.698   2.024   5.476  0.1972  0.6621 -0.5341
 3627TIP3   OH232371   3.161   4.232  13.827  0.3213 -0.2004  0.0939
 3627TIP3    H132372   3.138   4.317  13.789 -0.9782 -0.0905  1.0536
 3627TIP3    H232373   3.257   4.232  13.828  0.3525  1.4466  0.4958
 3628TIP3   OH232374   4.169   6.706  12.365 -0.6552 -0.3735 -0.0109
 3628TIP3    H132375   4.130   6.717  12.452 -2.2681  0.1831 -0.7779
 3628TIP3    H232376   4.255   6.667  12.383 -0.5316  0.6611  1.8956
 3629TIP3   OH232377   4.782   6.797   3.575 -0.1632  0.2029 -0.1427
 3629TIP3    H132378   4.837   6.820   3.650 -2.6444 -0.4626  2.0331
 3629TIP3    H232379   4.751   6.881   3.541  1.7181  0.5612 -1.1260
 3630TIP3   OH232380   6.025   3.110   4.135 -0.4938 -0.2501 -0.1852
 3630TIP3    H132381   6.098   3.144   4.188 -0.9210  2.4706 -1.1923
 3630TIP3    H232382   5.962   3.182   4.133 -2.2699 -1.7693 -1.1068
 3631TIP3   OH232383   1.884   2.893   3.393 -0.2387  0.3582  0.4026
 3631TIP3    H132384   1.802   2.872   3.438 -0.1646 -0.0195  0.3644
 3631TIP3    H232385   1.856   2.917   3.304 -0.2278 -0.8641  0.0503
 3632TIP3   OH232386   5.309   4.828   0.381  0.1863 -0.0596 -0.0088
 3632TIP3    H132387   5.353   4.828   0.466  1.5266  0.6219 -0.6661
 3632TIP3    H232388   5.337   4.909   0.340 -2.7852  1.1267  0.0323
 3633TIP3   OH232389   6.476   3.199  12.573 -0.2408  0.3669 -0.4617
 3633TIP3    H132390   6.469   3.247  12.656  0.0220  1.4383 -1.0566
 3633TIP3    H232391   6.385   3.192  12.543 -0.1802  1.5921 -0.9829
 3634TIP3   OH232392   6.836   4.462  12.019  0.0845 -0.0803  0.3949
 3634TIP3    H132393   6.816   4.427  12.106  1.3920 -0.1825  0.6687
 3634TIP3    H232394   6.770   4.529  12.004  0.7570  1.0296  2.1323
 3635TIP3   OH232395   4.357   6.450   2.576  0.2454 -0.1921 -0.7901
 3635TIP3    H132396   4.369   6.474   2.484  0.8993 -0.4415 -0.7716
 3635TIP3    H232397   4.323   6.361   2.573 -1.6956  0.4920 -0.8415
 3636TIP3   OH232398   4.610   1.334   0.631  0.7040 -0.1142  0.2595
 3636TIP3    H132399   4.636   1.409   0.685 -0.5764  0.8921 -0.4746
 3636TIP3    H232400   4.616   1.366   0.541  0.6520 -1.0717 -0.0971
 3637TIP3   OH232401   0.499   6.616   0.086 -0.0068  0.1519  0.2492
 3637TIP3    H132402   0.504   6.596   0.179  0.7535 -1.3966 -0.0949
 3637TIP3    H232403   0.586   6.650   0.064  1.3213 -3.4298 -0.6859
 3638TIP3   OH232404   1.159   4.370   3.099 -0.1141  0.0799 -0.0901
 3638TIP3    H132405   1.245   4.329   3.089  0.3574  0.7984  0.8799
 3638TIP3    H232406   1.178   4.460   3.125 -1.1639  0.4076 -0.4048
 3639TIP3   OH232407   3.539   4.364  13.481 -0.0012 -0.5688  0.3482
 3639TIP3    H132408   3.494   4.315  13.412  0.9525 -1.3341  0.2439
 3639TIP3    H232409   3.572   4.442  13.438  0.9742 -1.2560 -0.2034
 3640TIP3   OH232410   1.246   1.113  17.162 -0.0627 -0.6559  0.3177
 3640TIP3    H132411   1.229   1.149  17.248 -1.8149  1.6126 -0.8734
 3640TIP3    H232412   1.198   1.030  17.161 -2.7419  0.7742  0.5612
 3641TIP3   OH232413   4.152   3.288   5.152  0.3713  0.2663  0.2591
 3641TIP3    H132414   4.170   3.260   5.242  2.0558  1.3582  0.3106
 3641TIP3    H232415   4.203   3.228   5.098  1.3949  1.1631  0.1979
 3642TIP3   OH232416   1.696   4.704  11.403  0.7743  0.0144 -0.9037
 3642TIP3    H132417   1.630   4.646  11.366 -0.7230  0.4923  0.8261
 3642TIP3    H232418   1.665   4.721  11.493  2.1400  1.9571 -0.7267
 3643TIP3   OH232419   6.241   1.637   2.659  0.0263 -0.1961  0.8407
 3643TIP3    H132420   6.232   1.625   2.754 -1.0123  1.1730  0.9620
 3643TIP3    H232421   6.157   1.676   2.633  0.2228 -0.7487 -0.6829
 3644TIP3   OH232422   2.075   2.656   3.187 -0.3327 -0.4632 -0.1833
 3644TIP3    H132423   2.013   2.605   3.135  0.8151 -2.0865 -0.0312
 3644TIP3    H232424   2.050   2.639   3.278  1.7644 -3.2476  0.0205
 3645TIP3   OH232425   2.924   2.110  13.537 -0.3960 -0.6754  0.7937
 3645TIP3    H132426   2.968   2.171  13.597  1.4662 -1.6252  0.4894
 3645TIP3    H232427   2.859   2.066  13.592 -0.5704  0.3450  1.4443
 3646TIP3   OH232428   4.679   0.826  13.872 -0.2484  0.4705 -0.2890
 3646TIP3    H132429   4.721   0.740  13.868 -1.5699 -0.2374  0.1551
 3646TIP3    H232430   4.719   0.876  13.802 -0.3599 -0.9485 -1.4196
 3647TIP3   OH232431   3.533   1.421  15.105  0.1971 -0.6023 -0.2160
 3647TIP3    H132432   3.522   1.365  15.181  2.9139  0.3563  0.9928
 3647TIP3    H232433   3.593   1.373  15.047  0.1861 -0.2245 -0.5519
 3648TIP3   OH232434   2.662   4.177   3.240 -0.0334 -0.0937 -0.5839
 3648TIP3    H132435   2.691   4.246   3.300  1.3077 -1.6415  0.6432
 3648TIP3    H232436   2.742   4.137   3.208 -0.7734 -0.5581 -1.9377
 3649TIP3   OH232437   6.462   3.668   2.711  0.1906 -0.0429  0.0751
 3649TIP3    H132438   6.404   3.736   2.744  0.1043 -0.8911  1.7900
 3649TIP3    H232439   6.412   3.625   2.642  0.5682  2.1105 -1.6704
 3650TIP3   OH232440   1.005   6.380   5.070  0.4708 -0.1529  0.0764
 3650TIP3    H132441   0.994   6.327   5.149  1.1109  0.2929  0.4773
 3650TIP3    H232442   0.948   6.456   5.084 -0.7228 -0.8774 -0.6546
 3651TIP3   OH232443   5.252   4.439   0.790  0.1238 -0.1432  0.1772
 3651TIP3    H132444   5.340   4.414   0.761 -0.2632 -0.3933 -0.8189
 3651TIP3    H232445   5.258   4.441   0.886  2.0503  2.9675  0.1303
 3652TIP3   OH232446   4.534   5.284   3.680  0.3204  0.4666  0.6016
 3652TIP3    H132447   4.596   5.287   3.606 -1.1015 -1.8492 -0.7747
 3652TIP3    H232448   4.453   5.319   3.644 -0.2194 -0.0850  1.2800
 3653TIP3   OH232449   3.284   1.100   4.908 -0.2345 -0.3023 -0.0119
 3653TIP3    H132450   3.248   1.012   4.920 -1.0757  0.1075  0.5538
 3653TIP3    H232451   3.358   1.104   4.968 -0.9642 -0.2025  0.8914
 3654TIP3   OH232452   0.549   0.032   1.419 -0.1726  0.6507  0.6874
 3654TIP3    H132453   0.493   0.074   1.485 -0.8914 -1.0444  1.2077
 3654TIP3    H232454   0.613  -0.018   1.470  0.0693  0.3550  0.0962
 3655TIP3   OH232455   0.256   6.545   0.411  0.1878 -0.2039 -0.3813
 3655TIP3    H132456   0.287   6.529   0.322  1.0131 -0.7286 -0.0122
 3655TIP3    H232457   0.318   6.499   0.467 -0.5857 -0.2733  0.4500
 3656TIP3   OH232458   2.591   6.195   4.107 -0.2938 -0.0434 -0.1502
 3656TIP3    H132459   2.613   6.287   4.092 -0.8449  0.2968  1.0440
 3656TIP3    H232460   2.539   6.171   4.031 -0.2364  0.6603 -0.4243
 3657TIP3   OH232461   3.370   6.818   2.910 -0.1907 -0.0817 -0.1932
 3657TIP3    H132462   3.421   6.896   2.887 -0.9635  0.3864 -0.3409
 3657TIP3    H232463   3.350   6.777   2.826 -1.2434  0.5004 -0.2406
 3658TIP3   OH232464   5.567   2.452   4.981  0.0532  0.1139 -0.2606
 3658TIP3    H132465   5.543   2.463   4.889 -1.0205  1.6764  0.1662
 3658TIP3    H232466   5.575   2.358   4.993 -1.6785 -0.2366 -1.5044
 3659TIP3   OH232467   4.476   0.050   2.548 -0.0862 -0.3253 -0.5178
 3659TIP3    H132468   4.413   0.051   2.620 -1.0039 -0.9498 -1.2877
 3659TIP3    H232469   4.559   0.026   2.589 -0.1964  1.0904  0.6189
 3660TIP3   OH232470   6.287   2.582   4.901 -0.4477  0.0752 -0.0328
 3660TIP3    H132471   6.315   2.640   4.831 -2.3068  0.1158 -0.8042
 3660TIP3    H232472   6.220   2.632   4.948 -1.9695 -1.3258 -0.6166
 3661TIP3   OH232473   1.969   2.506   5.211 -0.2694  0.0575 -0.0061
 3661TIP3    H132474   1.979   2.573   5.279 -1.9221  0.0100  0.3224
 3661TIP3    H232475   1.880   2.518   5.178 -0.2232 -1.2867 -0.6917
 3662TIP3   OH232476   1.970   2.354   1.343  0.5635  0.3365 -0.3203
 3662TIP3    H132477   1.991   2.346   1.436  1.4453 -0.8466 -0.5936
 3662TIP3    H232478   1.971   2.265   1.310 -1.2286  0.5897 -1.1874
 3663TIP3   OH232479   2.379   4.504  13.132  0.3088 -0.1154 -0.3319
 3663TIP3    H132480   2.362   4.427  13.186  0.3266  0.8792  1.1415
 3663TIP3    H232481   2.465   4.488  13.094  2.4752  1.0481  3.5567
 3664TIP3   OH232482   1.012   4.720  17.077  0.3397 -0.4803 -0.3764
 3664TIP3    H132483   1.008   4.714  17.173 -1.6911 -0.9085 -0.4318
 3664TIP3    H232484   1.103   4.741  17.058  0.1305  3.4373  1.8278
 3665TIP3   OH232485   2.919   5.228  14.953  0.0989  0.2080 -0.1061
 3665TIP3    H132486   2.936   5.136  14.973 -0.7663  0.2351  0.8431
 3665TIP3    H232487   2.916   5.271  15.039  2.1589  1.4659 -0.5869
 3666TIP3   OH232488   3.013   6.661   1.856  0.0132 -0.5406  0.5813
 3666TIP3    H132489   2.942   6.713   1.818  0.1309 -0.9043 -0.1531
 3666TIP3    H232490   3.048   6.716   1.927 -1.1166 -0.4403  1.0829
 3667TIP3   OH232491   1.659   3.379   2.887  0.2175 -0.0050 -0.1532
 3667TIP3    H132492   1.614   3.321   2.948 -0.9285  0.7283 -0.2667
 3667TIP3    H232493   1.590   3.410   2.828  1.5153 -1.7908 -2.7519
 3668TIP3   OH232494   4.350   0.017  15.684 -0.4831  0.3079 -0.2178
 3668TIP3    H132495   4.343   0.071  15.605 -0.1901 -0.1717 -0.5743
 3668TIP3    H232496   4.345   0.080  15.756  1.0178  0.9691 -0.6410
 3669TIP3   OH232497   3.769   4.076   1.534 -0.4958 -0.0272  0.9023
 3669TIP3    H132498   3.772   4.071   1.438  1.0597 -2.9949  0.9860
 3669TIP3    H232499   3.676   4.081   1.554 -0.8523  0.9633 -0.7233
 3670TIP3   OH232500   1.999   0.870  14.538 -0.5364 -0.4223 -0.2758
 3670TIP3    H132501   1.949   0.949  14.516 -0.1951 -0.3935 -0.9780
 3670TIP3    H232502   2.000   0.868  14.634 -2.0110 -0.5152 -0.2434
 3671TIP3   OH232503   1.789   5.977   5.784 -0.5921  0.3278 -0.2704
 3671TIP3    H132504   1.836   6.007   5.707 -0.4312  0.1398 -0.2458
 3671TIP3    H232505   1.759   6.058   5.827 -1.1668  0.4162 -0.8264
 3672TIP3   OH232506   2.956   5.085   2.234  0.3369 -0.4610  0.2879
 3672TIP3    H132507   2.906   5.162   2.209 -1.8910 -1.6267  0.8112
 3672TIP3    H232508   3.039   5.119   2.268 -1.3776  1.8807  2.4975
 3673TIP3   OH232509   6.772   4.541  14.805 -0.6040  0.7133 -1.0683
 3673TIP3    H132510   6.850   4.519  14.856  0.6285  1.5551 -2.4854
 3673TIP3    H232511   6.784   4.494  14.723 -0.8722  1.9298 -1.8319
 3674TIP3   OH232512   6.644   3.354   5.352 -0.7617  0.0818  0.3550
 3674TIP3    H132513   6.661   3.260   5.354  0.7192  0.3319  1.7755
 3674TIP3    H232514   6.621   3.372   5.261  0.9928 -1.3554 -0.4428
 3675TIP3   OH232515   0.450   2.818  14.568  0.1089  0.6178  0.0591
 3675TIP3    H132516   0.508   2.753  14.528 -0.7367 -0.3453  0.3532
 3675TIP3    H232517   0.509   2.887  14.599  1.1324 -0.4920  0.6582
 3676TIP3   OH232518   1.518   1.741  11.366 -0.2623 -0.2657  0.0730
 3676TIP3    H132519   1.521   1.781  11.279  0.6959 -1.0414 -0.2781
 3676TIP3    H232520   1.608   1.749  11.399 -0.5316 -0.3015  0.8394
 3677TIP3   OH232521   6.577   2.564   0.708 -0.0713 -0.2853  0.0164
 3677TIP3    H132522   6.640   2.547   0.639  0.0307  0.9573 -0.2218
 3677TIP3    H232523   6.578   2.659   0.718 -0.6069 -0.3945  1.2371
 3678TIP3   OH232524   4.924   5.710  10.353  0.0414 -0.4081  0.0100
 3678TIP3    H132525   5.007   5.730  10.308 -0.6509  1.2651 -0.5996
 3678TIP3    H232526   4.877   5.654  10.291 -0.7576  1.5983 -1.3314
 3679TIP3   OH232527   5.510   0.565   5.038 -0.1130 -0.1236  0.1258
 3679TIP3    H132528   5.436   0.601   4.989 -0.7032 -0.7479  0.5321
 3679TIP3    H232529   5.504   0.607   5.124  1.1794  1.3036 -0.4456
 3680TIP3   OH232530   0.828   6.536  12.929 -0.2046 -0.5938 -0.1431
 3680TIP3    H132531   0.759   6.538  12.995  0.0022 -2.8169  0.2379
 3680TIP3    H232532   0.908   6.517  12.978  0.4716  0.5801 -0.7412
 3681TIP3   OH232533   2.950   5.493   5.793  0.3961  0.0462  0.0154
 3681TIP3    H132534   2.953   5.461   5.884  0.7566  0.5957  0.2012
 3681TIP3    H232535   2.939   5.587   5.802 -2.2563 -0.1442 -0.5302
 3682TIP3   OH232536   0.260   2.264   0.484  0.5292 -0.2609 -0.0427
 3682TIP3    H132537   0.334   2.264   0.423  0.2117 -0.2667 -0.4346
 3682TIP3    H232538   0.239   2.171   0.496 -1.1854 -0.2290 -2.1407
 3683TIP3   OH232539   6.229   3.091  16.023  0.1411 -0.1491  0.5207
 3683TIP3    H132540   6.301   3.130  15.974 -0.5225  0.1349 -0.2493
 3683TIP3    H232541   6.151   3.112  15.972 -0.7080  1.0322  2.2041
 3684TIP3   OH232542   4.148   1.939   1.999  0.0831 -0.1675  0.1250
 3684TIP3    H132543   4.122   2.030   1.984 -0.6942 -0.6360 -1.5865
 3684TIP3    H232544   4.183   1.939   2.088 -0.0060  1.7753  0.2098
 3685TIP3   OH232545   5.860   3.872  13.551 -0.1317 -0.5067  0.7575
 3685TIP3    H132546   5.909   3.872  13.468 -1.0352  0.0474  0.2077
 3685TIP3    H232547   5.897   3.945  13.601  0.7896 -1.1798  1.0829
 3686TIP3   OH232548   2.840   6.195  12.820  0.1759  1.0317 -0.5882
 3686TIP3    H132549   2.892   6.123  12.785  0.0924  0.6027  0.1497
 3686TIP3    H232550   2.884   6.218  12.902 -1.1077  0.2667  0.3486
 3687TIP3   OH232551   2.113   2.649  10.344  0.2165 -0.5380 -0.1147
 3687TIP3    H132552   2.142   2.570  10.298  0.5303 -0.8643  0.6138
 3687TIP3    H232553   2.019   2.653  10.329  0.3269 -0.5939 -0.8410
 3688TIP3   OH232554   5.059   0.196  13.957  0.0818 -0.7295  0.4225
 3688TIP3    H132555   5.037   0.149  14.037  0.0234  0.9967  1.4748
 3688TIP3    H232556   5.072   0.287  13.985  0.2436 -0.1066 -1.5004
 3689TIP3   OH232557   5.451   1.373  11.423 -0.3482  0.3520  0.2436
 3689TIP3    H132558   5.503   1.450  11.447 -1.1337  1.1966 -0.6545
 3689TIP3    H232559   5.362   1.395  11.453 -0.4216 -0.5609  0.7093
 3690TIP3   OH232560   1.099   0.453   4.650  0.6033 -0.5707 -0.0769
 3690TIP3    H132561   1.072   0.377   4.702  0.9665 -0.4626  0.2650
 3690TIP3    H232562   1.181   0.426   4.608  1.5371  0.1617  1.2344
 3691TIP3   OH232563   1.639   1.885   0.915  0.0113 -0.2724 -0.2617
 3691TIP3    H132564   1.717   1.923   0.874  0.0526 -1.5518 -1.4182
 3691TIP3    H232565   1.669   1.857   1.002  0.9983 -1.2777 -0.9072
 3692TIP3   OH232566   1.885   0.503   1.119  0.1161 -0.4031 -0.7145
 3692TIP3    H132567   1.880   0.431   1.181  1.6155 -0.5916 -0.7767
 3692TIP3    H232568   1.914   0.578   1.170 -0.0475 -0.1963 -0.9193
 3693TIP3   OH232569   6.443   2.959   4.291  0.0530  0.5030 -1.1993
 3693TIP3    H132570   6.401   2.875   4.308  0.4393  0.0840 -2.2836
 3693TIP3    H232571   6.481   2.984   4.376 -1.0465  0.1592 -0.5845
 3694TIP3   OH232572   2.118   4.718  16.735 -0.0155  0.1049  0.0516
 3694TIP3    H132573   2.212   4.729  16.750  0.2684 -1.4514 -0.4532
 3694TIP3    H232574   2.087   4.672  16.813 -0.4437  0.9105  0.3729
 3695TIP3   OH232575   0.432   4.814  15.603  0.8076 -0.0438  0.2737
 3695TIP3    H132576   0.390   4.877  15.662 -1.6918  0.8510 -2.2343
 3695TIP3    H232577   0.475   4.868  15.537  0.7542 -0.9525 -0.5267
 3696TIP3   OH232578   1.392   1.186  12.935 -0.0235  0.1631  0.8974
 3696TIP3    H132579   1.371   1.104  12.980 -0.8335  0.7786  1.6738
 3696TIP3    H232580   1.479   1.172  12.898 -0.3878 -1.2523  0.5131
 3697TIP3   OH232581   5.661   1.765  12.961 -0.0635 -0.8227 -0.0235
 3697TIP3    H132582   5.663   1.780  12.866 -1.1765  0.3573  0.1122
 3697TIP3    H232583   5.612   1.683  12.971 -1.4814 -0.0568 -0.4141
 3698TIP3   OH232584   5.625   3.337  16.182 -0.3616 -0.5367 -0.7246
 3698TIP3    H132585   5.643   3.359  16.273  1.8137  0.3102 -1.3063
 3698TIP3    H232586   5.529   3.342  16.175 -0.4062  3.5105  0.5376
 3699TIP3   OH232587   2.323   0.377  12.548 -0.2420 -0.6234 -0.2781
 3699TIP3    H132588   2.312   0.404  12.456 -0.8027  0.8064  0.1819
 3699TIP3    H232589   2.239   0.338  12.571 -0.9855  1.2188  0.3043
 3700TIP3   OH232590   3.286   4.844  15.667 -0.7465  0.1447  0.0657
 3700TIP3    H132591   3.299   4.921  15.612 -0.5272 -0.3280 -0.5558
 3700TIP3    H232592   3.313   4.872  15.755 -3.0268  1.5411  0.4048
 3701TIP3   OH232593   2.461   1.594  13.154  0.5411  0.0019  0.6929
 3701TIP3    H132594   2.499   1.539  13.222 -1.1231 -0.4258  1.3424
 3701TIP3    H232595   2.536   1.636  13.111  1.6522  0.4141  2.8874
 3702TIP3   OH232596   0.220   3.442  15.029  0.0783  0.1716  0.1353
 3702TIP3    H132597   0.314   3.438  15.043  0.1396  1.3331  0.1349
 3702TIP3    H232598   0.211   3.485  14.944 -0.3735 -3.2668 -1.7546
 3703TIP3   OH232599   4.820   3.041  11.503  0.3833 -0.2032  0.2485
 3703TIP3    H132600   4.903   3.070  11.540  1.2195 -0.7193 -1.1540
 3703TIP3    H232601   4.824   2.945  11.506  0.0834 -0.2372 -0.3581
 3704TIP3   OH232602   4.514   6.740  16.779  0.3247 -0.3533 -0.1550
 3704TIP3    H132603   4.546   6.753  16.868  0.8913  0.4563 -0.4745
 3704TIP3    H232604   4.555   6.809  16.728 -0.7404 -0.2277 -0.8705
 3705TIP3   OH232605   0.304   5.050  14.093  0.5683 -0.1927 -0.4699
 3705TIP3    H132606   0.335   5.061  14.183 -1.0801 -2.3624  0.4449
 3705TIP3    H232607   0.255   5.130  14.075 -1.1347 -0.7212  1.5045
 3706TIP3   OH232608   2.151   5.204  15.246 -0.2820  0.8715 -0.5059
 3706TIP3    H132609   2.221   5.144  15.220  0.3377  0.3088  2.1915
 3706TIP3    H232610   2.195   5.290  15.251 -0.4766  1.0401 -1.5214
 3707TIP3   OH232611   6.137   5.094  16.511 -0.2931 -0.4580 -0.4917
 3707TIP3    H132612   6.068   5.067  16.450 -0.2422 -0.7683 -0.4104
 3707TIP3    H232613   6.193   5.017  16.519  0.6576  0.1023 -1.3733
 3708TIP3   OH232614   3.618   3.373   2.651  0.2251  0.0876 -0.4943
 3708TIP3    H132615   3.655   3.334   2.572 -2.5498 -1.3440 -1.2128
 3708TIP3    H232616   3.574   3.300   2.695  0.1619  1.2294  1.4391
 3709TIP3   OH232617   2.733   5.524  11.455 -0.5798 -0.4269 -0.0729
 3709TIP3    H132618   2.828   5.534  11.461 -0.7330  0.5718  1.3877
 3709TIP3    H232619   2.713   5.543  11.363  0.4268  1.7245  0.0762
 3710TIP3   OH232620   0.375   1.896   2.091  0.5795 -0.1616 -0.2425
 3710TIP3    H132621   0.357   1.835   2.163  0.1639 -0.2327 -0.4043
 3710TIP3    H232622   0.390   1.840   2.015  1.8642 -0.1190 -0.0379
 3711TIP3   OH232623   5.153   0.600   0.814 -0.2026  0.3066  0.0389
 3711TIP3    H132624   5.147   0.526   0.753  0.0181 -0.7063  1.2032
 3711TIP3    H232625   5.170   0.559   0.899 -0.0001  1.7157  0.6967
 3712TIP3   OH232626   0.798   3.914  14.861 -0.6208 -0.2112 -0.0055
 3712TIP3    H132627   0.765   4.003  14.874  0.3875  0.3915 -1.3774
 3712TIP3    H232628   0.755   3.884  14.781  0.2498 -0.3507 -0.4268
 3713TIP3   OH232629   2.146   4.698   3.550 -0.1828  0.2765  0.0165
 3713TIP3    H132630   2.176   4.643   3.622 -1.2995  0.2610  0.4830
 3713TIP3    H232631   2.206   4.678   3.478  0.4712 -0.2726  0.6986
 3714TIP3   OH232632   2.156   0.035  11.140  0.1261 -0.0937  0.0410
 3714TIP3    H132633   2.121   0.015  11.053  0.6317 -0.3994 -0.1008
 3714TIP3    H232634   2.211   0.112  11.127 -1.3916  1.0909  0.4843
 3715TIP3   OH232635   4.315   3.389  11.341  0.6259  0.5643  0.1323
 3715TIP3    H132636   4.360   3.311  11.373  0.9491  0.6737 -0.0539
 3715TIP3    H232637   4.298   3.440  11.420  0.4522  0.3268  0.2507
 3716TIP3   OH232638   4.322   3.008  15.039 -0.5528  0.3158 -0.1679
 3716TIP3    H132639   4.242   2.959  15.025 -1.2404  1.5478 -0.7472
 3716TIP3    H232640   4.343   2.995  15.132 -0.4765 -1.3481 -0.3832
 3717TIP3   OH232641   4.805   2.509  15.609 -0.1788  0.0396 -0.0805
 3717TIP3    H132642   4.794   2.431  15.554  1.4357 -1.5414  1.7050
 3717TIP3    H232643   4.719   2.523  15.649 -0.8500  0.0541 -1.4687
 3718TIP3   OH232644   4.129   3.592  12.159  0.3344 -0.3970 -0.3602
 3718TIP3    H132645   4.167   3.632  12.237 -0.6348 -1.2513  0.5792
 3718TIP3    H232646   4.183   3.625  12.087  1.9408 -0.4346  0.7547
 3719TIP3   OH232647   4.891   4.159   3.831 -0.1899 -0.1714  0.3269
 3719TIP3    H132648   4.868   4.242   3.874  1.8479  0.6686 -0.0600
 3719TIP3    H232649   4.916   4.185   3.742 -1.2174 -1.4588 -0.3637
 3720TIP3   OH232650   4.820   0.291  12.983  0.8027 -0.1679 -0.3871
 3720TIP3    H132651   4.785   0.338  13.059 -1.3103 -0.7862 -0.9315
 3720TIP3    H232652   4.912   0.274  13.007 -0.1249 -1.6442  2.7139
 3721TIP3   OH232653   3.870   3.063   4.949 -0.1495  0.4402 -0.4659
 3721TIP3    H132654   3.838   3.070   4.859 -0.7758 -0.8407 -0.3636
 3721TIP3    H232655   3.795   3.031   4.998  0.7444 -0.7901  0.1435
 3722TIP3   OH232656   5.539   5.532  13.903 -0.3343 -0.2209 -0.2457
 3722TIP3    H132657   5.528   5.614  13.950 -0.6976  0.7632 -1.9592
 3722TIP3    H232658   5.451   5.494  13.899 -0.0337 -1.1795  1.2999
 3723TIP3   OH232659   0.265   6.140   5.333  0.1795  0.3003  0.3718
 3723TIP3    H132660   0.224   6.198   5.269  0.1027  0.2733  0.3962
 3723TIP3    H232661   0.206   6.065   5.339  0.2169  0.2746  0.4291
 3724TIP3   OH232662   5.562   1.595  15.466 -0.2057 -0.2121  0.4335
 3724TIP3    H132663   5.602   1.656  15.528 -2.1279 -0.0266  1.5923
 3724TIP3    H232664   5.595   1.509  15.493 -0.3826 -0.0465  1.2201
 3725TIP3   OH232665   0.836   1.417  12.073  0.2602 -0.1045 -0.9223
 3725TIP3    H132666   0.744   1.390  12.075  0.2457 -0.1375  2.2136
 3725TIP3    H232667   0.875   1.376  12.150  2.3975  1.6853 -0.9537
 3726TIP3   OH232668   6.218   5.272   4.236 -0.2994  0.0595  0.5220
 3726TIP3    H132669   6.263   5.319   4.307 -0.3913  0.4692  0.3122
 3726TIP3    H232670   6.165   5.206   4.281  1.7097 -1.5196  0.7055
 3727TIP3   OH232671   0.689   1.731  11.563 -1.0631 -1.1169 -0.5863
 3727TIP3    H132672   0.618   1.680  11.525 -1.4531 -1.0657  0.0570
 3727TIP3    H232673   0.720   1.786  11.491 -1.3256 -1.5171 -1.0090
 3728TIP3   OH232674   2.263   6.573   1.156 -0.2582  0.4730 -0.6439
 3728TIP3    H132675   2.194   6.640   1.157 -2.1109 -1.2842 -2.0943
 3728TIP3    H232676   2.318   6.597   1.081  0.5330  1.6667  0.2850
 3729TIP3   OH232677   4.643   3.011   2.273  0.3382  0.2759 -0.0772
 3729TIP3    H132678   4.654   3.102   2.245  2.2435  0.0017 -0.3796
 3729TIP3    H232679   4.590   3.017   2.352  1.4939  1.7960  0.6388
 3730TIP3   OH232680   4.596   2.822   4.183 -0.1237 -0.3141  0.3070
 3730TIP3    H132681   4.630   2.783   4.102  0.5531  0.9166 -0.0289
 3730TIP3    H232682   4.521   2.874   4.155  0.1341  0.1448  0.4591
 3731TIP3   OH232683   4.599   2.516   1.656 -0.0434  0.0394  0.2571
 3731TIP3    H132684   4.617   2.445   1.718  0.3896  0.7490  0.9705
 3731TIP3    H232685   4.668   2.509   1.591 -2.3022 -2.7248 -2.0714
 3732TIP3   OH232686   6.511   2.823  13.319 -0.5620 -0.3820  0.0963
 3732TIP3    H132687   6.535   2.852  13.407  0.5422 -3.0019  0.7703
 3732TIP3    H232688   6.452   2.749  13.334 -0.7974 -0.5226 -1.3893
 3733TIP3   OH232689   1.332   1.114   4.253  0.0403  0.5854  0.0974
 3733TIP3    H132690   1.276   1.141   4.326  0.5727 -0.9064  1.1166
 3733TIP3    H232691   1.398   1.183   4.247  0.2470  0.5252  1.3500
 3734TIP3   OH232692   3.167   1.651  12.214 -0.2024  0.0640  0.1581
 3734TIP3    H132693   3.237   1.638  12.151 -1.4220 -1.8029 -0.9120
 3734TIP3    H232694   3.114   1.722  12.179  0.6422  0.8800  0.5183
 3735TIP3   OH232695   6.598   4.462  14.433 -0.3591 -0.1360 -0.2721
 3735TIP3    H132696   6.537   4.536  14.441 -0.7068 -0.2988 -1.3203
 3735TIP3    H232697   6.629   4.465  14.343  0.5037 -0.5968 -0.0004
 3736TIP3   OH232698   1.897   0.932  15.579 -0.0388 -0.5502  0.4809
 3736TIP3    H132699   1.870   0.848  15.616 -4.7015  0.6559  0.5075
 3736TIP3    H232700   1.837   0.996  15.618  2.8546  2.7653 -0.0120
 3737TIP3   OH232701   1.999   0.502   3.847  0.2129 -0.1692  0.4604
 3737TIP3    H132702   2.055   0.577   3.826  0.2725 -0.3633 -0.0928
 3737TIP3    H232703   1.973   0.516   3.938 -0.5614  1.0365  0.0829
 3738TIP3   OH232704   2.017   2.477  16.790  0.2946 -0.1187  0.1202
 3738TIP3    H132705   1.972   2.463  16.707 -0.4754  0.5566  0.4097
 3738TIP3    H232706   1.947   2.497  16.852  0.8387 -0.8640  0.9926
 3739TIP3   OH232707   6.091   4.888  15.542  0.1210 -0.3444 -0.5278
 3739TIP3    H132708   6.035   4.839  15.482  0.9032  0.2986 -1.8162
 3739TIP3    H232709   6.168   4.833  15.552  0.2900 -0.1301 -0.6599
 3740TIP3   OH232710   0.256   4.680  16.117  0.2620  0.3757 -0.3713
 3740TIP3    H132711   0.245   4.727  16.200 -0.3319 -0.2297 -0.1023
 3740TIP3    H232712   0.350   4.678  16.103  0.3734  0.3853  0.3437
 3741TIP3   OH232713   5.975   5.762  12.014  0.2770 -0.5225 -0.1978
 3741TIP3    H132714   5.902   5.778  11.955 -0.4583  0.1343  0.8469
 3741TIP3    H232715   6.046   5.817  11.980  0.8313 -2.3445 -2.1234
 3742TIP3   OH232716   0.196   4.270  14.209 -0.0807 -0.1805  0.5304
 3742TIP3    H132717   0.275   4.257  14.157 -0.7682  1.0251 -0.8801
 3742TIP3    H232718   0.126   4.279  14.145 -1.0924  0.5449  1.6933
 3743TIP3   OH232719   3.102   2.747  14.306 -0.3855 -0.1705  0.1893
 3743TIP3    H132720   3.191   2.781  14.320  0.0422 -0.9441 -0.5534
 3743TIP3    H232721   3.056   2.767  14.387  0.2892  0.7957  0.3500
 3744TIP3   OH232722   3.380   2.815   1.905 -0.2216 -0.7256 -0.0775
 3744TIP3    H132723   3.420   2.794   1.989  0.5650 -1.3645 -0.5923
 3744TIP3    H232724   3.331   2.737   1.882  0.3860 -0.9436 -0.6713
 3745TIP3   OH232725   2.374   4.912   5.145 -0.2292  0.1765  0.1398
 3745TIP3    H132726   2.286   4.931   5.177 -0.5086  0.2853 -0.6734
 3745TIP3    H232727   2.366   4.914   5.050  0.3576 -1.1205  0.0414
 3746TIP3   OH232728   2.946   0.352   1.825  0.4115  0.1472  0.0928
 3746TIP3    H132729   3.000   0.275   1.809  1.5725  0.5951  1.5870
 3746TIP3    H232730   3.007   0.425   1.818 -0.5639  0.9146 -0.7799
 3747TIP3   OH232731   6.120   6.721   2.267 -0.2088  0.6544  0.2401
 3747TIP3    H132732   6.206   6.746   2.232 -0.4497 -0.9537 -1.6566
 3747TIP3    H232733   6.141   6.655   2.334  0.0805  0.5675  0.0714
 3748TIP3   OH232734   0.869   5.354   4.132 -0.2135  0.3307 -0.3212
 3748TIP3    H132735   0.953   5.313   4.111 -0.8625 -1.5277  0.4718
 3748TIP3    H232736   0.852   5.413   4.058  3.1388  3.1228  0.8994
 3749TIP3   OH232737   2.591   5.627  11.905  0.2820 -0.1852  0.4010
 3749TIP3    H132738   2.557   5.624  11.815  0.2144 -1.9464  0.4641
 3749TIP3    H232739   2.587   5.720  11.928 -0.2436  0.2316 -1.2044
 3750TIP3   OH232740   6.330   5.748   1.544 -0.3265  0.0212 -0.5847
 3750TIP3    H132741   6.368   5.706   1.467 -0.9240 -1.3497 -0.1515
 3750TIP3    H232742   6.241   5.772   1.517 -0.4209 -0.1533 -0.4320
 3751TIP3   OH232743   3.606   3.902  15.782 -0.2387  0.2450  0.3288
 3751TIP3    H132744   3.681   3.849  15.755 -0.6164 -1.3996  2.3431
 3751TIP3    H232745   3.615   3.982  15.730  2.3903 -0.2606 -0.1568
 3752TIP3   OH232746   2.987   3.257  13.028 -0.2681 -0.3388  0.3484
 3752TIP3    H132747   3.038   3.291  12.954  1.0967 -0.8308  1.0203
 3752TIP3    H232748   2.962   3.335  13.077  3.5337 -0.1027  2.3340
 3753TIP3   OH232749   5.557   5.290  10.853  0.8755  0.6389  0.5384
 3753TIP3    H132750   5.483   5.249  10.897  0.7362  0.2783 -0.0220
 3753TIP3    H232751   5.532   5.381  10.843 -0.5310  0.1108 -1.7081
 3754TIP3   OH232752   2.813   1.028   2.577  0.1948 -0.4355 -0.4484
 3754TIP3    H132753   2.894   1.081   2.577 -1.2453  1.9354 -1.0366
 3754TIP3    H232754   2.777   1.040   2.665 -0.9065  0.9345 -1.0413
 3755TIP3   OH232755   2.650   6.479   5.710 -0.1297  0.4794 -0.8159
 3755TIP3    H132756   2.673   6.390   5.686  0.1247  0.0534  0.8964
 3755TIP3    H232757   2.556   6.485   5.697 -0.0634  0.1475 -1.4617
 3756TIP3   OH232758   5.951   0.810  10.614  0.2231  0.2060  0.0933
 3756TIP3    H132759   5.861   0.778  10.623  0.7195 -1.3629 -0.1608
 3756TIP3    H232760   5.963   0.823  10.520  0.2714  0.3966  0.1259
 3757TIP3   OH232761   0.685   4.132   3.069  0.1601  0.1891  0.0484
 3757TIP3    H132762   0.654   4.145   3.159  2.3571 -0.1094  0.8959
 3757TIP3    H232763   0.765   4.184   3.063 -0.4405  0.9981 -2.0856
 3758TIP3   OH232764   2.795   0.196   5.775 -0.1316 -0.2631 -0.1802
 3758TIP3    H132765   2.763   0.106   5.773 -0.5046 -0.1193 -1.8234
 3758TIP3    H232766   2.868   0.197   5.713  1.0920  0.1393  1.2299
 3759TIP3   OH232767   2.716   3.522  16.556 -0.5137 -0.4660 -0.1724
 3759TIP3    H132768   2.804   3.503  16.589 -0.0542 -0.4563 -1.3626
 3759TIP3    H232769   2.683   3.590  16.615 -0.5012 -1.8428  1.4875
 3760TIP3   OH232770   3.221   0.672   0.141  0.0166  0.0375  0.3804
 3760TIP3    H132771   3.270   0.710   0.068  1.0160 -0.6094  0.7016
 3760TIP3    H232772   3.237   0.731   0.214 -1.0867  0.7544  0.0696
 3761TIP3   OH232773   5.626   0.654  16.942  0.2755 -0.1487 -0.9551
 3761TIP3    H132774   5.651   0.676  16.852  1.7535  1.4940 -0.2090
 3761TIP3    H232775   5.704   0.612  16.978  0.2376  0.5772 -0.0096
 3762TIP3   OH232776   3.520   0.509  13.756  0.0016  0.4160  0.7026
 3762TIP3    H132777   3.458   0.497  13.684  0.5553  0.3815  0.2278
 3762TIP3    H232778   3.585   0.570  13.722  0.3298  0.3135  1.1385
 3763TIP3   OH232779   3.689   1.368  16.675  0.5734 -0.0127 -0.6753
 3763TIP3    H132780   3.618   1.305  16.686  1.3309 -0.7220  0.4622
 3763TIP3    H232781   3.715   1.391  16.764  1.4726  0.5572 -1.0633
 3764TIP3   OH232782   0.365   4.049   5.258  0.4776 -0.0621  0.6637
 3764TIP3    H132783   0.415   4.085   5.331  1.5653  0.2998 -0.2222
 3764TIP3    H232784   0.416   3.973   5.230  0.4893  0.2540 -0.2024
 3765TIP3   OH232785   5.927   1.218   3.241  0.4778 -0.3770  0.9638
 3765TIP3    H132786   5.910   1.289   3.179  0.8488 -0.8040  0.3754
 3765TIP3    H232787   6.018   1.194   3.227  0.5966 -0.4159  1.7438
 3766TIP3   OH232788   4.869   1.756  12.051  0.4696  0.0691  0.4874
 3766TIP3    H132789   4.941   1.798  12.097 -0.3541  0.6318  1.3102
 3766TIP3    H232790   4.840   1.820  11.986 -0.1874  0.4296  1.1175
 3767TIP3   OH232791   2.150   2.821   2.116 -0.5823  0.5181 -0.5338
 3767TIP3    H132792   2.199   2.848   2.039 -0.4430  0.0090 -0.6298
 3767TIP3    H232793   2.088   2.892   2.132  1.2580  1.9461  0.5692
 3768TIP3   OH232794   0.783   3.132  12.424 -0.0954  0.3179  0.5294
 3768TIP3    H132795   0.823   3.096  12.345 -1.0428  0.5609 -0.0871
 3768TIP3    H232796   0.787   3.061  12.488  1.9091  0.5622  0.7193
 3769TIP3   OH232797   2.277   0.035   5.306  0.7474 -0.3484 -0.6636
 3769TIP3    H132798   2.257  -0.017   5.383  0.6645  0.3414 -0.2046
 3769TIP3    H232799   2.244   0.123   5.327  0.9938 -0.0771 -1.3597
 3770TIP3   OH232800   1.539   1.236  12.398 -0.4452  0.0037 -0.0297
 3770TIP3    H132801   1.487   1.192  12.330  1.0272 -2.9635  0.6236
 3770TIP3    H232802   1.615   1.270  12.351 -0.1455 -0.7549 -0.0995
 3771TIP3   OH232803   0.831   5.451  11.751 -0.3348  0.1729  0.0690
 3771TIP3    H132804   0.741   5.480  11.764  0.1440  1.6011  0.4478
 3771TIP3    H232805   0.860   5.500  11.674  0.8799  1.6808  1.4218
 3772TIP3   OH232806   2.817   0.304   2.123 -0.2184 -0.6128 -0.1969
 3772TIP3    H132807   2.789   0.226   2.171  0.0801 -0.1558  0.7555
 3772TIP3    H232808   2.815   0.279   2.031 -1.7041 -1.2417 -0.0160
 3773TIP3   OH232809   2.384   0.160   4.489  0.3652  0.0527 -0.3703
 3773TIP3    H132810   2.399   0.124   4.577  0.7991  0.0501 -0.4422
 3773TIP3    H232811   2.324   0.098   4.448  2.2030 -1.3994 -0.9929
 3774TIP3   OH232812   1.268   4.607   5.579 -0.5330  0.2335  0.5916
 3774TIP3    H132813   1.256   4.644   5.492 -0.2761  3.2727  1.7036
 3774TIP3    H232814   1.190   4.636   5.628  0.6478  1.0542  2.0677
 3775TIP3   OH232815   1.615   5.674   0.411  0.4749 -0.4245  0.3271
 3775TIP3    H132816   1.602   5.580   0.394 -1.0865 -0.5349  1.8856
 3775TIP3    H232817   1.540   5.716   0.370  0.2610 -0.0369  1.1065
 3776TIP3   OH232818   0.489   0.838   2.500 -0.2909 -0.4371 -0.0049
 3776TIP3    H132819   0.496   0.760   2.556 -1.7517 -1.0680 -0.6450
 3776TIP3    H232820   0.469   0.909   2.560  2.6326 -0.1669  0.8056
 3777TIP3   OH232821   4.917   4.407   3.962  0.0033  0.4908 -0.2766
 3777TIP3    H132822   4.828   4.427   3.934  0.9442  2.6763 -2.0942
 3777TIP3    H232823   4.935   4.471   4.031 -0.3029 -1.0002  1.2548
 3778TIP3   OH232824   5.906   0.890   4.303  0.3319 -0.2808 -0.3068
 3778TIP3    H132825   5.984   0.924   4.345  1.6700 -0.9752 -2.1141
 3778TIP3    H232826   5.877   0.819   4.361  1.0270 -0.0127  0.3837
 3779TIP3   OH232827   5.385   2.741  13.212  0.1255 -0.1858 -0.3290
 3779TIP3    H132828   5.294   2.742  13.242  0.2185  2.3641  0.1305
 3779TIP3    H232829   5.410   2.648  13.210 -1.4179 -0.7760  2.8123
 3780TIP3   OH232830   3.646   5.077   1.257 -0.3987 -0.1850  0.5506
 3780TIP3    H132831   3.574   5.126   1.218 -0.6713 -0.0421  1.2104
 3780TIP3    H232832   3.644   4.992   1.214 -0.5290  0.0574  0.0792
 3781TIP3   OH232833   0.096   5.544  16.572  0.1342  0.0929 -0.7301
 3781TIP3    H132834   0.175   5.532  16.519  0.5346 -1.5896  0.1681
 3781TIP3    H232835   0.108   5.628  16.615  2.1649 -0.7527  0.5111
 3782TIP3   OH232836   1.462   3.852  12.777  0.7149 -0.5125 -0.2165
 3782TIP3    H132837   1.529   3.870  12.842 -0.2033  0.9016  0.3879
 3782TIP3    H232838   1.416   3.935  12.765 -1.1460 -1.4934 -0.3613
 3783TIP3   OH232839   3.037   3.568  13.229 -0.1152 -0.1058 -0.6392
 3783TIP3    H132840   2.966   3.506  13.213  0.7352 -1.7296  1.3819
 3783TIP3    H232841   3.019   3.602  13.317  1.5394 -0.4805 -0.1330
 3784TIP3   OH232842   3.175   2.897  11.175  0.1585  0.3050 -0.6152
 3784TIP3    H132843   3.208   2.845  11.102 -0.8834  0.7835 -1.4676
 3784TIP3    H232844   3.096   2.852  11.203  0.6519  0.0211  0.3736
 3785TIP3   OH232845   2.569   1.914   0.671  0.0092 -0.4498 -0.2918
 3785TIP3    H132846   2.598   2.003   0.690  1.8241 -1.4546  2.1145
 3785TIP3    H232847   2.518   1.888   0.747 -0.6974 -1.4346 -1.0594
 3786TIP3   OH232848   1.903   4.400   4.325  0.5482 -0.1826  0.3350
 3786TIP3    H132849   1.901   4.415   4.231 -0.5768 -3.0892 -0.2169
 3786TIP3    H232850   1.826   4.345   4.342  0.2982  0.8510  3.1005
 3787TIP3   OH232851   4.468   0.483   0.190 -0.5792  0.0806  0.0956
 3787TIP3    H132852   4.518   0.563   0.176 -0.4386  0.4060  2.1920
 3787TIP3    H232853   4.522   0.414   0.150  1.0286  0.5856  1.2802
 3788TIP3   OH232854   2.184   2.023  13.884 -0.2579  0.0458 -0.4173
 3788TIP3    H132855   2.230   2.010  13.967 -0.3885 -1.3179 -0.5285
 3788TIP3    H232856   2.160   2.115  13.883 -1.8147 -0.2605  1.8787
 3789TIP3   OH232857   6.777   2.740  16.300  0.2353 -0.1243 -0.0495
 3789TIP3    H132858   6.749   2.675  16.365 -0.7272  1.6271  1.3638
 3789TIP3    H232859   6.741   2.823  16.332  2.1547  1.2758 -1.3373
 3790TIP3   OH232860   3.604   1.822   3.081 -0.5535 -0.1001 -0.4768
 3790TIP3    H132861   3.550   1.876   3.139 -1.8301  0.1793 -1.8535
 3790TIP3    H232862   3.638   1.883   3.016 -1.9119 -0.8522 -1.9744
 3791TIP3   OH232863   1.582   2.684  14.240  0.1905 -0.0337 -0.3925
 3791TIP3    H132864   1.492   2.677  14.272  0.6627  0.6201  1.1898
 3791TIP3    H232865   1.574   2.724  14.153 -1.0450  0.0418 -0.2575
 3792TIP3   OH232866   6.202   2.190   5.503  0.6114  0.4047 -0.9179
 3792TIP3    H132867   6.199   2.239   5.421  1.0242 -1.7060 -2.2880
 3792TIP3    H232868   6.134   2.123   5.493  1.1116 -0.2927  0.1596
 3793TIP3   OH232869   1.885   5.157   4.687 -0.8456 -0.1449 -0.3052
 3793TIP3    H132870   1.980   5.147   4.686 -0.5535  1.9435  0.1518
 3793TIP3    H232871   1.865   5.184   4.777 -1.8286 -0.3202 -0.4633
 3794TIP3   OH232872   1.472   2.966  13.764 -0.6746 -0.4613 -0.4932
 3794TIP3    H132873   1.524   3.043  13.745 -0.5510 -0.6401 -0.8898
 3794TIP3    H232874   1.383   2.990  13.740 -0.4805 -0.7691 -1.5605
 3795TIP3   OH232875   2.356   0.665   2.230 -0.2341  0.2090 -0.7735
 3795TIP3    H132876   2.352   0.574   2.259 -0.9143 -0.0542 -1.6581
 3795TIP3    H232877   2.408   0.709   2.297 -0.1861 -0.7578 -0.1575
 3796TIP3   OH232878   5.957   2.735   2.836  0.2114  0.6345 -0.5197
 3796TIP3    H132879   5.962   2.798   2.908  0.3098 -0.6625  0.6286
 3796TIP3    H232880   6.048   2.713   2.818  0.1049 -0.7986  0.5592
 3797TIP3   OH232881   6.431   4.672  12.169  0.3729 -0.7701  0.0722
 3797TIP3    H132882   6.346   4.715  12.155  1.3878  1.1345 -0.6272
 3797TIP3    H232883   6.426   4.592  12.116  0.0704  0.8226 -2.4728
 3798TIP3   OH232884   5.853   3.624  13.654 -0.1855 -0.2023 -0.3655
 3798TIP3    H132885   5.759   3.606  13.652 -0.1920 -0.1611 -0.4231
 3798TIP3    H232886   5.859   3.720  13.648 -0.2362  0.0136  2.0855
 3799TIP3   OH232887   1.860   3.791   0.717 -0.2062 -0.3851  0.2035
 3799TIP3    H132888   1.858   3.714   0.660 -0.2637 -0.3070  0.0993
 3799TIP3    H232889   1.948   3.826   0.707 -0.1562 -0.4807  0.3087
 3800TIP3   OH232890   4.273   4.200  15.153  0.0693  0.2665 -0.3045
 3800TIP3    H132891   4.362   4.235  15.155  0.1906  0.6655 -4.6961
 3800TIP3    H232892   4.229   4.247  15.083 -2.8261 -1.7182 -0.0177
 3801TIP3   OH232893   0.536   6.587   5.730  0.3382 -0.7661 -0.2106
 3801TIP3    H132894   0.590   6.539   5.793 -0.3419 -0.2655  0.7922
 3801TIP3    H232895   0.597   6.639   5.679  0.8005 -0.1836  0.9234
 3802TIP3   OH232896   6.124   6.425   5.838  0.5722  0.0757  0.3681
 3802TIP3    H132897   6.029   6.413   5.843  0.7063 -1.8097 -0.5121
 3802TIP3    H232898   6.150   6.454   5.925 -0.8607  1.1142  0.4772
 3803TIP3   OH232899   0.550   3.059   2.802 -0.1508 -0.1458  0.4083
 3803TIP3    H132900   0.531   3.106   2.883 -1.2389  0.6448 -0.2770
 3803TIP3    H232901   0.636   3.091   2.775  1.4179 -2.2431  2.4833
 3804TIP3   OH232902   0.707   4.378   4.133  0.2459  0.4769 -0.2354
 3804TIP3    H132903   0.698   4.341   4.221 -0.2282 -1.2995 -0.9798
 3804TIP3    H232904   0.617   4.390   4.103  0.3274 -1.6513 -1.5068
 3805TIP3   OH232905   6.505   1.891  12.831 -0.4663  0.2377 -0.7634
 3805TIP3    H132906   6.559   1.964  12.860 -0.7870  0.5431 -0.9274
 3805TIP3    H232907   6.471   1.918  12.746 -0.0598 -0.3838 -1.1272
 3806TIP3   OH232908   5.281   0.646   4.893 -0.0897 -0.1134 -0.1922
 3806TIP3    H132909   5.239   0.614   4.814  0.3738  1.1054 -0.9571
 3806TIP3    H232910   5.217   0.705   4.933  0.9277  2.0359 -1.5526
 3807TIP3   OH232911   1.151   0.757   3.200  0.0617  0.4217 -0.1384
 3807TIP3    H132912   1.061   0.777   3.173 -0.3785 -0.1342  0.8564
 3807TIP3    H232913   1.144   0.740   3.294  0.8537 -1.5988 -0.4061
 3808TIP3   OH232914   2.064   5.767  10.531  0.0190  0.0780  0.0072
 3808TIP3    H132915   2.001   5.703  10.499  0.3838 -0.0112 -0.5393
 3808TIP3    H232916   2.126   5.716  10.584  0.9226 -0.2109 -1.2910
 3809TIP3   OH232917   3.926   5.396  13.534 -0.7776 -0.3301  0.4118
 3809TIP3    H132918   3.967   5.391  13.448  0.6785  1.2623  0.9503
 3809TIP3    H232919   3.953   5.315  13.578 -2.9970 -2.0400 -1.1444
 3810TIP3   OH232920   4.191   0.887   1.314  0.3566 -0.4519  0.2478
 3810TIP3    H132921   4.161   0.811   1.363  3.8482  0.1207  3.7326
 3810TIP3    H232922   4.248   0.850   1.246 -3.0857 -1.1123 -2.6257
 3811TIP3   OH232923   4.886   4.013   5.067 -0.5246 -1.2005  0.1047
 3811TIP3    H132924   4.977   4.041   5.080 -0.7672 -0.6895  0.7572
 3811TIP3    H232925   4.891   3.944   5.001  0.3643 -1.3369  0.3074
 3812TIP3   OH232926   2.947   0.711  11.612 -0.3689  0.1998  0.0891
 3812TIP3    H132927   2.989   0.762  11.681 -1.2600 -1.6312  2.0907
 3812TIP3    H232928   2.876   0.665  11.656 -0.7454 -1.3382 -1.9924
 3813TIP3   OH232929   4.742   6.353  10.788  0.4953 -0.3271 -0.3855
 3813TIP3    H132930   4.751   6.447  10.771  2.0547 -0.3677  0.0424
 3813TIP3    H232931   4.668   6.346  10.848  1.2302  0.7775  0.6862
 3814TIP3   OH232932   3.617   0.256  14.295 -0.6543  0.1477  0.0106
 3814TIP3    H132933   3.664   0.271  14.377 -0.2842  0.3226 -0.2289
 3814TIP3    H232934   3.652   0.173  14.262 -1.1601 -0.1731  0.2735
 3815TIP3   OH232935   6.593   4.941   2.257  0.7304 -0.1353  0.5251
 3815TIP3    H132936   6.618   5.033   2.269 -0.1615  0.2758 -0.5946
 3815TIP3    H232937   6.526   4.943   2.188  1.6115 -1.7462 -0.4436
 3816TIP3   OH232938   2.857   5.447   6.486  0.0749 -0.1380 -0.2350
 3816TIP3    H132939   2.899   5.410   6.564  0.2599 -1.6085 -0.9871
 3816TIP3    H232940   2.811   5.372   6.447  0.2451  0.4979 -1.6979
 3817TIP3   OH232941   2.696   6.470   0.180 -0.1389 -0.0113 -0.0178
 3817TIP3    H132942   2.688   6.512   0.094 -0.6413  0.1767  0.1123
 3817TIP3    H232943   2.748   6.532   0.232  1.0875 -0.6234 -0.4927
 3818TIP3   OH232944   3.828   2.070   1.678 -0.0017  0.1679 -0.4827
 3818TIP3    H132945   3.733   2.061   1.685 -0.2245  2.0024 -0.6761
 3818TIP3    H232946   3.855   2.105   1.764  0.5257 -0.4109 -0.3999
 3819TIP3   OH232947   4.683   5.229   2.241  0.0360 -0.4090 -0.7702
 3819TIP3    H132948   4.602   5.258   2.284 -0.0394 -2.4350  0.6092
 3819TIP3    H232949   4.663   5.141   2.210  1.8498 -1.1439  0.0396
 3820TIP3   OH232950   1.180   4.636   3.164  0.0129  0.1885 -0.1630
 3820TIP3    H132951   1.106   4.656   3.221 -1.1554 -2.8130 -0.4357
 3820TIP3    H232952   1.236   4.713   3.169 -1.3724  1.1541  2.8801
 3821TIP3   OH232953   3.055   3.156  12.327  0.2652  0.5082  0.6720
 3821TIP3    H132954   3.086   3.246  12.335  0.8934  0.1672  2.3710
 3821TIP3    H232955   3.098   3.109  12.398  0.3615 -1.2629 -0.4984
 3822TIP3   OH232956   0.421   3.528   1.917 -0.4406  0.1920 -0.1154
 3822TIP3    H132957   0.334   3.499   1.944  0.2539 -1.1916  0.7574
 3822TIP3    H232958   0.439   3.478   1.837 -0.4319  0.4542 -0.2785
 3823TIP3   OH232959   4.682   2.238  15.121  0.4125  0.5662 -0.2140
 3823TIP3    H132960   4.705   2.171  15.056  0.8269  0.4503  0.0540
 3823TIP3    H232961   4.648   2.189  15.196  0.9170  0.6461  0.0656
 3824TIP3   OH232962   1.169   0.234  13.107 -0.3518 -0.1484  0.0925
 3824TIP3    H132963   1.111   0.277  13.044  0.5212  1.1506  0.1549
 3824TIP3    H232964   1.257   0.252  13.075  0.0745 -0.3657  1.1271
 3825TIP3   OH232965   3.212   5.376  16.223 -0.0668  1.0760  0.6834
 3825TIP3    H132966   3.290   5.321  16.219 -1.7361 -1.3918 -0.4949
 3825TIP3    H232967   3.226   5.442  16.155 -0.2775 -1.3048 -1.8374
 3826TIP3   OH232968   1.158   6.636   4.048  0.0597  0.1575 -0.1653
 3826TIP3    H132969   1.212   6.557   4.037  1.0375  1.0009 -1.9525
 3826TIP3    H232970   1.212   6.694   4.101  0.4891  0.6021 -1.0695
 3827TIP3   OH232971   1.648   6.448  13.148 -0.3741 -0.1083 -0.2441
 3827TIP3    H132972   1.562   6.413  13.123  0.5659 -2.8115  0.0582
 3827TIP3    H232973   1.709   6.407  13.087  0.9519  0.0932  0.9099
 3828TIP3   OH232974   1.569   4.887   4.440 -0.1494  0.3034  0.1505
 3828TIP3    H132975   1.626   4.811   4.453 -0.9619 -0.4318 -0.4393
 3828TIP3    H232976   1.484   4.849   4.416 -1.1228  1.3404  1.7691
 3829TIP3   OH232977   2.389   1.173  12.311 -0.1734  0.0476  0.0750
 3829TIP3    H132978   2.381   1.109  12.382  4.3928 -1.6828 -0.6128
 3829TIP3    H232979   2.402   1.120  12.232 -0.6927  1.9098 -1.3387
 3830TIP3   OH232980   2.786   1.147  14.841 -0.4711 -0.9220  0.1380
 3830TIP3    H132981   2.718   1.135  14.775 -0.1971 -0.9398 -0.1411
 3830TIP3    H232982   2.813   1.238  14.831  0.2439 -1.1869 -0.4242
 3831TIP3   OH232983   4.624   0.451  11.176 -0.1972 -0.4645  0.6258
 3831TIP3    H132984   4.622   0.486  11.265 -2.2041 -0.7319  0.7356
 3831TIP3    H232985   4.621   0.356  11.188 -2.2066 -0.4751  0.3001
 3832TIP3   OH232986   1.534   0.564  15.101 -0.1675  0.3443 -0.0284
 3832TIP3    H132987   1.602   0.629  15.122  0.0653 -0.3214  1.3394
 3832TIP3    H232988   1.552   0.490  15.159  0.5638 -1.6748 -2.6493
 3833TIP3   OH232989   0.303   4.686  11.429 -0.0914 -0.6740 -0.2716
 3833TIP3    H132990   0.358   4.765  11.422  0.4893 -1.1021 -0.6495
 3833TIP3    H232991   0.343   4.636  11.501  0.5242 -1.3688 -1.0749
 3834TIP3   OH232992   2.217   0.486   1.954 -0.0191 -0.4479  0.1673
 3834TIP3    H132993   2.305   0.459   1.928  0.1470 -0.2245  0.4932
 3834TIP3    H232994   2.185   0.538   1.880 -0.2549 -1.3361 -0.3656
 3835TIP3   OH232995   3.933   4.606   0.428  0.2685 -0.5720  0.4839
 3835TIP3    H132996   3.974   4.520   0.421 -1.7954 -1.6485  1.0095
 3835TIP3    H232997   4.007   4.667   0.436  1.7893 -2.2124 -0.4350
 3836TIP3   OH232998   5.360   1.941   3.077 -1.0409 -0.2043 -0.0123
 3836TIP3    H132999   5.305   1.864   3.093 -1.1377 -0.2428 -0.5041
 3836TIP3    H233000   5.299   2.008   3.046 -0.7051 -0.5041 -1.3805
 3837TIP3   OH233001   6.817   4.283   3.008  0.0970 -0.2432  0.6498
 3837TIP3    H133002   6.875   4.226   3.058  1.8836  0.1751 -0.8526
 3837TIP3    H233003   6.831   4.370   3.045  0.0197 -0.2303  0.6488
 3838TIP3   OH233004   4.018   6.653  12.601 -0.2068 -0.1153  0.4209
 3838TIP3    H133005   3.946   6.677  12.543 -0.9623 -2.0406  0.4781
 3838TIP3    H233006   3.975   6.623  12.681  0.7166 -0.0571  0.9495
 3839TIP3   OH233007   0.157   2.510  11.742  0.1690 -0.7863  0.7089
 3839TIP3    H133008   0.176   2.519  11.648  0.4341  0.8146  0.8911
 3839TIP3    H233009   0.239   2.482  11.780  0.0597 -1.4499  0.4686
 3840TIP3   OH233010   1.737   6.271   5.834 -0.5683  0.0650 -0.2369
 3840TIP3    H133011   1.792   6.347   5.853  0.2931 -0.2701 -1.2173
 3840TIP3    H233012   1.658   6.284   5.885  0.6625  0.2675  1.7353
 3841TIP3   OH233013   0.174   3.900  15.139  0.4443 -0.6463 -0.3327
 3841TIP3    H133014   0.257   3.890  15.186 -1.0320  0.4161  2.7406
 3841TIP3    H233015   0.130   3.815  15.150  0.3817 -0.6206 -0.3863
 3842TIP3   OH233016   1.159   3.126   0.605 -0.3528  0.6497 -0.0363
 3842TIP3    H133017   1.073   3.086   0.622 -0.7125  0.7393 -1.5732
 3842TIP3    H233018   1.159   3.205   0.659 -0.6960 -0.0108  0.9800
 3843TIP3   OH233019   3.703   3.934  13.233 -0.1071  0.2057  0.2722
 3843TIP3    H133020   3.793   3.949  13.204 -0.5761  1.1118 -0.7676
 3843TIP3    H233021   3.692   3.991  13.310 -0.1596  1.0123 -0.3277
 3844TIP3   OH233022   2.094   1.209  15.012  0.4679  0.0869 -0.0862
 3844TIP3    H133023   2.138   1.275  15.066 -0.1473 -0.5563  1.2247
 3844TIP3    H233024   2.093   1.130  15.065 -2.2715  0.0672 -0.0422
 3845TIP3   OH233025   3.567   0.265  11.562 -0.2395  0.1939  0.7495
 3845TIP3    H133026   3.557   0.178  11.601  0.0467 -0.5998 -0.8809
 3845TIP3    H233027   3.478   0.296  11.549 -0.3920 -0.5544 -0.1187
 3846TIP3   OH233028   3.717   3.319   5.530  0.5062 -0.0315  0.0418
 3846TIP3    H133029   3.648   3.385   5.520 -1.4590 -1.8224  0.9820
 3846TIP3    H233030   3.690   3.247   5.474  2.2329 -0.3748 -0.4107
 3847TIP3   OH233031   0.110   3.689   0.798 -0.1895 -0.4493  0.2988
 3847TIP3    H133032   0.196   3.697   0.839  0.9650 -1.0472 -1.8303
 3847TIP3    H233033   0.105   3.597   0.771 -0.4734  0.0858 -1.6113
 3848TIP3   OH233034   4.575   4.152   3.634 -0.0450 -0.3227 -1.0314
 3848TIP3    H133035   4.561   4.144   3.729  0.5810  1.5633 -0.7396
 3848TIP3    H233036   4.633   4.079   3.612 -0.6597 -1.1270 -0.0917
 3849TIP3   OH233037   5.732   1.791   0.684 -0.3518  0.0408  0.4490
 3849TIP3    H133038   5.665   1.724   0.678 -1.2380  0.7789  1.5000
 3849TIP3    H233039   5.815   1.743   0.687 -0.6369 -0.8360 -2.5779
 3850TIP3   OH233040   0.541   0.110  13.341 -0.0704  0.4008 -0.3524
 3850TIP3    H133041   0.606   0.176  13.365  1.0954 -0.9754  0.4466
 3850TIP3    H233042   0.458   0.145  13.374  0.3897  1.7880 -0.6127
 3851TIP3   OH233043   6.756   2.289   2.283  0.2447 -0.6559  0.2653
 3851TIP3    H133044   6.816   2.362   2.292  0.4682 -0.9668  1.4393
 3851TIP3    H233045   6.717   2.279   2.370 -0.8021 -1.0615 -0.2295
 3852TIP3   OH233046   0.235   1.245   0.109 -0.3485 -0.3511 -0.6258
 3852TIP3    H133047   0.242   1.305   0.184  1.9696 -0.0350 -1.0140
 3852TIP3    H233048   0.317   1.196   0.110 -0.2573 -0.3501 -2.9257
 3853TIP3   OH233049   4.304   6.345   2.158 -0.8812 -0.2859  0.0441
 3853TIP3    H133050   4.293   6.262   2.205  1.2326 -0.5823  0.1448
 3853TIP3    H233051   4.275   6.326   2.069 -0.8570 -1.0199  0.1838
 3854TIP3   OH233052   1.563   3.605   2.550 -0.2755  0.0824  0.2881
 3854TIP3    H133053   1.585   3.652   2.470 -2.7275  1.0594  0.1006
 3854TIP3    H233054   1.512   3.668   2.602 -0.1421 -1.0636  1.8957
 3855TIP3   OH233055   6.311   0.402  11.440  0.0669 -0.3242  0.0380
 3855TIP3    H133056   6.321   0.488  11.397 -0.0414 -0.8739 -1.1459
 3855TIP3    H233057   6.347   0.414  11.527 -1.2679  1.3359  0.4124
 3856TIP3   OH233058   3.939   1.947  11.633 -0.2039  0.3381  0.1693
 3856TIP3    H133059   4.001   1.953  11.706  1.7407  2.8115 -1.5295
 3856TIP3    H233060   3.990   1.913  11.560 -1.0564  1.4742 -1.0135
 3857TIP3   OH233061   3.991   3.632   5.005  0.0106 -0.2416  0.2678
 3857TIP3    H133062   3.954   3.611   4.920  1.1448  0.7975 -0.5126
 3857TIP3    H233063   3.953   3.717   5.028  1.0727  0.3405 -0.0613
 3858TIP3   OH233064   2.718   6.098  14.835  0.1555  0.3440  0.1442
 3858TIP3    H133065   2.639   6.097  14.889 -0.8185  3.7375 -0.9978
 3858TIP3    H233066   2.690   6.059  14.752  0.3944 -0.6469  0.5112
 3859TIP3   OH233067   5.402   2.971   4.230  0.2473 -0.7908  0.4387
 3859TIP3    H133068   5.336   2.907   4.203 -1.9106  1.8130 -0.9059
 3859TIP3    H233069   5.480   2.948   4.178 -0.0886 -2.8768  0.7699
 3860TIP3   OH233070   4.731   0.546   2.694 -0.0495  0.0804  0.1681
 3860TIP3    H133071   4.761   0.465   2.653 -2.0064 -0.0454 -1.1558
 3860TIP3    H233072   4.753   0.536   2.786  2.5340 -0.5837 -0.4449
 3861TIP3   OH233073   4.544   5.745  15.174  0.2380 -0.3300 -0.3870
 3861TIP3    H133074   4.577   5.835  15.175  0.4074 -0.3790 -1.0437
 3861TIP3    H233075   4.548   5.717  15.265 -0.3603  0.5183 -0.0921
 3862TIP3   OH233076   4.827   1.044   1.719  0.0813 -0.0759 -0.3735
 3862TIP3    H133077   4.739   1.013   1.698 -0.3490  0.3865  0.6865
 3862TIP3    H233078   4.839   1.022   1.811  0.9183  0.2357 -0.4006
 3863TIP3   OH233079   6.010   2.064   2.919 -0.0938  0.0802 -0.3869
 3863TIP3    H133080   5.962   2.134   2.874  1.2604  0.0107 -2.0574
 3863TIP3    H233081   5.970   1.983   2.887  0.7458  0.0362 -1.3927
 3864TIP3   OH233082   1.084   5.617  12.550  0.6062  0.3236  0.6000
 3864TIP3    H133083   1.013   5.635  12.611 -0.2276 -0.3366 -0.1442
 3864TIP3    H233084   1.146   5.689  12.563 -0.6911  1.4966  0.5206
 3865TIP3   OH233085   2.265   0.794  13.762 -0.1929 -0.2034 -0.2821
 3865TIP3    H133086   2.334   0.742  13.720 -0.8405  1.1796 -3.3682
 3865TIP3    H233087   2.301   0.820  13.846  2.2232 -1.2336 -0.9346
 3866TIP3   OH233088   6.129   3.187  13.676  0.3801 -0.6216 -0.5657
 3866TIP3    H133089   6.065   3.252  13.704  1.4885 -0.0653  0.8183
 3866TIP3    H233090   6.093   3.103  13.705  0.5621 -0.2452  0.8094
 3867TIP3   OH233091   5.903   6.181  13.260  0.6550 -0.7264  0.0561
 3867TIP3    H133092   5.937   6.093  13.278  0.2552 -0.6033  1.5582
 3867TIP3    H233093   5.808   6.171  13.260  0.5853 -0.2018  0.8925
 3868TIP3   OH233094   1.568   5.418   1.990  0.3885 -0.3373 -0.5691
 3868TIP3    H133095   1.623   5.381   2.059 -0.5053 -3.5530 -1.3875
 3868TIP3    H233096   1.630   5.453   1.927  1.2811  0.5816  0.7717
 3869TIP3   OH233097   3.895   0.706  16.663 -0.2822 -0.1472 -0.4805
 3869TIP3    H133098   3.876   0.782  16.608 -1.9198  0.7737  1.2566
 3869TIP3    H233099   3.990   0.706  16.671 -0.1712  1.0032 -1.4954
 3870TIP3   OH233100   5.082   5.278   2.750  0.0607  0.1893 -0.2392
 3870TIP3    H133101   5.177   5.274   2.761  0.2380  0.9954 -1.3014
 3870TIP3    H233102   5.065   5.235   2.666 -0.7830 -2.0268  0.9915
 3871TIP3   OH233103   4.971   0.212  11.944 -0.2697  0.1834  0.4897
 3871TIP3    H133104   4.901   0.175  11.890  0.4287 -1.1616  0.4691
 3871TIP3    H233105   4.946   0.304  11.955 -0.7514  0.3616 -1.5961
 3872TIP3   OH233106   1.785   6.609   5.243 -0.4247  0.0945  0.7571
 3872TIP3    H133107   1.790   6.591   5.149 -1.6946  1.9321  0.2565
 3872TIP3    H233108   1.756   6.527   5.282 -1.3313 -0.3069 -0.6815
 3873TIP3   OH233109   1.427   0.877   3.308 -0.7183  0.6084  0.3084
 3873TIP3    H133110   1.500   0.816   3.314 -0.0474  1.4264  0.6194
 3873TIP3    H233111   1.357   0.836   3.359 -1.0438 -0.9409 -1.3106
 3874TIP3   OH233112   5.995   2.986  15.448  0.2893  0.6031  0.1537
 3874TIP3    H133113   5.926   2.994  15.382  0.3027  0.0666  0.0666
 3874TIP3    H233114   5.949   2.991  15.532  0.2959  1.4946  0.1082
 3875TIP3   OH233115   1.753   1.424   5.420 -0.3038  0.4354  0.1144
 3875TIP3    H133116   1.826   1.409   5.361 -0.2268 -1.1443  0.5848
 3875TIP3    H233117   1.793   1.431   5.507 -0.5142  1.8191  0.1337
 3876TIP3   OH233118   0.746   0.200  11.820  0.2682  0.1982 -0.2074
 3876TIP3    H133119   0.686   0.147  11.768 -0.1714  1.0931 -0.6242
 3876TIP3    H233120   0.832   0.162  11.803  0.0019 -0.1669 -0.7666
 3877TIP3   OH233121   6.210   4.388  13.978 -0.4431 -0.8115 -0.1869
 3877TIP3    H133122   6.240   4.441  14.051 -1.6392  0.0320 -0.2805
 3877TIP3    H233123   6.271   4.314  13.975  2.8181  1.7129 -1.5726
 3878TIP3   OH233124   2.313   4.931   3.322  0.8123 -0.4145 -0.1003
 3878TIP3    H133125   2.338   4.968   3.407  2.2532  0.0799 -0.7088
 3878TIP3    H233126   2.352   4.843   3.322  0.4717 -0.5684 -0.1045
 3879TIP3   OH233127   2.616   3.804  16.597  0.0631 -0.2132 -0.5858
 3879TIP3    H133128   2.707   3.810  16.567 -0.3644  1.4621 -1.6807
 3879TIP3    H233129   2.613   3.860  16.675 -0.0062 -0.3847 -0.4648
 3880TIP3   OH233130   4.422   5.438   1.078  0.0952 -0.1398  0.1465
 3880TIP3    H133131   4.420   5.460   1.171 -0.6152 -0.3485  0.1870
 3880TIP3    H233132   4.514   5.419   1.060  0.2602  0.0469  0.7719
 3881TIP3   OH233133   3.426   0.948  14.165 -0.2159 -0.1605  0.2612
 3881TIP3    H133134   3.521   0.938  14.169 -0.0957  0.1322 -1.2231
 3881TIP3    H233135   3.411   1.016  14.100 -1.4765 -1.5387 -0.9930
 3882TIP3   OH233136   6.256   2.153   1.973 -1.3300 -0.0253 -0.3288
 3882TIP3    H133137   6.270   2.059   1.960 -1.4756 -0.4544  2.1188
 3882TIP3    H233138   6.344   2.189   1.976 -1.2716 -0.0762 -1.2648
 3883TIP3   OH233139   2.734   3.592  13.698 -0.5594  0.3540 -0.2702
 3883TIP3    H133140   2.772   3.680  13.688  0.2979 -0.0089 -0.2914
 3883TIP3    H233141   2.705   3.589  13.789 -0.5434  0.6414 -0.2544
 3884TIP3   OH233142   4.587   2.457   5.460 -0.4703 -0.1415 -0.8345
 3884TIP3    H133143   4.572   2.540   5.504 -2.0380 -1.3755  1.1608
 3884TIP3    H233144   4.627   2.480   5.377 -0.4316  2.5542 -0.1431
 3885TIP3   OH233145   0.085   5.197   3.505  0.0585 -0.0570 -0.7541
 3885TIP3    H133146   0.134   5.164   3.429  1.1368 -1.6176  0.5289
 3885TIP3    H233147   0.153   5.224   3.567 -0.4712 -3.2815  1.5183
 3886TIP3   OH233148   2.633   4.499   4.561  0.1384  0.6137  0.0356
 3886TIP3    H133149   2.590   4.577   4.526  0.2925  1.1587  1.0398
 3886TIP3    H233150   2.580   4.475   4.637  1.0798  0.7471  0.7405
 3887TIP3   OH233151   0.551   3.063   2.385 -0.0711 -0.5451  0.1814
 3887TIP3    H133152   0.516   3.061   2.296  0.1597  0.8918  0.0345
 3887TIP3    H233153   0.549   2.972   2.414 -0.5909 -0.9649 -1.1192
 3888TIP3   OH233154   5.055   1.448   5.290 -0.0663 -0.6679  0.2039
 3888TIP3    H133155   5.117   1.455   5.217 -0.1460  0.0593  0.2050
 3888TIP3    H233156   5.037   1.538   5.315 -0.1432 -0.9134  1.0423
 3889TIP3   OH233157   5.258   4.618  15.127  0.1897  0.6088  0.6473
 3889TIP3    H133158   5.317   4.682  15.087 -1.0238  0.9818 -0.6294
 3889TIP3    H233159   5.236   4.655  15.212  0.0580  1.5509  0.2110
 3890TIP3   OH233160   1.983   4.434  16.502  0.2006  0.5751  0.1463
 3890TIP3    H133161   2.036   4.365  16.543 -1.0761 -0.6513 -0.1822
 3890TIP3    H233162   1.995   4.421  16.408 -0.5608  0.3834  0.0737
 3891TIP3   OH233163   6.341   4.048  13.926  0.0345  0.0348 -0.0666
 3891TIP3    H133164   6.397   4.031  14.002 -0.4999  0.0114  0.3373
 3891TIP3    H233165   6.265   3.991  13.941  0.0062 -0.0996 -0.7142
 3892TIP3   OH233166   4.892   3.470  17.084  0.2392 -0.6337 -0.2260
 3892TIP3    H133167   4.983   3.450  17.063  0.1873  0.0227 -1.1572
 3892TIP3    H233168   4.897   3.549  17.139  0.2633 -1.0831  0.4309
 3893TIP3   OH233169   6.207   4.162  12.449  0.3085  0.5394  0.2264
 3893TIP3    H133170   6.166   4.222  12.511  1.4609 -1.1699  2.7909
 3893TIP3    H233171   6.271   4.216  12.403  1.0024  1.4446  2.1491
 3894TIP3   OH233172   4.783   2.644   0.430  0.4911 -0.0398 -0.1659
 3894TIP3    H133173   4.697   2.646   0.390  0.6863 -1.8985 -0.7685
 3894TIP3    H233174   4.767   2.614   0.520  0.3902  1.0089  0.1830
 3895TIP3   OH233175   1.946   4.917  16.974 -0.2164 -0.4109 -0.0797
 3895TIP3    H133176   1.992   4.942  16.893 -1.6191 -0.8205 -1.0284
 3895TIP3    H233177   1.916   5.000  17.011  2.2607  0.0065  1.2302
 3896TIP3   OH233178   4.336   3.856   0.543 -0.4560  0.6034  0.0612
 3896TIP3    H133179   4.400   3.870   0.473 -0.3337  2.2058  0.4524
 3896TIP3    H233180   4.303   3.768   0.528  2.7142 -0.8280  0.5396
 3897TIP3   OH233181   4.287   1.550   4.539  0.4276  0.2601  0.4442
 3897TIP3    H133182   4.325   1.591   4.461  0.3479  0.0346  0.2862
 3897TIP3    H233183   4.283   1.621   4.604 -3.9139  1.8482 -1.1675
 3898TIP3   OH233184   0.877   0.880  10.554 -0.8840 -0.0877  0.4673
 3898TIP3    H133185   0.926   0.816  10.501 -1.4618 -1.2096  1.2539
 3898TIP3    H233186   0.899   0.964  10.514 -2.4836 -0.9582 -2.5612
 3899TIP3   OH233187   4.621   3.864  12.075 -0.2960  0.1569  0.5847
 3899TIP3    H133188   4.662   3.789  12.032  2.1852  2.2519 -1.0113
 3899TIP3    H233189   4.634   3.849  12.168 -0.3753 -1.6276  0.3396
 3900TIP3   OH233190   5.487   1.369  15.163 -0.0379 -0.0576 -0.5380
 3900TIP3    H133191   5.446   1.342  15.245 -0.0261 -0.8807 -0.7921
 3900TIP3    H233192   5.548   1.439  15.188 -1.6412  1.2498 -0.1697
 3901TIP3   OH233193   5.809   3.592  13.140 -0.5695 -0.5123 -0.6541
 3901TIP3    H133194   5.780   3.683  13.137  0.3274 -0.2079 -0.3502
 3901TIP3    H233195   5.841   3.580  13.229  0.0310 -0.8904 -0.9144
 3902TIP3   OH233196   5.922   5.533   3.047 -0.0193  0.3381  0.6630
 3902TIP3    H133197   5.920   5.468   3.118 -0.0441 -0.9647 -0.4865
 3902TIP3    H233198   5.981   5.601   3.079 -0.0155 -0.2298  1.9279
 3903TIP3   OH233199   5.651   3.824  10.443 -0.2618  0.6742  0.3915
 3903TIP3    H133200   5.742   3.853  10.437  0.3470 -1.2564 -0.5990
 3903TIP3    H233201   5.601   3.892  10.399  1.2672 -0.3610 -3.3194
 3904TIP3   OH233202   5.899   1.678   1.526  0.6877  0.0729  0.2059
 3904TIP3    H133203   5.872   1.770   1.525  1.1305  0.2804  2.2183
 3904TIP3    H233204   5.927   1.660   1.437 -0.8333  1.4418 -0.6003
 3905TIP3   OH233205   2.435   1.105   4.211 -0.4061 -0.0798 -0.0197
 3905TIP3    H133206   2.366   1.171   4.201  0.6774  1.4951  2.0015
 3905TIP3    H233207   2.389   1.026   4.240 -1.4728  0.7320  0.5800
 3906TIP3   OH233208   4.652   5.199   3.425  0.1990 -0.0635  0.3991
 3906TIP3    H133209   4.669   5.146   3.347  0.8374 -1.7733  1.6582
 3906TIP3    H233210   4.676   5.288   3.399 -1.0293 -0.2916 -1.8095
 3907TIP3   OH233211   0.816   3.543   5.894 -0.5964  0.8055 -0.1232
 3907TIP3    H133212   0.741   3.507   5.847 -0.2294 -1.0944  0.6589
 3907TIP3    H233213   0.892   3.510   5.845 -0.2448  1.6409 -0.1581
 3908TIP3   OH233214   0.559   1.976  14.880 -0.4125 -0.2976  0.3688
 3908TIP3    H133215   0.598   2.055  14.917 -0.9199 -0.3648  1.0946
 3908TIP3    H233216   0.628   1.936  14.827 -0.0979  0.5361  0.1463
 3909TIP3   OH233217   2.551   2.427   6.257  0.6268 -0.7292  0.1855
 3909TIP3    H133218   2.624   2.372   6.284  1.0670 -0.8045 -1.0983
 3909TIP3    H233219   2.566   2.510   6.301  1.7363 -0.5984 -0.4032
 3910TIP3   OH233220   4.801   2.496  16.053 -0.8792  0.0767  0.1875
 3910TIP3    H133221   4.779   2.569  15.995  1.3041 -0.1981 -1.1209
 3910TIP3    H233222   4.775   2.418  16.004 -0.0289 -0.1142  0.0167
 3911TIP3   OH233223   5.136   0.877  16.748 -0.4614 -0.6265  0.3239
 3911TIP3    H133224   5.184   0.858  16.667  0.1948 -0.5963  0.6998
 3911TIP3    H233225   5.177   0.821  16.814 -1.2117 -0.8938  0.5729
 3912TIP3   OH233226   2.993   5.378   0.496 -0.5531  0.2281  0.0855
 3912TIP3    H133227   3.040   5.351   0.417  0.2250  0.1988  0.5504
 3912TIP3    H233228   3.032   5.326   0.566 -0.9245  0.5859  0.5660
 3913TIP3   OH233229   1.589   6.676  16.242 -0.8250  0.6118  0.6444
 3913TIP3    H133230   1.639   6.754  16.219 -0.8298  0.1521 -1.0618
 3913TIP3    H233231   1.638   6.637  16.314 -0.3264  1.7046  0.9212
 3914TIP3   OH233232   5.443   5.747   5.055 -0.1959 -0.2407 -0.2261
 3914TIP3    H133233   5.426   5.742   4.961 -0.7312 -0.9196 -0.1045
 3914TIP3    H233234   5.419   5.837   5.079  1.5462  0.4674 -1.0182
 3915TIP3   OH233235   0.046   2.776   2.806  0.4717 -0.6689  0.1186
 3915TIP3    H133236   0.129   2.823   2.811  0.2971 -0.2814 -0.5322
 3915TIP3    H233237   0.069   2.684   2.819  0.7504 -0.3677  1.9172
 3916TIP3   OH233238   0.875   0.608  15.923 -0.1213  0.2279 -0.0669
 3916TIP3    H133239   0.804   0.544  15.912 -0.6571  0.4573  1.7135
 3916TIP3    H233240   0.920   0.608  15.838 -0.8681 -1.5735 -0.5299
 3917TIP3   OH233241   0.652   5.874   0.030 -0.5087 -0.8545  0.7470
 3917TIP3    H133242   0.608   5.810  -0.026  2.3927 -1.4692 -1.0535
 3917TIP3    H233243   0.715   5.823   0.081  0.5397  0.3111  0.6645
 3918TIP3   OH233244   1.709   4.581   5.848 -0.0710  0.3304 -0.2800
 3918TIP3    H133245   1.708   4.553   5.757  0.8617  0.6145 -0.3859
 3918TIP3    H233246   1.624   4.625   5.860  0.4602  1.7964 -1.5090
 3919TIP3   OH233247   0.305   3.518   2.901 -0.0871 -0.6036  0.2149
 3919TIP3    H133248   0.284   3.451   2.966 -1.0217 -1.0315 -0.5173
 3919TIP3    H233249   0.276   3.600   2.941  2.3131 -0.3937  1.7096
 3920TIP3   OH233250   4.982   0.208  14.254 -0.5060 -0.0286 -0.3145
 3920TIP3    H133251   5.042   0.277  14.281 -0.7459  0.4865 -1.0656
 3920TIP3    H233252   4.901   0.254  14.231 -0.6241 -0.5438 -0.9627
 3921TIP3   OH233253   3.191   6.378  16.496  0.3035 -0.5108 -0.0042
 3921TIP3    H133254   3.124   6.434  16.456  1.2868  0.3403 -0.4898
 3921TIP3    H233255   3.193   6.405  16.588  0.4549 -0.0693 -0.1377
 3922TIP3   OH233256   3.471   4.130   1.136  0.2172  0.2650 -0.5237
 3922TIP3    H133257   3.483   4.161   1.046 -1.1786  1.0213 -0.4649
 3922TIP3    H233258   3.437   4.041   1.127  1.4880 -0.2338 -0.7036
 3923TIP3   OH233259   1.567   6.424  15.523 -0.5482  0.1125 -0.0088
 3923TIP3    H133260   1.498   6.419  15.589 -0.8340 -1.3512 -0.3834
 3923TIP3    H233261   1.520   6.446  15.442 -0.6775 -1.3510 -0.3599
 3924TIP3   OH233262   0.148   5.779  16.698  0.5371 -0.0445 -0.3274
 3924TIP3    H133263   0.087   5.853  16.697 -1.2752 -1.4764 -1.0681
 3924TIP3    H233264   0.148   5.750  16.789 -0.6791 -0.6215 -0.4894
 3925TIP3   OH233265   3.915   2.708  15.745 -0.2846 -0.0874  0.2269
 3925TIP3    H133266   3.845   2.770  15.766 -0.4590 -0.0391 -0.4465
 3925TIP3    H233267   3.971   2.756  15.684 -0.0652 -0.3736  0.2029
 3926TIP3   OH233268   3.154   3.730  11.180  0.5073 -0.3948  0.2563
 3926TIP3    H133269   3.186   3.796  11.118 -0.1524 -0.7308 -0.4525
 3926TIP3    H233270   3.120   3.659  11.125 -1.8657  0.1306  0.9234
 3927TIP3   OH233271   6.366   2.797   0.498 -0.0406  0.4236  0.0674
 3927TIP3    H133272   6.461   2.801   0.485  0.3479 -2.9216  0.9345
 3927TIP3    H233273   6.329   2.803   0.410  0.9693  1.0803 -0.3325
 3928TIP3   OH233274   6.298   4.906   4.371 -0.0113 -0.3410  0.7062
 3928TIP3    H133275   6.258   4.992   4.356 -0.2844 -0.4959  0.5476
 3928TIP3    H233276   6.232   4.858   4.421 -0.3741 -0.8878 -0.2718
 3929TIP3   OH233277   4.975   4.080   3.004 -0.0433  0.1395  0.7172
 3929TIP3    H133278   4.891   4.069   2.960 -0.0672 -0.7815  0.9795
 3929TIP3    H233279   4.956   4.068   3.097  0.2574  0.6378  0.8462
 3930TIP3   OH233280   2.125   6.778   1.778  0.4463 -0.4040  0.0705
 3930TIP3    H133281   2.136   6.854   1.835  0.0164 -0.2941  0.0085
 3930TIP3    H233282   2.200   6.781   1.719 -0.2438  0.7065 -0.7796
 3931TIP3   OH233283   5.163   3.398  16.067  0.4722 -0.1321  0.1028
 3931TIP3    H133284   5.153   3.492  16.082 -0.8038 -0.3316  0.6541
 3931TIP3    H233285   5.073   3.365  16.062  0.8886 -1.4224  0.6522
 3932TIP3   OH233286   0.569   1.213   3.163  0.3920 -0.0744  0.3720
 3932TIP3    H133287   0.593   1.121   3.176 -0.2542  0.0357  2.7514
 3932TIP3    H233288   0.477   1.210   3.136  0.4131 -0.1189  0.3030
 3933TIP3   OH233289   4.497   2.337   0.870  0.4172  0.3474  0.0532
 3933TIP3    H133290   4.413   2.315   0.912  0.3538  0.3131 -0.0912
 3933TIP3    H233291   4.486   2.427   0.840  0.4528  0.3630  0.0873
 3934TIP3   OH233292   4.756   3.058  11.136 -0.2338  0.3175 -0.2418
 3934TIP3    H133293   4.672   3.104  11.144 -0.7234 -0.5369 -0.2729
 3934TIP3    H233294   4.739   2.989  11.072  0.7923  0.7678 -1.0219
 3935TIP3   OH233295   5.264   4.798   1.810 -0.2127  0.3494 -0.5062
 3935TIP3    H133296   5.263   4.883   1.766 -1.0129  1.4497  1.4767
 3935TIP3    H233297   5.177   4.762   1.795  0.2204 -0.2797 -1.5877
 3936TIP3   OH233298   4.994   6.440   0.885  0.4097 -0.0460  0.3617
 3936TIP3    H133299   5.039   6.360   0.857  1.4650  0.8302 -0.5167
 3936TIP3    H233300   5.053   6.479   0.950 -0.3218 -0.1938  1.1351
 3937TIP3   OH233301   2.669   0.997   4.738  0.0744 -0.2182  0.3800
 3937TIP3    H133302   2.579   1.024   4.720 -0.2573 -1.6539 -0.2323
 3937TIP3    H233303   2.665   0.957   4.825  0.1333 -0.2240  0.3803
 3938TIP3   OH233304   6.675   4.056   0.590 -0.2710 -0.2966  0.4063
 3938TIP3    H133305   6.757   4.013   0.565 -0.2269  0.8166 -1.5460
 3938TIP3    H233306   6.609   3.987   0.585 -0.1964 -0.2985 -2.6402
 3939TIP3   OH233307   3.436   4.299  13.735  0.4183 -0.0780 -0.3055
 3939TIP3    H133308   3.508   4.288  13.796  1.1757 -1.9352 -1.4563
 3939TIP3    H233309   3.477   4.332  13.655 -0.0983 -0.6047 -0.7918
 3940TIP3   OH233310   6.025   5.810  11.690  0.9450 -0.1394  0.3118
 3940TIP3    H133311   6.057   5.884  11.742  1.9711 -0.1631 -0.2488
 3940TIP3    H233312   6.083   5.738  11.713 -0.5132 -1.0058  1.4164
 3941TIP3   OH233313   4.543   1.673  15.659 -0.2476  0.7279 -0.3940
 3941TIP3    H133314   4.505   1.623  15.587  0.2655  2.4316 -1.9267
 3941TIP3    H233315   4.478   1.667  15.729 -0.8281 -0.8533 -1.0211
 3942TIP3   OH233316   1.242   5.876   0.893 -0.2307  0.2153 -0.1489
 3942TIP3    H133317   1.255   5.967   0.922  2.7046 -0.1874  0.1977
 3942TIP3    H233318   1.225   5.828   0.973  0.5391  0.1718  0.0036
 3943TIP3   OH233319   0.942   4.790   2.945  0.6631 -0.3830 -0.0722
 3943TIP3    H133320   0.931   4.726   3.015  2.5875 -0.1143  0.5339
 3943TIP3    H233321   0.903   4.870   2.979  2.1616 -0.0682  1.0315
 3944TIP3   OH233322   4.702   4.759  12.617 -0.0184 -0.3101 -0.3041
 3944TIP3    H133323   4.688   4.664  12.608  1.0743 -0.4402 -0.7004
 3944TIP3    H233324   4.626   4.798  12.574  1.2354 -1.0001 -3.4428
 3945TIP3   OH233325   3.988   6.531  16.630  0.1130  0.0953  0.2408
 3945TIP3    H133326   4.063   6.494  16.676  0.0043  0.1282  0.4493
 3945TIP3    H233327   4.009   6.624  16.622  0.3593  0.0012 -0.2344
 3946TIP3   OH233328   4.728   5.712  11.033  0.0894 -0.4839  0.1117
 3946TIP3    H133329   4.810   5.760  11.042  0.0438 -0.0858 -1.3421
 3946TIP3    H233330   4.755   5.621  11.020  0.3259 -0.3069 -0.6796
 3947TIP3   OH233331   3.843   1.972  12.040  0.4043 -0.0276 -0.4161
 3947TIP3    H133332   3.751   1.950  12.053  0.8512 -1.9558 -0.1987
 3947TIP3    H233333   3.876   1.991  12.128  0.7755 -1.9482 -0.0778
 3948TIP3   OH233334   1.671   6.024  12.065 -0.1568  0.3147  0.3992
 3948TIP3    H133335   1.751   6.034  12.013 -0.8284  1.3430 -0.4945
 3948TIP3    H233336   1.615   5.967  12.012 -0.2480  0.0975  0.7284
 3949TIP3   OH233337   1.061   2.173   1.726  0.1657 -0.1602 -0.3684
 3949TIP3    H133338   1.036   2.082   1.739  2.6099 -0.9351 -0.5746
 3949TIP3    H233339   1.094   2.176   1.636  3.3608 -0.0083  0.6697
 3950TIP3   OH233340   1.549   5.383   4.573 -0.2647  0.7091  0.0960
 3950TIP3    H133341   1.463   5.378   4.532 -0.5448  3.7617  0.0587
 3950TIP3    H233342   1.537   5.343   4.659 -0.4698 -2.9212 -1.4466
 3951TIP3   OH233343   2.647   5.200  14.233  0.1584 -0.0915 -0.1050
 3951TIP3    H133344   2.663   5.216  14.140  0.0296  1.8503  0.1598
 3951TIP3    H233345   2.702   5.265  14.278  1.2672 -1.8871  1.2513
 3952TIP3   OH233346   1.708   3.308  11.381  0.0748  0.5003  0.5020
 3952TIP3    H133347   1.758   3.270  11.309  0.0103  0.4691  0.4735
 3952TIP3    H233348   1.705   3.401  11.362  1.0937  0.6683  1.0994
 3953TIP3   OH233349   2.114   1.788   3.003  0.3337 -0.1214 -0.0101
 3953TIP3    H133350   2.037   1.751   3.046 -0.9706 -0.9650 -2.8376
 3953TIP3    H233351   2.178   1.717   3.003 -0.1284 -0.5468 -0.5553
 3954TIP3   OH233352   0.670   1.665   0.270  0.2407 -0.4129  0.0029
 3954TIP3    H133353   0.623   1.697   0.347  0.8046  1.4336 -0.3672
 3954TIP3    H233354   0.761   1.658   0.298  0.4711  0.3916 -0.5059
 3955TIP3   OH233355   4.028   0.381  11.323  0.1404  0.0328  0.7494
 3955TIP3    H133356   4.091   0.447  11.352  0.6569 -0.7231  1.3525
 3955TIP3    H233357   3.956   0.388  11.387  0.1167  0.1320  0.7118
 3956TIP3   OH233358   2.871   6.168   2.945  0.3455  0.0847 -0.3099
 3956TIP3    H133359   2.935   6.157   3.015 -0.0418 -0.7258 -0.0702
 3956TIP3    H233360   2.866   6.082   2.904  1.3503  0.8039 -2.0395
 3957TIP3   OH233361   3.875   0.407  11.552 -0.0455 -0.0401  0.8303
 3957TIP3    H133362   3.898   0.350  11.626 -3.0539 -1.1593  1.0385
 3957TIP3    H233363   3.780   0.404  11.548 -0.1418  2.4068 -1.2705
 3958TIP3   OH233364   2.759   4.900   5.772  0.9623  0.2012 -0.2999
 3958TIP3    H133365   2.668   4.901   5.799  1.0036  3.2819  0.1886
 3958TIP3    H233366   2.798   4.976   5.816  3.3431 -0.0081 -1.8106
 3959TIP3   OH233367   2.563   4.295   0.707 -0.1385 -0.2752 -0.1968
 3959TIP3    H133368   2.501   4.326   0.641 -0.1043  0.2498  0.0190
 3959TIP3    H233369   2.516   4.224   0.752 -0.0877 -0.7835 -0.9117
 3960TIP3   OH233370   5.469   0.336  11.826  0.7797 -0.5914 -0.0216
 3960TIP3    H133371   5.515   0.252  11.829 -1.0366 -1.6503 -0.1816
 3960TIP3    H233372   5.376   0.312  11.825  0.2120  1.4428  0.2158
 3961TIP3   OH233373   4.132   0.145   5.837  0.4619  0.0019 -0.0680
 3961TIP3    H133374   4.097   0.125   5.750 -3.1288  0.6360  1.0991
 3961TIP3    H233375   4.167   0.234   5.829 -2.6609  1.3367 -0.2529
 3962TIP3   OH233376   0.799   2.041   2.321  0.2019  0.1908  0.4040
 3962TIP3    H133377   0.721   2.051   2.376  0.2378  1.4418  0.2662
 3962TIP3    H233378   0.862   1.996   2.377 -0.5575 -0.7010  0.5665
 3963TIP3   OH233379   1.832   0.990  10.884 -0.0179 -0.0440 -0.4359
 3963TIP3    H133380   1.874   1.000  10.969 -0.2534 -0.8903 -0.2113
 3963TIP3    H233381   1.815   1.080  10.855 -1.8795  0.2656  1.3789
 3964TIP3   OH233382   5.071   0.106  15.716  0.0209  0.4592 -0.1933
 3964TIP3    H133383   5.107   0.175  15.771  2.2731 -0.0393 -0.9268
 3964TIP3    H233384   5.012   0.057  15.774 -0.2605  1.9240  0.7981
 3965TIP3   OH233385   6.103   4.126  13.209 -0.1043  0.3743 -0.1200
 3965TIP3    H133386   6.168   4.128  13.139  0.9773 -1.1000  0.7766
 3965TIP3    H233387   6.151   4.152  13.287 -0.1548 -2.0572  0.8234
 3966TIP3   OH233388   2.390   5.418   3.889 -0.1162 -0.5423  0.1527
 3966TIP3    H133389   2.308   5.468   3.894  0.3365  0.5094 -1.7715
 3966TIP3    H233390   2.373   5.351   3.823  1.1940  1.1438 -2.0540
 3967TIP3   OH233391   2.243   6.296   5.458  0.1030 -0.1467 -0.1269
 3967TIP3    H133392   2.323   6.336   5.423 -0.4103  1.0981  0.0433
 3967TIP3    H233393   2.233   6.215   5.409  2.0029 -0.8386  0.5523
 3968TIP3   OH233394   4.709   2.182  11.489 -0.5895  0.1488 -0.1546
 3968TIP3    H133395   4.790   2.231  11.503 -0.5134 -0.6798  3.1476
 3968TIP3    H233396   4.641   2.249  11.487 -0.1871  0.6359  1.1580
 3969TIP3   OH233397   6.247   4.397   3.990  0.5596  0.3266 -0.0347
 3969TIP3    H133398   6.333   4.355   3.996  0.6112  0.2725 -0.9289
 3969TIP3    H233399   6.224   4.390   3.897 -1.5382 -1.9192  0.5525
 3970TIP3   OH233400   4.021   5.970  16.457  0.0468  0.0425  0.2827
 3970TIP3    H133401   3.960   5.902  16.486  0.2850  0.1736  1.1071
 3970TIP3    H233402   3.978   6.009  16.381 -0.5652 -0.3452  0.4228
 3971TIP3   OH233403   6.493   0.966  15.798 -0.0893 -0.2997 -0.2918
 3971TIP3    H133404   6.403   0.974  15.829 -1.7375 -0.9202 -4.2919
 3971TIP3    H233405   6.517   1.054  15.770  0.3555 -0.2722  0.1471
 3972TIP3   OH233406   0.041   4.974  15.480  0.4631 -0.5912 -0.0364
 3972TIP3    H133407   0.013   4.894  15.435 -0.2891 -0.2577 -0.1826
 3972TIP3    H233408   0.001   5.045  15.429  0.2323 -0.1732  0.7179
 3973TIP3   OH233409   5.758   4.994  14.108  0.7269  0.0074  0.3875
 3973TIP3    H133410   5.685   5.032  14.158  1.5857  1.7811  0.3939
 3973TIP3    H233411   5.782   5.063  14.046  1.5735 -1.0487 -0.4951
 3974TIP3   OH233412   4.497   3.326  10.397  0.2741 -0.3208 -0.3131
 3974TIP3    H133413   4.425   3.350  10.456 -0.9240 -1.7433 -1.1416
 3974TIP3    H233414   4.498   3.396  10.331 -0.5387 -0.4184 -0.4440
 3975TIP3   OH233415   2.158   5.130   4.638 -0.1639  0.3773  0.3586
 3975TIP3    H133416   2.158   5.171   4.552 -1.7450 -0.5113 -0.1267
 3975TIP3    H233417   2.226   5.063   4.633 -0.5500  0.0240 -0.3878
 3976TIP3   OH233418   0.724   1.207  10.305  0.3697 -0.0133  0.1152
 3976TIP3    H133419   0.748   1.280  10.249 -0.4160 -1.5641 -2.4348
 3976TIP3    H233420   0.628   1.202  10.298  0.3280 -0.7172  1.0046
 3977TIP3   OH233421   2.502   4.296   2.148 -0.4736 -0.1350  0.1902
 3977TIP3    H133422   2.523   4.389   2.158 -0.6882  0.0469 -0.8968
 3977TIP3    H233423   2.564   4.251   2.205 -0.4701  0.6820  0.8423
 3978TIP3   OH233424   4.654   6.209   3.418 -0.4338  0.3731 -0.2731
 3978TIP3    H133425   4.699   6.165   3.347 -1.3299  0.1797 -0.7282
 3978TIP3    H233426   4.691   6.298   3.418  0.3462  0.0529 -0.2697
 3979TIP3   OH233427   3.810   5.979   5.570  0.2780  0.0340 -0.3876
 3979TIP3    H133428   3.801   5.951   5.662  1.3275  2.0738  0.3948
 3979TIP3    H233429   3.733   6.033   5.555  0.5090  0.3410 -0.4604
 3980TIP3   OH233430   2.728   0.737  14.137 -0.1857 -0.4577 -0.1986
 3980TIP3    H133431   2.732   0.643  14.117  1.0583 -0.8137  1.5055
 3980TIP3    H233432   2.673   0.743  14.215  0.1262  0.1617 -0.0158
 3981TIP3   OH233433   1.427   2.884  13.401 -0.7968 -0.6169  0.3639
 3981TIP3    H133434   1.441   2.976  13.382 -1.2635 -0.9185 -1.6856
 3981TIP3    H233435   1.485   2.865  13.475  2.4732  0.3865 -1.7455
 3982TIP3   OH233436   0.802   5.050   4.222 -0.5564  0.2859  0.1372
 3982TIP3    H133437   0.828   5.082   4.309  0.3416  0.6852 -0.2632
 3982TIP3    H233438   0.707   5.046   4.226 -0.6122  1.4945  0.7398
 3983TIP3   OH233439   2.521   3.115  10.785 -0.4765 -0.2984 -0.5846
 3983TIP3    H133440   2.521   3.206  10.755  1.4871 -0.4482 -1.1740
 3983TIP3    H233441   2.501   3.064  10.707 -1.0172 -0.4108 -0.3761
 3984TIP3   OH233442   0.956   6.002  14.297  0.4807 -0.3508  0.2070
 3984TIP3    H133443   0.863   6.018  14.311  0.0759 -2.5360  0.4575
 3984TIP3    H233444   0.997   6.014  14.383  0.5269  1.0379  0.0057
 3985TIP3   OH233445   1.472   4.886  16.813  0.4688  0.3221  0.4877
 3985TIP3    H133446   1.459   4.792  16.813 -1.3322  0.5374  0.0158
 3985TIP3    H233447   1.419   4.918  16.885 -1.1133  1.1940 -0.9958
 3986TIP3   OH233448   0.140   6.672   3.943 -0.0948  0.6891 -0.4800
 3986TIP3    H133449   0.195   6.709   4.012  1.1585 -1.3759 -0.3108
 3986TIP3    H233450   0.142   6.737   3.873  2.7704  0.6168 -0.5661
 3987TIP3   OH233451   2.258   0.970   5.813  0.3662 -0.4088  0.1757
 3987TIP3    H133452   2.298   0.937   5.733 -1.3714 -0.6306 -0.6370
 3987TIP3    H233453   2.227   0.891   5.858 -0.7007 -0.1241 -0.0583
 3988TIP3   OH233454   0.195   4.356   0.931  0.0731 -0.4526  0.5215
 3988TIP3    H133455   0.103   4.370   0.953  0.3057  3.8396 -0.3354
 3988TIP3    H233456   0.242   4.369   1.013  0.0510 -0.6765  0.5713
 3989TIP3   OH233457   6.702   1.403   3.451 -0.2815 -0.5309 -0.0095
 3989TIP3    H133458   6.630   1.433   3.395 -0.2152 -1.0499 -0.3765
 3989TIP3    H233459   6.686   1.446   3.535  0.0703  0.9090 -0.6452
 3990TIP3   OH233460   6.149   1.152  16.384 -0.3362 -0.7605 -0.0388
 3990TIP3    H133461   6.098   1.177  16.462  0.9539  0.0186  0.5864
 3990TIP3    H233462   6.114   1.208  16.315 -0.3000 -0.1954  0.3901
 3991TIP3   OH233463   0.460   6.386   4.248 -0.2137 -0.5790 -0.5265
 3991TIP3    H133464   0.397   6.383   4.321 -0.5536  1.5968 -0.6741
 3991TIP3    H233465   0.517   6.310   4.264 -0.5035 -0.4025  1.7950
 3992TIP3   OH233466   2.619   0.016  15.059  0.4339 -0.4604  0.0147
 3992TIP3    H133467   2.714   0.016  15.068  0.5156 -1.5240 -0.6006
 3992TIP3    H233468   2.600   0.086  14.997  0.8160 -0.2303  0.1555
 3993TIP3   OH233469   2.440   4.752   5.786  0.1968 -0.1327 -0.3997
 3993TIP3    H133470   2.459   4.804   5.865  0.3758  0.7759 -1.0314
 3993TIP3    H233471   2.345   4.740   5.788 -0.2995  2.7848 -1.7701
 3994TIP3   OH233472   1.983   2.454  14.221 -0.2745  0.4530 -0.2515
 3994TIP3    H133473   1.935   2.515  14.277 -0.6556  0.2088 -0.3063
 3994TIP3    H233474   1.920   2.384  14.203  0.5463 -0.6051  0.8490
 3995TIP3   OH233475   5.331   6.832  15.680  0.3805  0.2944 -0.1764
 3995TIP3    H133476   5.333   6.739  15.654  0.5723  0.2191  0.1059
 3995TIP3    H233477   5.238   6.853  15.686  0.3350  0.1488 -0.3388
 3996TIP3   OH233478   3.621   3.440  15.538 -0.2955  0.1469  0.1952
 3996TIP3    H133479   3.567   3.373  15.496  0.9511 -0.5239 -0.4203
 3996TIP3    H233480   3.711   3.412  15.519  0.2606  1.2826  1.0801
 3997TIP3   OH233481   1.053   4.593   1.057  0.0484  0.7476  0.2930
 3997TIP3    H133482   1.018   4.526   1.115 -0.6420  0.5729 -0.3021
 3997TIP3    H233483   1.133   4.623   1.100  0.7893 -0.9876  0.1961
 3998TIP3   OH233484   3.038   4.701   5.423  0.4211 -0.2499 -0.1918
 3998TIP3    H133485   2.959   4.647   5.427 -0.5068  1.1218  1.7150
 3998TIP3    H233486   3.076   4.681   5.337 -2.0415 -0.9021 -1.2375
 3999TIP3   OH233487   2.678   5.763  16.934  0.7882 -0.0587 -0.1062
 3999TIP3    H133488   2.621   5.840  16.935  2.4570  1.3612  2.9403
 3999TIP3    H233489   2.621   5.691  16.960 -0.1034  0.9153  0.7863
 4000TIP3   OH233490   1.545   0.943  16.656 -0.0514 -0.2837 -0.0695
 4000TIP3    H133491   1.622   0.888  16.642  0.3672 -0.0320  1.1180
 4000TIP3    H233492   1.530   0.986  16.572  0.6886 -0.8630 -0.5027
 4001TIP3   OH233493   2.731   3.532   2.159 -0.2092 -0.2876  0.3432
 4001TIP3    H133494   2.643   3.511   2.127 -0.5278  0.0628  0.9812
 4001TIP3    H233495   2.733   3.499   2.249  0.1714  0.0685  0.4695
 4002TIP3   OH233496   2.086   1.654   2.458  0.1448  0.0043  0.4049
 4002TIP3    H133497   2.124   1.636   2.372  0.4440  0.7675  0.3698
 4002TIP3    H233498   2.046   1.740   2.449 -0.4366 -0.2167  0.8350
 4003TIP3   OH233499   2.658   2.042  12.905  0.5066 -0.8052  0.0316
 4003TIP3    H133500   2.738   2.073  12.862 -0.8320 -0.6650 -2.5226
 4003TIP3    H233501   2.599   2.020  12.833 -1.8455 -0.7318  1.8355
 4004TIP3   OH233502   2.845   1.074  15.337  0.4523 -0.5285 -0.2865
 4004TIP3    H133503   2.875   1.159  15.304 -0.7530 -0.5539 -1.5272
 4004TIP3    H233504   2.797   1.036  15.264 -0.7944 -1.3825  0.9400
 4005TIP3   OH233505   1.918   2.766  13.334  0.2254  0.0387 -0.2011
 4005TIP3    H133506   1.982   2.743  13.267 -0.0010 -1.5641  0.0939
 4005TIP3    H233507   1.845   2.706  13.320 -1.7644  2.5195 -1.2136
 4006TIP3   OH233508   6.785   1.586   1.023  0.5081 -0.3472 -0.3040
 4006TIP3    H133509   6.690   1.583   1.028  0.5236 -0.0302  0.2852
 4006TIP3    H233510   6.810   1.504   0.981 -0.0436 -0.2654 -0.7942
 4007TIP3   OH233511   2.654   3.690  11.902  0.3326  0.3327  0.5850
 4007TIP3    H133512   2.591   3.752  11.939  0.1191  0.5377 -0.1126
 4007TIP3    H233513   2.740   3.727  11.925  0.2039  0.3221  1.0933
 4008TIP3   OH233514   3.811   4.160  16.616  0.6376  0.4475  0.0754
 4008TIP3    H133515   3.853   4.138  16.533  0.8182 -0.1557  0.3207
 4008TIP3    H233516   3.723   4.188  16.592  0.7037  0.3179 -0.3282
 4009TIP3   OH233517   0.160   1.715  13.685  0.4741  0.2274 -0.2680
 4009TIP3    H133518   0.160   1.797  13.636 -0.6384  0.7650  0.5919
 4009TIP3    H233519   0.222   1.659  13.638 -1.2625  0.3435 -2.9203
 4010TIP3   OH233520   0.597   4.744   0.791  0.3640 -0.4413  0.2091
 4010TIP3    H133521   0.537   4.774   0.859 -0.2821  3.6620 -1.8413
 4010TIP3    H233522   0.683   4.744   0.832 -0.0211  1.8535  1.1645
 4011TIP3   OH233523   5.515   1.957   4.485  0.0111  0.0923 -0.0825
 4011TIP3    H133524   5.423   1.960   4.458  0.1868  1.4222 -0.6451
 4011TIP3    H233525   5.563   1.995   4.411  0.8636  0.6336  0.7193
 4012TIP3   OH233526   2.240   0.273  13.988 -0.5723  0.5785 -0.1617
 4012TIP3    H133527   2.197   0.222  14.057 -0.9976 -0.0747 -0.8903
 4012TIP3    H233528   2.180   0.346  13.972 -0.2807  0.9542  0.4254
 4013TIP3   OH233529   2.799   3.050   1.193 -0.3298 -0.2691 -0.0428
 4013TIP3    H133530   2.760   3.131   1.159 -1.1693 -1.1339 -1.2369
 4013TIP3    H233531   2.878   3.038   1.141 -0.0415 -0.0627  0.3449
 4014TIP3   OH233532   1.859   2.972   3.966 -0.8436  0.9471 -0.0793
 4014TIP3    H133533   1.892   2.992   3.879 -1.7823  2.6711 -0.0766
 4014TIP3    H233534   1.819   3.053   3.996 -0.8275  0.2962  1.8396
 4015TIP3   OH233535   2.585   1.730  13.713  0.2226  0.0100 -0.1062
 4015TIP3    H133536   2.615   1.709  13.625 -0.5540  0.4933 -0.4981
 4015TIP3    H233537   2.556   1.821  13.708  1.5218  0.5421  1.0202
 4016TIP3   OH233538   6.041   3.226  15.840  0.7242  0.1149  0.6792
 4016TIP3    H133539   6.093   3.223  15.760  0.5713  2.1287  0.4709
 4016TIP3    H233540   5.950   3.226  15.810  0.6640  0.7162  0.8517
 4017TIP3   OH233541   5.172   1.481  10.813  0.0683  0.0459 -0.6362
 4017TIP3    H133542   5.115   1.551  10.845 -0.2478 -0.3683 -0.2865
 4017TIP3    H233543   5.245   1.478  10.876 -0.2124 -0.3215 -0.3256
 4018TIP3   OH233544   3.565   3.499   4.934 -0.3358  0.0817 -0.0878
 4018TIP3    H133545   3.480   3.490   4.978 -1.2786 -0.1547 -1.8788
 4018TIP3    H233546   3.556   3.448   4.853  1.7243 -0.4222 -0.0688
 4019TIP3   OH233547   3.615   3.219   0.010 -1.0981 -0.4262 -0.3562
 4019TIP3    H133548   3.654   3.132   0.020 -1.0002 -0.4273 -0.7275
 4019TIP3    H233549   3.671   3.263  -0.054 -2.5386 -0.9551 -2.0773
 4020TIP3   OH233550   2.078   5.300  14.876 -0.2885 -0.5186 -0.5651
 4020TIP3    H133551   2.019   5.356  14.927 -0.8388 -1.1383 -0.5102
 4020TIP3    H233552   2.117   5.359  14.812  0.0967  0.1849  0.3006
 4021TIP3   OH233553   2.039   1.856   4.196 -0.3813  0.2399 -0.1707
 4021TIP3    H133554   2.131   1.830   4.196  0.3998  2.7366 -0.2736
 4021TIP3    H233555   1.992   1.779   4.226  1.8244 -0.8341  0.7262
 4022TIP3   OH233556   5.136   3.622   3.162  0.2334 -0.3854 -0.7008
 4022TIP3    H133557   5.105   3.659   3.244 -0.5184  2.3715 -2.0948
 4022TIP3    H233558   5.062   3.570   3.130 -0.3948  0.5140 -0.7498
 4023TIP3   OH233559   0.404   6.477   1.105  0.4856 -0.5624  0.2631
 4023TIP3    H133560   0.455   6.552   1.134 -0.6479 -0.7767  3.1564
 4023TIP3    H233561   0.451   6.401   1.138  0.5868 -1.0481 -0.9308
 4024TIP3   OH233562   1.830   1.624   1.278  0.0155  0.0354  0.0862
 4024TIP3    H133563   1.881   1.547   1.253  1.5239  0.8161  0.6671
 4024TIP3    H233564   1.781   1.595   1.355 -0.5058 -0.7470 -0.5194
 4025TIP3   OH233565   1.018   0.309  13.567  0.0456  0.1785 -0.0906
 4025TIP3    H133566   1.081   0.345  13.505 -1.9355  2.8400 -0.7329
 4025TIP3    H233567   0.970   0.243  13.518  0.7041 -0.1474 -0.3118
 4026TIP3   OH233568   4.485   4.839  12.783 -0.6060 -0.3090 -0.3340
 4026TIP3    H133569   4.474   4.762  12.840  2.1902 -0.5458  0.0309
 4026TIP3    H233570   4.501   4.911  12.844 -0.1636 -0.0452 -0.7610
 4027TIP3   OH233571   1.349   3.078   2.156  0.1725  0.0555 -0.1113
 4027TIP3    H133572   1.373   3.166   2.186  0.6658 -0.4907  1.1610
 4027TIP3    H233573   1.276   3.053   2.212 -0.5413 -0.0158 -1.0541
 4028TIP3   OH233574   3.535   4.213  16.585 -0.1315 -0.4605  0.1516
 4028TIP3    H133575   3.483   4.252  16.515  2.4002  1.8833 -0.6086
 4028TIP3    H233576   3.525   4.273  16.659  2.1649  0.6725 -0.3529
 4029TIP3   OH233577   5.484   6.256   0.272 -0.6358  0.2666  1.0075
 4029TIP3    H133578   5.514   6.249   0.363  1.9375  1.2055  0.3235
 4029TIP3    H233579   5.527   6.335   0.239 -0.2607 -0.8652 -1.4513
 4030TIP3   OH233580   5.130   3.834  12.685  0.0031 -0.3009  0.2309
 4030TIP3    H133581   5.045   3.793  12.668  0.7030 -0.7144 -2.7243
 4030TIP3    H233582   5.136   3.837  12.781 -2.6924 -1.5608  0.5315
 4031TIP3   OH233583   3.269   4.414  12.981 -0.0309 -0.2054  0.2182
 4031TIP3    H133584   3.289   4.456  13.064 -0.9938 -0.4112  0.5665
 4031TIP3    H233585   3.353   4.410  12.935  0.4397  0.2420  1.0228
 4032TIP3   OH233586   5.424   0.806   0.076  0.0454  0.3655 -0.0017
 4032TIP3    H133587   5.367   0.859   0.020 -2.0322 -0.9879  0.7404
 4032TIP3    H233588   5.367   0.775   0.146  2.5451  2.0515  3.0333
 4033TIP3   OH233589   5.595   1.277   5.518 -0.2362 -0.2197  0.0377
 4033TIP3    H133590   5.560   1.229   5.593 -1.3193  1.0823  0.4040
 4033TIP3    H233591   5.664   1.332   5.555  1.0975 -1.5293 -0.4037
 4034TIP3   OH233592   1.785   5.197   0.816 -0.6516 -0.6996 -0.4504
 4034TIP3    H133593   1.806   5.217   0.725 -0.0442  1.3608  0.0922
 4034TIP3    H233594   1.856   5.140   0.845  2.4876  3.1172  0.2482
 4035TIP3   OH233595   4.942   1.650   3.756  0.8020 -0.2236 -0.5183
 4035TIP3    H133596   4.926   1.661   3.850  3.7758 -1.0047  0.1982
 4035TIP3    H233597   4.939   1.739   3.720  0.0565  0.1295  0.3738
 4036TIP3   OH233598   5.066   2.310   1.546  0.0920 -0.3563  0.0495
 4036TIP3    H133599   5.150   2.323   1.591  0.8041 -0.7976 -1.1073
 4036TIP3    H233600   5.080   2.233   1.491 -1.5179 -1.2766  0.8557
 4037TIP3   OH233601   0.928   6.600   0.072 -0.3217  0.6575 -0.1734
 4037TIP3    H133602   1.020   6.603   0.048 -0.9065  3.0038 -2.4891
 4037TIP3    H233603   0.922   6.652   0.152  0.3361  0.4564  0.0103
 4038TIP3   OH233604   3.296   5.741   1.159  0.3161 -0.8377  0.3509
 4038TIP3    H133605   3.347   5.713   1.083  0.3834 -1.6818  0.6957
 4038TIP3    H233606   3.207   5.709   1.142 -0.1408  0.6819 -0.2775
 4039TIP3   OH233607   4.758   6.225   4.184  0.5770  0.2944 -0.4308
 4039TIP3    H133608   4.747   6.258   4.095 -1.1934  1.1488  0.0386
 4039TIP3    H233609   4.735   6.300   4.240  0.0983 -0.6610  0.7085
 4040TIP3   OH233610   5.884   4.316  14.769  0.2663 -0.1299 -0.0047
 4040TIP3    H133611   5.920   4.320  14.680  0.5712  0.4739  0.1392
 4040TIP3    H233612   5.952   4.356  14.824 -0.2660  0.2483  0.3876
 4041TIP3   OH233613   1.761   5.541  12.711 -0.0813  0.1439 -0.0104
 4041TIP3    H133614   1.785   5.580  12.627 -0.8195 -0.0239 -0.3054
 4041TIP3    H233615   1.845   5.525  12.755  0.3000  0.4281 -0.6219
 4042TIP3   OH233616   6.690   5.822  15.784 -0.1862 -0.1525  0.1318
 4042TIP3    H133617   6.711   5.897  15.729 -1.5699 -0.9025 -1.5066
 4042TIP3    H233618   6.774   5.794  15.820  0.6160  1.0089 -0.7506
 4043TIP3   OH233619   5.381   6.177  10.965 -0.0872  0.4154 -0.4751
 4043TIP3    H133620   5.376   6.139  11.052  0.2260 -1.0529 -1.0646
 4043TIP3    H233621   5.408   6.104  10.908 -0.5660  1.2571 -1.8410
 4044TIP3   OH233622   5.047   6.118   0.262 -0.8917  0.1979 -0.0692
 4044TIP3    H133623   5.123   6.108   0.205 -0.3273  0.1196  0.6893
 4044TIP3    H233624   5.006   6.031   0.263 -1.3912  0.4042 -1.0089
 4045TIP3   OH233625   5.225   0.850   0.706  0.0762  0.4436 -0.1573
 4045TIP3    H133626   5.215   0.930   0.759 -1.3453  0.7027 -0.7662
 4045TIP3    H233627   5.199   0.779   0.765 -2.1182  0.7852 -0.6026
 4046TIP3   OH233628   4.620   1.602  16.744 -0.6194 -0.1308  0.4690
 4046TIP3    H133629   4.691   1.649  16.701  0.2766 -1.3867  0.4945
 4046TIP3    H233630   4.548   1.605  16.682 -0.4815  0.9824  0.3433
 4047TIP3   OH233631   3.041   6.596   3.578 -0.9415 -0.0289  0.4032
 4047TIP3    H133632   3.099   6.633   3.511 -0.1050  0.2111  1.2182
 4047TIP3    H233633   3.042   6.502   3.562 -0.4971 -0.0030  0.2644
 4048TIP3   OH233634   3.014   5.318   2.611 -0.1651  0.2744  0.2970
 4048TIP3    H133635   3.089   5.350   2.661 -0.0471 -0.3658  0.5300
 4048TIP3    H233636   2.996   5.388   2.548  0.5860  0.4586  0.2808
 4049TIP3   OH233637   6.419   0.838  11.529  0.1180  0.0188  0.1620
 4049TIP3    H133638   6.478   0.764  11.546  1.6624  0.8656 -1.1981
 4049TIP3    H233639   6.354   0.803  11.468  1.7465  0.1033 -1.7259
 4050TIP3   OH233640   6.169   2.488  14.741 -0.1706 -0.1584  0.1738
 4050TIP3    H133641   6.079   2.484  14.708  0.0641  1.1775 -0.6661
 4050TIP3    H233642   6.163   2.541  14.820 -0.3112 -1.2078  0.8972
 4051TIP3   OH233643   5.843   6.324  12.862  0.2853 -0.6210 -0.5464
 4051TIP3    H133644   5.828   6.232  12.883 -2.2851 -0.0417  0.4257
 4051TIP3    H233645   5.825   6.371  12.943 -3.0730  1.0972 -2.0780
 4052TIP3   OH233646   4.722   0.203  11.735 -0.3338 -0.0553 -0.0449
 4052TIP3    H133647   4.677   0.122  11.711  1.4770 -0.9636 -0.6050
 4052TIP3    H233648   4.652   0.266  11.750 -1.7585 -1.1891 -1.5145
 4053TIP3   OH233649   0.802   2.560   6.357 -0.0711  0.0809  0.4178
 4053TIP3    H133650   0.725   2.591   6.404 -0.1405  1.4173 -0.5306
 4053TIP3    H233651   0.835   2.637   6.311  0.2596 -1.0648 -1.3575
 4054TIP3   OH233652   4.639   4.570   2.652 -0.2511 -0.0701  0.1591
 4054TIP3    H133653   4.557   4.599   2.611 -0.7943 -2.0369 -0.2735
 4054TIP3    H233654   4.661   4.640   2.713 -1.7390  0.9623 -0.4172
 4055TIP3   OH233655   6.578   1.270  14.281 -0.1824 -0.5534 -0.3993
 4055TIP3    H133656   6.627   1.189  14.297 -1.8582 -1.5167  0.1667
 4055TIP3    H233657   6.581   1.281  14.186  2.2623  0.2180 -0.3026
 4056TIP3   OH233658   2.542   5.402  12.629  0.0873 -0.1246  0.0271
 4056TIP3    H133659   2.605   5.471  12.609 -0.5248  0.3064 -0.4641
 4056TIP3    H233660   2.574   5.362  12.709  0.4602  0.7316  0.3162
 4057TIP3   OH233661   3.932   3.471  13.775 -0.1215 -0.0010 -0.1961
 4057TIP3    H133662   3.846   3.440  13.803 -0.4919  0.4243 -0.8406
 4057TIP3    H233663   3.918   3.562  13.750  0.4492 -0.0103 -0.5813
 4058TIP3   OH233664   5.535   0.018  12.539  0.9831 -0.1367  0.1910
 4058TIP3    H133665   5.502   0.030  12.629  3.0807  1.3546  0.8413
 4058TIP3    H233666   5.625  -0.011  12.551  1.6221  1.0563 -1.3934
 4059TIP3   OH233667   6.380   2.181  12.135  0.0437 -0.3085  0.1003
 4059TIP3    H133668   6.469   2.215  12.136  0.4852 -1.2478 -1.9753
 4059TIP3    H233669   6.331   2.241  12.079 -0.1617 -0.7951 -0.2552
 4060TIP3   OH233670   1.544   3.399  13.300  0.4419 -0.0108 -0.4372
 4060TIP3    H133671   1.477   3.343  13.261 -0.0135  0.6099 -0.5520
 4060TIP3    H233672   1.495   3.466  13.346  0.9879  0.4020 -0.4570
 4061TIP3   OH233673   1.046   5.405  15.768 -0.4895 -0.0513  0.5022
 4061TIP3    H133674   0.984   5.387  15.838 -1.3218 -1.6254 -0.5851
 4061TIP3    H233675   1.124   5.356  15.791 -1.0114 -1.1415  0.0036
 4062TIP3   OH233676   0.087   5.992  12.699  0.2811 -0.4187 -0.3918
 4062TIP3    H133677   0.141   5.960  12.771  3.1048  1.0702 -1.6755
 4062TIP3    H233678   0.080   5.917  12.639 -3.2017 -2.1022  1.7913
 4063TIP3   OH233679   0.029   1.743  14.408 -0.2736 -0.1034  0.5740
 4063TIP3    H133680   0.032   1.788  14.493 -0.4142  0.6214  0.1983
 4063TIP3    H233681  -0.016   1.660  14.427  0.2014 -0.1984  1.3164
 4064TIP3   OH233682   1.888   1.631  16.295  0.1329  0.0235  0.0970
 4064TIP3    H133683   1.861   1.647  16.386 -0.7995  0.6389 -0.2838
 4064TIP3    H233684   1.977   1.596  16.303 -0.2322 -0.7003  1.2883
 4065TIP3   OH233685   5.666   4.308   1.907 -0.4698 -0.0280 -0.8354
 4065TIP3    H133686   5.615   4.278   1.832 -0.6773 -1.8795 -0.0352
 4065TIP3    H233687   5.662   4.234   1.969  1.3972  0.6178  0.1363
 4066TIP3   OH233688   6.624   2.173   4.527  0.4744 -0.1186 -0.3450
 4066TIP3    H133689   6.590   2.195   4.440  2.5793 -1.4807 -1.5898
 4066TIP3    H233690   6.577   2.093   4.551 -0.4045  0.4790  0.0089
 4067TIP3   OH233691   5.020   5.522   6.062  0.4434 -0.0918  0.4309
 4067TIP3    H133692   5.055   5.526   5.973  0.8740 -1.3268  0.5138
 4067TIP3    H233693   4.978   5.606   6.076  0.2419  0.0641 -0.9925
 4068TIP3   OH233694   6.222   1.422  12.851  0.0343 -0.3848 -0.0153
 4068TIP3    H133695   6.146   1.398  12.797  0.9815 -0.6570 -1.2659
 4068TIP3    H233696   6.186   1.483  12.916 -1.2856 -0.6260 -0.4820
 4069TIP3   OH233697   2.218   4.421  13.754  0.4687  0.2626 -0.2944
 4069TIP3    H133698   2.213   4.375  13.838  0.8539  0.1865 -0.3142
 4069TIP3    H233699   2.133   4.402  13.713 -0.4215  1.6752  0.7787
 4070TIP3   OH233700   3.692   0.775   3.952 -0.3065  0.0017 -0.1122
 4070TIP3    H133701   3.651   0.787   4.038  0.5785  0.4534  0.2558
 4070TIP3    H233702   3.740   0.856   3.936  0.7322 -0.6450 -0.3683
 4071TIP3   OH233703   6.576   3.286   2.958  0.4356  0.4846 -0.1326
 4071TIP3    H133704   6.655   3.284   2.904  0.6301  0.9870  0.1216
 4071TIP3    H233705   6.600   3.237   3.037  0.4892  0.6209 -0.0637
 4072TIP3   OH233706   6.703   3.826  15.391  0.4022  0.1439  0.1453
 4072TIP3    H133707   6.636   3.850  15.455 -0.5629  2.1858 -1.4963
 4072TIP3    H233708   6.659   3.834  15.306  2.5191  0.8671 -0.9634
 4073TIP3   OH233709   4.470   0.316  10.915 -0.0485 -0.0189  0.7265
 4073TIP3    H133710   4.398   0.254  10.907  1.4768 -1.8618  0.2298
 4073TIP3    H233711   4.527   0.295  10.840  0.1312  2.5873  0.0604
 4074TIP3   OH233712   4.173   0.808  12.862 -0.3095  0.0856 -0.1485
 4074TIP3    H133713   4.198   0.900  12.869  1.1875 -0.3677  1.1950
 4074TIP3    H233714   4.149   0.796  12.771 -0.3008  1.7581 -0.3941
 4075TIP3   OH233715   2.350   5.330  13.333 -0.2009 -0.1406  0.0608
 4075TIP3    H133716   2.286   5.384  13.378  0.8773 -0.5706  2.2415
 4075TIP3    H233717   2.322   5.240  13.348  1.2359 -0.3690  1.6792
 4076TIP3   OH233718   0.716   0.122   1.668  0.2534  0.2511  0.4767
 4076TIP3    H133719   0.622   0.139   1.665  0.2257  0.2599  1.2340
 4076TIP3    H233720   0.731   0.056   1.600 -0.4239 -0.2914  0.8458
 4077TIP3   OH233721   0.393   1.414   0.569  0.5499 -0.6220  0.5038
 4077TIP3    H133722   0.487   1.433   0.574  0.2590  1.6765 -1.2427
 4077TIP3    H233723   0.352   1.481   0.623 -0.1489 -1.0638  0.5330
 4078TIP3   OH233724   5.879   2.404  14.650 -0.0215  0.2904  0.1734
 4078TIP3    H133725   5.872   2.457  14.571 -0.3737  1.0492  0.6992
 4078TIP3    H233726   5.821   2.330  14.634  1.1492 -0.4416 -0.9319
 4079TIP3   OH233727   2.243   6.238   0.717  0.3334 -0.1136  0.4067
 4079TIP3    H133728   2.218   6.243   0.809 -1.9635 -2.7791  0.0459
 4079TIP3    H233729   2.203   6.158   0.685  3.9235 -1.1680 -2.1150
 4080TIP3   OH233730   2.700   6.206   2.385  0.5141  0.1839 -0.4020
 4080TIP3    H133731   2.687   6.285   2.438  1.4318  0.4622 -0.5708
 4080TIP3    H233732   2.706   6.238   2.295  1.0588 -0.0525 -0.4541
 4081TIP3   OH233733   0.878   5.313  14.322  0.0698  0.5818  0.3583
 4081TIP3    H133734   0.886   5.286  14.230 -1.9069 -0.3097  0.3903
 4081TIP3    H233735   0.898   5.406  14.321  0.5522  0.4906 -0.8938
 4082TIP3   OH233736   5.843   5.248   3.288 -0.2093  0.0258  0.0891
 4082TIP3    H133737   5.894   5.168   3.298  1.7207  1.0245 -1.2708
 4082TIP3    H233738   5.879   5.309   3.352 -0.4618  0.3659 -0.0838
 4083TIP3   OH233739   3.453   2.731   3.903  0.5195  0.1109 -0.2916
 4083TIP3    H133740   3.457   2.669   3.830  2.8964 -0.2864  0.0981
 4083TIP3    H233741   3.432   2.815   3.861  1.9610 -0.0773 -1.5190
 4084TIP3   OH233742   0.701   0.603   3.630  0.0893  0.0273 -0.6000
 4084TIP3    H133743   0.719   0.655   3.551 -0.9424  2.7087  0.8031
 4084TIP3    H233744   0.613   0.630   3.657 -0.1838 -1.9302  0.6970
 4085TIP3   OH233745   0.626   1.229  15.902 -0.4878 -0.0256  0.4102
 4085TIP3    H133746   0.577   1.203  15.824  2.1832 -2.3363 -0.7014
 4085TIP3    H233747   0.584   1.180  15.973 -1.5911  0.3611  0.0451
 4086TIP3   OH233748   4.289   0.698   1.711  0.3606 -0.0517  0.0339
 4086TIP3    H133749   4.235   0.697   1.633  0.2099  0.5755  0.1254
 4086TIP3    H233750   4.342   0.619   1.705  0.6633  0.2124 -0.9267
 4087TIP3   OH233751   4.360   4.450  16.086  0.1045 -0.2616 -0.1206
 4087TIP3    H133752   4.270   4.423  16.066  0.6835 -1.3270 -1.4460
 4087TIP3    H233753   4.373   4.424  16.177 -1.2519  0.8657  0.4340
 4088TIP3   OH233754   4.053   6.057   0.398  0.8776 -0.3511  0.0473
 4088TIP3    H133755   4.075   6.103   0.316 -0.3863 -2.5420 -1.6496
 4088TIP3    H233756   4.065   5.965   0.377  0.6835 -0.9731  2.4486
 4089TIP3   OH233757   3.461   2.871  14.086 -0.5750 -0.3249  0.3417
 4089TIP3    H133758   3.403   2.924  14.141 -0.0797  0.4482  0.1453
 4089TIP3    H233759   3.456   2.783  14.123 -0.6735  0.0609  1.2844
 4090TIP3   OH233760   2.166   4.503  15.665  0.1699  0.7394  0.5830
 4090TIP3    H133761   2.161   4.415  15.703 -3.4356  0.5245  0.0417
 4090TIP3    H233762   2.171   4.487  15.570 -1.0759  1.0621  0.4485
 4091TIP3   OH233763   1.961   1.057  12.789 -0.0312  0.3625  0.3994
 4091TIP3    H133764   1.977   0.972  12.830 -1.1065 -0.3597 -0.6306
 4091TIP3    H233765   1.968   1.120  12.861  0.4224 -0.6281  1.2389
 4092TIP3   OH233766   0.876   5.311   5.653 -0.2910  0.4891 -0.2957
 4092TIP3    H133767   0.949   5.249   5.646  0.1655  0.8176  1.2133
 4092TIP3    H233768   0.853   5.310   5.746 -2.7204 -0.1583 -0.8526
 4093TIP3   OH233769   5.979   0.892   0.728  1.0672 -0.1374 -0.1433
 4093TIP3    H133770   5.929   0.813   0.705 -0.3122  0.8624 -0.7762
 4093TIP3    H233771   6.063   0.881   0.684  1.0478 -1.4388  0.1231
 4094TIP3   OH233772   4.510   2.475   0.387  0.2380  0.2286 -0.1373
 4094TIP3    H133773   4.444   2.543   0.370  1.2771  1.1242 -0.6898
 4094TIP3    H233774   4.519   2.429   0.304 -0.1353 -0.3182  0.1153
 4095TIP3   OH233775   0.020   4.578  12.682  0.1602  0.3163  0.2296
 4095TIP3    H133776   0.112   4.559  12.665  0.2018  0.0152  0.7595
 4095TIP3    H233777   0.003   4.659  12.634  0.0016 -0.9723 -2.0498
 4096TIP3   OH233778   2.527   3.188   1.003 -0.7712  0.4891 -0.4651
 4096TIP3    H133779   2.466   3.211   1.073  0.6459 -0.6639  1.2159
 4096TIP3    H233780   2.482   3.120   0.954  0.2267 -2.7489  2.6987
 4097TIP3   OH233781   0.656   4.789   3.992 -0.2072 -0.5477 -0.1245
 4097TIP3    H133782   0.663   4.750   3.905 -0.9999 -1.2857  0.1330
 4097TIP3    H233783   0.583   4.850   3.986  1.9067  2.1167 -0.9379
 4098TIP3   OH233784   1.837   2.696   1.586  0.4457  0.0843  0.2185
 4098TIP3    H133785   1.897   2.768   1.606  1.7167 -0.9970  0.4420
 4098TIP3    H233786   1.814   2.660   1.672 -1.2835  1.0406  0.2001
 4099TIP3   OH233787   5.785   2.549   2.708  0.3738 -0.5524  0.1674
 4099TIP3    H133788   5.858   2.607   2.729  0.4373 -0.0891 -1.2093
 4099TIP3    H233789   5.712   2.582   2.761  1.0102 -0.6994  1.1586
 4100TIP3   OH233790   1.238   0.286   6.701 -0.0610  0.1722  0.2081
 4100TIP3    H133791   1.333   0.274   6.692  0.1642  2.0723 -0.3454
 4100TIP3    H233792   1.205   0.199   6.725  1.6370 -0.8527 -0.9404
 4101TIP3   OH233793   2.288   0.591  11.198 -0.4043  0.4206  0.1584
 4101TIP3    H133794   2.203   0.598  11.154 -0.7971  0.1890  0.8613
 4101TIP3    H233795   2.298   0.498  11.217  0.1934  0.3915 -0.2656
 4102TIP3   OH233796   5.091   6.827  16.101 -0.2182  0.5867 -0.1938
 4102TIP3    H133797   5.019   6.855  16.044 -1.5308  1.5318  1.8463
 4102TIP3    H233798   5.076   6.734  16.115  0.2656  0.2771 -1.5353
 4103TIP3   OH233799   2.954   2.095  11.407  0.0243 -0.4930  0.4531
 4103TIP3    H133800   3.032   2.094  11.353  0.1800 -3.5024  0.5359
 4103TIP3    H233801   2.881   2.093  11.345  0.0116  1.1096  0.3863
 4104TIP3   OH233802   3.376   3.283  11.386  0.5082 -0.1638 -0.0999
 4104TIP3    H133803   3.459   3.330  11.389  1.4519 -1.7229 -0.2327
 4104TIP3    H233804   3.343   3.286  11.476  1.0154 -0.0377  0.0843
 4105TIP3   OH233805   6.069   6.689   0.441 -0.2184  0.3840 -0.2934
 4105TIP3    H133806   6.106   6.652   0.521 -0.4303 -0.2422 -0.4775
 4105TIP3    H233807   6.143   6.697   0.381 -0.4211 -1.3464 -0.8424
 4106TIP3   OH233808   6.763   3.343   0.247 -0.1786 -0.4586 -0.6575
 4106TIP3    H133809   6.764   3.292   0.328 -0.1031 -0.2010 -0.4926
 4106TIP3    H233810   6.728   3.284   0.181 -1.6427 -0.2213 -0.1385
 4107TIP3   OH233811   5.119   5.319  15.051  0.9459  0.2050  0.4541
 4107TIP3    H133812   5.161   5.401  15.078  1.6723 -0.4674  1.4238
 4107TIP3    H233813   5.027   5.330  15.074  0.7423  1.3044 -0.7764
 4108TIP3   OH233814   3.899   5.407   2.894 -0.0112 -0.0441  0.0685
 4108TIP3    H133815   3.894   5.481   2.834 -2.0513  1.6155  2.1415
 4108TIP3    H233816   3.851   5.434   2.971  1.3628 -2.5945  1.9954
 4109TIP3   OH233817   5.017   4.090   5.969 -0.5873  0.2390 -0.6773
 4109TIP3    H133818   5.095   4.146   5.966 -0.6003  0.2537 -0.7435
 4109TIP3    H233819   5.041   4.012   5.919 -0.2653 -0.2046  0.1557
 4110TIP3   OH233820   4.468   0.170   3.390  0.7808 -0.6579 -0.5922
 4110TIP3    H133821   4.537   0.226   3.424 -0.3322  0.8376 -0.7110
 4110TIP3    H233822   4.452   0.106   3.460  2.0560 -0.8507 -0.4613
 4111TIP3   OH233823   4.779   3.388   0.425  0.3160 -0.4548  0.7939
 4111TIP3    H133824   4.850   3.345   0.473  2.4198  1.7525 -0.1404
 4111TIP3    H233825   4.789   3.481   0.444 -1.2978  0.0889 -0.6905
 4112TIP3   OH233826   5.957   4.567  14.396 -0.0748 -0.1700  0.2489
 4112TIP3    H133827   5.926   4.626  14.465  0.6024  1.5267 -0.8165
 4112TIP3    H233828   5.973   4.484  14.440 -2.2685  0.0497  1.5761
 4113TIP3   OH233829   0.050   2.838  15.395  0.4362 -1.0479  0.1165
 4113TIP3    H133830   0.064   2.744  15.403 -0.3013 -1.0604  1.4955
 4113TIP3    H233831   0.005   2.863  15.475 -2.5931 -0.1374 -1.7039
 4114TIP3   OH233832   0.942   4.214   0.922 -0.1010  0.1517 -0.3620
 4114TIP3    H133833   0.981   4.243   1.005  0.9422  1.1679 -1.1658
 4114TIP3    H233834   0.927   4.296   0.874  0.0452 -0.4677 -1.4800
 4115TIP3   OH233835   0.086   3.540   5.723  0.5070  0.3145 -0.2352
 4115TIP3    H133836   0.172   3.579   5.708  1.4023 -1.0015  1.1264
 4115TIP3    H233837   0.051   3.587   5.798  0.1807  0.6240 -0.5797
 4116TIP3   OH233838   6.492   0.058   5.594  0.0882 -0.1335  0.2936
 4116TIP3    H133839   6.482  -0.024   5.643  1.1793  0.4173  1.4804
 4116TIP3    H233840   6.469   0.126   5.657 -1.0926  0.4990 -0.7627
 4117TIP3   OH233841   1.135   1.650  14.314  0.3327  0.5945  0.0899
 4117TIP3    H133842   1.066   1.629  14.377 -0.4909  1.4062 -0.5063
 4117TIP3    H233843   1.088   1.672  14.234  1.1523  3.0809  0.1967
 4118TIP3   OH233844   2.224   2.883  12.122 -0.4247 -0.1543  0.5599
 4118TIP3    H133845   2.260   2.872  12.034  1.7200  1.9399  1.0479
 4118TIP3    H233846   2.250   2.804  12.169 -1.2225 -1.0985 -0.5316
 4119TIP3   OH233847   3.662   3.560  10.961  0.3445  0.1538  0.1272
 4119TIP3    H133848   3.610   3.560  11.041  0.9609 -1.2969  0.5523
 4119TIP3    H233849   3.604   3.523  10.894  0.5203 -0.6162  0.3939
 4120TIP3   OH233850   1.941   1.479  17.145 -0.0777  0.0078  0.0076
 4120TIP3    H133851   1.922   1.411  17.209 -0.5941  0.9659  0.9054
 4120TIP3    H233852   1.866   1.538  17.149  1.6165  2.2141  1.3853
 4121TIP3   OH233853   5.259   4.796   5.032  0.0426  0.6593  0.2715
 4121TIP3    H133854   5.326   4.770   5.095 -1.2167 -1.5281  0.8209
 4121TIP3    H233855   5.253   4.722   4.972 -0.8131  1.4741 -0.6813
 4122TIP3   OH233856   0.507   4.303   5.810 -0.7164 -0.1348  0.2721
 4122TIP3    H133857   0.467   4.229   5.764  0.9441 -1.8175  1.4025
 4122TIP3    H233858   0.451   4.316   5.887 -2.1947  1.1976 -0.9745
 4123TIP3   OH233859   4.051   1.510   1.893 -0.8972  0.0575  0.6487
 4123TIP3    H133860   4.066   1.468   1.808  0.5783 -0.6422  1.2106
 4123TIP3    H233861   4.045   1.437   1.955 -2.8160  0.5140  1.0666
 4124TIP3   OH233862   6.659   6.000   4.249  0.8850  0.0656  0.1116
 4124TIP3    H133863   6.563   6.010   4.249  0.7130  1.5058 -5.1624
 4124TIP3    H233864   6.692   6.088   4.269  1.2246 -0.5635  2.5232
 4125TIP3   OH233865   2.671   0.684   0.419  0.0287  0.3377 -0.1986
 4125TIP3    H133866   2.701   0.708   0.507 -1.1272 -0.5557  0.4711
 4125TIP3    H233867   2.602   0.748   0.400  0.3756  0.6182 -0.5205
 4126TIP3   OH233868   3.246   2.484  16.759 -0.5226  0.1048 -0.3274
 4126TIP3    H133869   3.192   2.406  16.745 -2.0087  1.1361 -0.5041
 4126TIP3    H233870   3.325   2.468  16.708  1.6065 -3.5125  3.4073
 4127TIP3   OH233871   4.266   2.855   2.111  0.1166  0.1156 -0.4285
 4127TIP3    H133872   4.356   2.827   2.125 -0.4817 -1.8306 -0.1064
 4127TIP3    H233873   4.240   2.894   2.195  0.5098  0.2550 -0.3705
 4128TIP3   OH233874   6.532   0.205  14.383  0.0754 -0.3531 -0.6873
 4128TIP3    H133875   6.440   0.228  14.383  0.3280  0.7645  0.5148
 4128TIP3    H233876   6.539   0.130  14.443 -0.1219 -0.7669 -1.1817
 4129TIP3   OH233877   3.969   5.610  15.524  0.1612 -0.2608  0.3584
 4129TIP3    H133878   3.883   5.637  15.557 -0.9087 -0.7221 -1.8692
 4129TIP3    H233879   4.018   5.691  15.513  0.0025  0.0145  1.5254
 4130TIP3   OH233880   2.016   6.065   0.970  0.0218 -0.3824 -0.4771
 4130TIP3    H133881   2.003   6.083   0.877 -1.9432  0.9669  0.0077
 4130TIP3    H233882   1.932   6.086   1.011  1.0191 -0.3445  1.6996
 4131TIP3   OH233883   4.922   0.034   6.105 -0.0827  0.0416 -0.4504
 4131TIP3    H133884   4.960   0.122   6.092 -0.5584  0.3707  0.3040
 4131TIP3    H233885   4.998  -0.022   6.123  0.1440  0.5193  0.1438
 4132TIP3   OH233886   2.428   3.656   2.750 -0.0431 -0.1618 -0.1655
 4132TIP3    H133887   2.460   3.613   2.829 -1.4809 -0.6413  0.1726
 4132TIP3    H233888   2.347   3.611   2.728 -1.9396  2.6340  0.4935
 4133TIP3   OH233889   2.375   5.974  16.366 -0.0913  0.6581 -0.1104
 4133TIP3    H133890   2.288   5.949  16.335 -0.1938  0.7453  0.1017
 4133TIP3    H233891   2.421   5.890  16.378 -0.3676  0.5733  0.4074
 4134TIP3   OH233892   5.515   2.784  13.594 -0.4057 -1.1530 -0.4010
 4134TIP3    H133893   5.489   2.875  13.609  0.2752 -0.9527 -0.4274
 4134TIP3    H233894   5.448   2.733  13.639 -1.1678 -0.6547 -0.9367
 4135TIP3   OH233895   0.529   4.978   6.577 -0.3997 -0.2917 -0.4702
 4135TIP3    H133896   0.543   4.887   6.605 -0.7504 -0.4809 -0.9014
 4135TIP3    H233897   0.454   5.008   6.629 -0.0208 -0.1034 -0.0177
 4136TIP3   OH233898   1.229   0.253   5.456  0.0919  0.4865  0.0966
 4136TIP3    H133899   1.319   0.285   5.459  0.6415 -0.8115 -1.2555
 4136TIP3    H233900   1.210   0.244   5.363 -0.6801 -1.2381  0.3841
 4137TIP3   OH233901   0.018   2.846   1.895  0.1136 -0.5326  0.2414
 4137TIP3    H133902  -0.014   2.908   1.960  1.4185  0.3550  0.0614
 4137TIP3    H233903   0.109   2.830   1.918 -0.3953 -3.1502  0.8392
 4138TIP3   OH233904   0.063   0.789  13.994  0.4202 -0.1937 -0.5539
 4138TIP3    H133905   0.033   0.782  13.903 -2.1236  0.2633  0.1716
 4138TIP3    H233906  -0.007   0.749  14.045  0.8270  1.3557  1.3291
 4139TIP3   OH233907   5.601   1.045  14.527  0.0327 -0.1394  0.3167
 4139TIP3    H133908   5.541   0.981  14.489 -1.5088  2.2694 -1.5792
 4139TIP3    H233909   5.686   1.001  14.527 -1.2996 -2.9830  1.3181
 4140TIP3   OH233910   6.778   1.475   2.347 -0.3200  0.0435  0.0271
 4140TIP3    H133911   6.838   1.400   2.349 -0.3242  0.0578  1.4241
 4140TIP3    H233912   6.797   1.518   2.264  1.7878  0.1703  0.5213
 4141TIP3   OH233913   2.984   6.690  15.061  0.8126 -0.1355  0.1244
 4141TIP3    H133914   3.056   6.634  15.093 -0.0187 -0.1481  2.0933
 4141TIP3    H233915   2.950   6.643  14.984  2.0319 -0.8099 -0.0318
 4142TIP3   OH233916   2.614   6.341  15.972  0.0104 -0.2739 -0.7991
 4142TIP3    H133917   2.591   6.314  16.060 -0.3551  0.5074 -0.6485
 4142TIP3    H233918   2.674   6.414  15.984 -1.6839  1.2441 -1.1658
 4143TIP3   OH233919   5.627   1.567   2.766  0.5948 -1.1907 -0.0806
 4143TIP3    H133920   5.699   1.548   2.706  0.2061 -0.0160 -0.9460
 4143TIP3    H233921   5.655   1.646   2.813  0.1853 -1.1494  0.0992
 4144TIP3   OH233922   5.010   3.773   4.573 -0.2245  0.1709  0.2475
 4144TIP3    H133923   5.008   3.684   4.539  2.1946 -1.4178  3.6817
 4144TIP3    H233924   5.081   3.815   4.525  0.4429 -0.6612  0.4864
 4145TIP3   OH233925   1.365   3.107  16.416 -0.3171  0.1512  0.2027
 4145TIP3    H133926   1.417   3.037  16.377  0.3004  0.4134  0.5357
 4145TIP3    H233927   1.370   3.091  16.510  1.4023  1.6864  0.4237
 4146TIP3   OH233928   4.279   2.498   2.685 -0.4165  0.3009 -0.0356
 4146TIP3    H133929   4.276   2.449   2.603  0.4973 -2.6453  1.5295
 4146TIP3    H233930   4.215   2.567   2.674 -0.0822  0.2429 -3.3232
 4147TIP3   OH233931   2.226   1.193  15.977 -0.1962 -0.1208  0.1773
 4147TIP3    H133932   2.185   1.106  15.977 -0.7140  0.1160 -0.1594
 4147TIP3    H233933   2.249   1.208  15.886  0.1096 -0.0009  0.2741
 4148TIP3   OH233934   6.165   6.586  11.805 -0.1094 -0.3807 -0.1605
 4148TIP3    H133935   6.203   6.673  11.816  2.1712 -1.3610  0.3890
 4148TIP3    H233936   6.112   6.572  11.884  0.7322 -0.0419  0.4777
 4149TIP3   OH233937   0.801   6.720  13.658  0.0940 -0.0011  0.3597
 4149TIP3    H133938   0.792   6.650  13.593 -1.4181  1.0899 -0.7194
 4149TIP3    H233939   0.766   6.683  13.739 -1.7620 -0.2215 -0.4678
 4150TIP3   OH233940   1.398   5.619  13.636  0.3660  0.2755  0.2649
 4150TIP3    H133941   1.326   5.560  13.658 -0.6887  0.6167 -1.9323
 4150TIP3    H233942   1.468   5.562  13.603  0.5920  0.0442  1.1307
 4151TIP3   OH233943   3.391   0.511   4.698 -0.3544 -0.0381  0.0528
 4151TIP3    H133944   3.469   0.521   4.645 -1.0142  0.2943 -0.8775
 4151TIP3    H233945   3.423   0.482   4.784  0.6211 -1.9564 -0.9027
 4152TIP3   OH233946   1.698   4.735  15.746 -0.0600  0.1873  0.1589
 4152TIP3    H133947   1.659   4.664  15.795 -0.2253 -0.5294 -0.9630
 4152TIP3    H233948   1.703   4.702  15.656  1.3175  0.9900 -0.0950
 4153TIP3   OH233949   6.226   0.874  14.833  0.2191  0.7754  0.0179
 4153TIP3    H133950   6.224   0.953  14.779  0.5603  1.7626  1.4062
 4153TIP3    H233951   6.265   0.902  14.916  0.7689 -0.9536  0.3904
 4154TIP3   OH233952   1.278   2.705  15.327  0.3039  0.1005 -0.5263
 4154TIP3    H133953   1.265   2.800  15.317  1.8325  0.2553 -1.2485
 4154TIP3    H233954   1.328   2.680  15.250  2.2347 -0.8174  0.9592
 4155TIP3   OH233955   6.368   6.006  12.106  0.4202  0.3083  0.2732
 4155TIP3    H133956   6.276   6.030  12.119  0.5521  0.2072  1.5489
 4155TIP3    H233957   6.392   5.961  12.187  1.3468 -0.4598 -0.4158
 4156TIP3   OH233958   0.728   1.220  13.864  0.7834  0.4740  0.3023
 4156TIP3    H133959   0.645   1.180  13.892  0.3323 -0.3010 -1.9645
 4156TIP3    H233960   0.709   1.314  13.861  0.0697  0.3258  0.0563
 4157TIP3   OH233961   0.815   2.621  15.853  0.5167  0.2773  1.1049
 4157TIP3    H133962   0.820   2.547  15.791 -0.7824  1.9893 -1.2252
 4157TIP3    H233963   0.725   2.651  15.846  1.1656  2.4683  1.4974
 4158TIP3   OH233964   0.779   3.683   4.865 -0.1297 -0.6038 -0.0320
 4158TIP3    H133965   0.858   3.733   4.882 -1.2493  0.3290  3.1590
 4158TIP3    H233966   0.788   3.603   4.917 -1.1106 -0.6390  0.1196
 4159TIP3   OH233967   4.884   6.487  11.057 -0.5767 -0.5092 -0.4023
 4159TIP3    H133968   4.920   6.399  11.063  0.6974  0.0809  1.3621
 4159TIP3    H233969   4.907   6.517  10.969  0.5470 -1.2859 -0.3866
 4160TIP3   OH233970   2.652   1.063   3.495 -0.5994 -0.2288  0.0777
 4160TIP3    H133971   2.558   1.058   3.512 -0.6699 -3.3757 -0.6093
 4160TIP3    H233972   2.660   1.066   3.400 -0.0178 -0.5300  0.1094
 4161TIP3   OH233973   2.390   1.994  16.606 -0.2003 -0.2235 -0.0302
 4161TIP3    H133974   2.352   2.023  16.689 -0.2615 -1.1817  0.2895
 4161TIP3    H233975   2.420   1.905  16.624  0.3985 -0.1911 -0.8487
 4162TIP3   OH233976   2.821   1.143   2.167  0.1197  0.1865  0.4724
 4162TIP3    H133977   2.895   1.084   2.178 -0.1512 -0.2650 -0.1115
 4162TIP3    H233978   2.821   1.166   2.075  1.3221  2.5893  0.9950
 4163TIP3   OH233979   5.050   5.820  13.801  0.5608 -0.7633  0.3096
 4163TIP3    H133980   5.005   5.811  13.717 -0.5104 -2.0238  0.9872
 4163TIP3    H233981   5.134   5.861  13.778  0.1070 -0.6549 -1.3045
 4164TIP3   OH233982   6.340   1.208  10.712 -0.3694 -0.0304 -0.1138
 4164TIP3    H133983   6.279   1.157  10.658  0.2422  0.8894 -1.7717
 4164TIP3    H233984   6.378   1.272  10.651  2.3227 -0.6101  0.8191
 4165TIP3   OH233985   4.300   5.769   2.206  0.3441  0.0053  0.2570
 4165TIP3    H133986   4.224   5.764   2.264  0.1061 -1.2974 -0.1346
 4165TIP3    H233987   4.282   5.705   2.137  0.2336  2.1317 -1.7792
 4166TIP3   OH233988   0.111   3.788  15.477  0.3275  0.0895  0.0139
 4166TIP3    H133989   0.027   3.806  15.435  0.2331  0.6160  0.4082
 4166TIP3    H233990   0.115   3.852  15.548  0.5560 -0.6741  0.6987
 4167TIP3   OH233991   3.878   6.401  12.445 -0.2532  0.0149 -0.4784
 4167TIP3    H133992   3.949   6.337  12.440 -1.3342 -1.2206 -0.4417
 4167TIP3    H233993   3.922   6.483  12.469  1.3120 -0.4168 -1.6390
 4168TIP3   OH233994   0.875   5.646  12.033  0.0432 -0.0576 -0.1200
 4168TIP3    H133995   0.919   5.565  12.056  0.7094  0.6526  1.2145
 4168TIP3    H233996   0.847   5.683  12.117  0.3372  1.4048 -0.6353
 4169TIP3   OH233997   1.962   4.092   5.410 -0.1691  0.7292 -0.6806
 4169TIP3    H133998   1.970   4.033   5.335 -0.4292 -1.9683  1.2590
 4169TIP3    H233999   2.016   4.051   5.478 -0.8801  2.4131  0.9784
 4170TIP3   OH234000   6.051   2.963   3.053  0.0394 -0.2875 -0.6645
 4170TIP3    H134001   6.111   2.990   3.122  0.4940  0.4910 -1.3516
 4170TIP3    H234002   5.965   2.961   3.095 -0.3171  3.7574 -0.8799
 4171TIP3   OH234003   4.153   0.658  16.686  0.5567 -0.5394 -0.2111
 4171TIP3    H134004   4.225   0.599  16.661 -0.3112 -0.9528 -1.8734
 4171TIP3    H234005   4.184   0.745  16.660  0.6005 -0.6623 -0.5687
 4172TIP3   OH234006   0.430   0.583  15.375  0.1307  0.1203  0.1967
 4172TIP3    H134007   0.440   0.668  15.417  0.7695  0.8717 -1.3865
 4172TIP3    H234008   0.508   0.574  15.320 -0.5489 -0.9031 -0.6424
 4173TIP3   OH234009   6.240   4.967   3.913 -0.1891  0.4012  0.3538
 4173TIP3    H134010   6.251   4.968   3.818  0.6492  0.6926  0.4412
 4173TIP3    H234011   6.244   4.874   3.936  0.6288  0.3899  0.2025
 4174TIP3   OH234012   2.042   0.842  12.971  0.1107 -0.2780  0.2562
 4174TIP3    H134013   2.058   0.749  12.955 -1.6054 -0.2903 -1.9062
 4174TIP3    H234014   1.992   0.845  13.052  0.7230 -1.1617  0.6793
 4175TIP3   OH234015   0.866   2.915   5.610 -0.3879 -0.7070 -0.5741
 4175TIP3    H134016   0.820   2.924   5.694  1.0241  2.8358 -0.0045
 4175TIP3    H234017   0.798   2.889   5.548 -2.2256 -0.0264  1.0489
 4176TIP3   OH234018   4.033   1.531  13.847 -0.2542 -0.0911  0.4623
 4176TIP3    H134019   4.091   1.597  13.887 -0.4580  0.8263 -0.7058
 4176TIP3    H234020   4.086   1.491  13.779 -0.7467  0.2431 -0.1272
 4177TIP3   OH234021   6.750   4.617   1.629  0.6591 -0.3240  0.6527
 4177TIP3    H134022   6.657   4.606   1.607  0.7867 -0.2361  0.0335
 4177TIP3    H234023   6.753   4.696   1.682  0.2841 -0.7598  1.3344
 4178TIP3   OH234024   0.665   2.221  14.906 -0.1014  0.2253  0.2116
 4178TIP3    H134025   0.744   2.273  14.915 -1.2775  1.8226  1.9169
 4178TIP3    H234026   0.617   2.261  14.833  0.7916 -1.0000 -1.0984
 4179TIP3   OH234027   0.992   2.319  16.521 -0.3262 -0.9732  0.4187
 4179TIP3    H134028   0.911   2.337  16.472  0.6890  0.2111 -0.9247
 4179TIP3    H234029   0.998   2.391  16.584 -0.7712 -1.5726  1.1587
 4180TIP3   OH234030   4.628   3.220  10.672 -0.4304 -0.6265  0.0680
 4180TIP3    H134031   4.636   3.281  10.745 -2.1055  0.5382 -0.6530
 4180TIP3    H234032   4.615   3.276  10.595 -2.1563 -1.8537 -0.5982
 4181TIP3   OH234033   0.959   4.719   3.916  0.4552 -0.6982 -0.4226
 4181TIP3    H134034   0.900   4.775   3.965  0.1475 -2.3818  1.2263
 4181TIP3    H234035   1.042   4.725   3.962  1.5818  1.3780 -2.5224
 4182TIP3   OH234036   1.369   4.208  12.040 -0.8413 -0.1286  0.3042
 4182TIP3    H134037   1.416   4.291  12.050  1.3856 -1.4512  1.5132
 4182TIP3    H234038   1.374   4.189  11.946 -2.3760  1.5633 -0.2035
 4183TIP3   OH234039   2.466   5.131   0.827  0.2668 -0.0183  0.2849
 4183TIP3    H134040   2.402   5.062   0.845  0.4558 -0.3269 -0.2223
 4183TIP3    H234041   2.506   5.149   0.913 -1.4800  1.1929  0.9105
 4184TIP3   OH234042   2.379   5.255  11.708 -1.0086  0.1808 -0.2705
 4184TIP3    H134043   2.461   5.247  11.661 -0.2528  0.1262  1.0104
 4184TIP3    H234044   2.387   5.195  11.782 -1.7199  1.0165  0.5226
 4185TIP3   OH234045   3.840   4.253   2.143  0.4198 -0.0505 -0.3727
 4185TIP3    H134046   3.843   4.302   2.224  1.4644  1.9754 -1.5489
 4185TIP3    H234047   3.750   4.264   2.111  0.4042  0.3660 -0.1896
 4186TIP3   OH234048   3.264   6.332   2.152 -0.3019 -0.2282 -0.7726
 4186TIP3    H134049   3.318   6.410   2.162 -0.4876 -0.1967  0.0661
 4186TIP3    H234050   3.226   6.317   2.239 -1.6620 -0.2386 -1.3327
 4187TIP3   OH234051   1.278   4.262  15.151  1.0719 -0.1822 -0.7103
 4187TIP3    H134052   1.238   4.227  15.072  0.3417  0.0214 -0.4395
 4187TIP3    H234053   1.249   4.353  15.154  0.9689 -0.2342 -0.1209
 4188TIP3   OH234054   4.470   3.610  10.812 -0.0527  0.4282  0.0168
 4188TIP3    H134055   4.392   3.658  10.784 -0.0070 -0.1171 -1.1110
 4188TIP3    H234056   4.436   3.539  10.867 -0.4073 -0.0587 -0.8134
 4189TIP3   OH234057   3.119   0.921   0.675  0.0362 -0.2567  0.1454
 4189TIP3    H134058   3.200   0.949   0.631 -1.1230  0.4511 -1.6338
 4189TIP3    H234059   3.070   1.002   0.688 -0.0850 -0.5757  1.9437
 4190TIP3   OH234060   1.190   0.535   6.597 -0.3029 -0.3343  0.0284
 4190TIP3    H134061   1.193   0.441   6.612  1.6570 -0.7192 -2.1699
 4190TIP3    H234062   1.282   0.562   6.594 -0.8186  1.6633  0.5822
 4191TIP3   OH234063   2.649   5.251  16.365 -0.6136  0.6865  0.7520
 4191TIP3    H134064   2.653   5.196  16.443 -0.3362  2.3129  1.9472
 4191TIP3    H234065   2.741   5.271  16.345 -0.6858  0.2587 -0.0010
 4192TIP3   OH234066   6.285   0.994  15.089 -0.1093 -0.2217  0.0067
 4192TIP3    H134067   6.331   0.980  15.172 -1.9467  1.1898  1.3478
 4192TIP3    H234068   6.304   1.085  15.067  1.3181 -0.8950 -1.8188
 4193TIP3   OH234069   2.704   0.928  15.115 -0.3499 -0.5478 -0.0700
 4193TIP3    H134070   2.627   0.974  15.082 -1.4385 -2.2534 -0.0436
 4193TIP3    H234071   2.778   0.979  15.083 -1.4483  2.0434  1.1973
 4194TIP3   OH234072   3.552   5.069   3.959 -0.5038  0.0009 -0.0852
 4194TIP3    H134073   3.499   5.005   3.913 -2.7639  1.5025  0.2777
 4194TIP3    H234074   3.629   5.020   3.988 -0.5247 -1.7145 -2.6437
 4195TIP3   OH234075   2.762   3.456  12.965  0.4652  0.2423  0.7345
 4195TIP3    H134076   2.732   3.367  12.944  0.5490  0.7487 -1.8452
 4195TIP3    H234077   2.720   3.475  13.049 -1.5621 -1.3280  0.1804
 4196TIP3   OH234078   5.167   4.503  16.615 -0.4621  0.7575 -0.7864
 4196TIP3    H134079   5.171   4.422  16.565 -1.1171  1.7017 -2.4478
 4196TIP3    H234080   5.076   4.507  16.647 -0.3123  0.6364 -0.3372
 4197TIP3   OH234081   1.707   4.758  12.320  0.0926  0.4657  1.1965
 4197TIP3    H134082   1.727   4.823  12.388  2.5236  0.2853  0.7481
 4197TIP3    H234083   1.724   4.674  12.362  0.5291  0.3072  0.7185
 4198TIP3   OH234084   6.147   6.209  11.616  0.7104  0.4462  0.2788
 4198TIP3    H134085   6.233   6.244  11.595  0.7610  0.5360  0.6361
 4198TIP3    H234086   6.120   6.162  11.536 -0.0647  2.6580 -0.8690
 4199TIP3   OH234087   1.560   0.758   5.705  0.1629 -0.9425 -0.2834
 4199TIP3    H134088   1.505   0.747   5.628 -0.5805 -2.0348  0.3640
 4199TIP3    H234089   1.530   0.690   5.765  0.7081 -0.1063  0.9783
 4200TIP3   OH234090   0.448   2.352   3.292 -0.2741  0.8759  0.1363
 4200TIP3    H134091   0.366   2.357   3.242  0.2041 -0.2002 -0.7912
 4200TIP3    H234092   0.444   2.268   3.338  0.5984  0.4899 -0.4671
 4201TIP3   OH234093   0.275   3.889  12.167 -0.0216  0.2345  0.7716
 4201TIP3    H134094   0.234   3.828  12.106  1.2545  1.0212 -0.9508
 4201TIP3    H234095   0.308   3.834  12.238 -1.1067 -0.7591  0.5418
 4202TIP3   OH234096   5.655   4.735   3.857 -0.0303  0.2988 -0.1959
 4202TIP3    H134097   5.624   4.799   3.793  0.6014 -0.4453 -1.2659
 4202TIP3    H234098   5.584   4.672   3.865 -1.3377  1.8668  2.0331
 4203TIP3   OH234099   6.356   4.830   4.725  0.0423 -0.0126 -0.5973
 4203TIP3    H134100   6.360   4.829   4.821 -1.5464  2.8865 -0.4050
 4203TIP3    H234101   6.309   4.749   4.703  0.8909 -1.0073  0.9945
 4204TIP3   OH234102   0.423   3.399   1.660 -0.9484  0.0013  0.6411
 4204TIP3    H134103   0.515   3.378   1.641 -0.9596  0.6135 -0.1395
 4204TIP3    H234104   0.384   3.416   1.574 -2.0911 -1.3668  0.8360
 4205TIP3   OH234105   1.922   4.226  10.954  0.4736 -0.2972  0.2447
 4205TIP3    H134106   1.974   4.148  10.936 -0.9768 -1.2837  0.2118
 4205TIP3    H234107   1.833   4.203  10.928  0.0999  1.5600 -0.2891
 4206TIP3   OH234108   4.399   0.046  16.216  0.3323  0.1735  0.0309
 4206TIP3    H134109   4.348   0.126  16.201  1.5279  0.5524 -2.4643
 4206TIP3    H234110   4.338  -0.025  16.200 -0.0202  0.6026 -0.5387
 4207TIP3   OH234111   4.823   5.839   0.753 -0.1072 -0.1725 -0.5629
 4207TIP3    H134112   4.759   5.788   0.705 -1.0584  0.1984  0.2802
 4207TIP3    H234113   4.821   5.925   0.711 -0.9748  0.1668  0.1330
 4208TIP3   OH234114   1.215   4.818   1.449 -0.2215  0.3597 -0.1386
 4208TIP3    H134115   1.243   4.850   1.535  1.0358  1.5874 -0.9746
 4208TIP3    H234116   1.131   4.775   1.466  0.7691 -0.8834  1.9714
 4209TIP3   OH234117   3.462   1.237  15.626  0.0550  0.4133 -0.2984
 4209TIP3    H134118   3.393   1.294  15.661  1.0500  0.5720  1.5608
 4209TIP3    H234119   3.484   1.180  15.699  0.1357 -1.3721 -1.6660
 4210TIP3   OH234120   2.070   4.650   0.522 -0.2926 -0.4484 -0.7255
 4210TIP3    H134121   1.979   4.624   0.537 -0.4222 -1.3566 -2.7676
 4210TIP3    H234122   2.079   4.653   0.427  2.6905 -3.8771 -0.7880
 4211TIP3   OH234123   1.626   2.094   2.717 -0.0198  0.2642 -0.4684
 4211TIP3    H134124   1.629   2.163   2.651  2.0942 -0.2923 -1.0044
 4211TIP3    H234125   1.548   2.043   2.695  0.1148  0.6634 -1.9606
 4212TIP3   OH234126   4.915   4.077  12.986 -0.0633  0.2243 -0.3812
 4212TIP3    H134127   4.956   4.126  12.914 -2.0981  0.0710 -1.7006
 4212TIP3    H234128   4.932   3.986  12.964  0.3723  0.2114  0.0029
 4213TIP3   OH234129   3.012   6.731  10.787  0.7833  0.3832  0.1426
 4213TIP3    H134130   2.996   6.771  10.873 -1.7937  0.6878 -0.4077
 4213TIP3    H234131   2.956   6.653  10.786  0.0615  0.8903 -1.5716
 4214TIP3   OH234132   2.270   5.568  12.798 -0.2474 -0.0174  0.2259
 4214TIP3    H134133   2.260   5.485  12.751  1.9612  0.7324 -1.7768
 4214TIP3    H234134   2.311   5.544  12.881  0.4994 -0.9486 -0.3891
 4215TIP3   OH234135   3.469   3.289   4.413  0.7976  0.1376  0.2060
 4215TIP3    H134136   3.488   3.240   4.334  0.5444 -0.6924  0.6451
 4215TIP3    H234137   3.444   3.376   4.382  3.2186  0.6590 -0.4954
 4216TIP3   OH234138   0.488   0.399  13.226  0.2039 -0.2479 -0.0260
 4216TIP3    H134139   0.510   0.362  13.141  0.1609 -1.4376  0.4556
 4216TIP3    H234140   0.403   0.360  13.248  0.3000 -0.0988  0.6368
 4217TIP3   OH234141   1.697   4.923   3.237  0.2067  0.0405  0.0803
 4217TIP3    H134142   1.792   4.932   3.245  0.4363 -2.1807  0.4949
 4217TIP3    H234143   1.684   4.889   3.148 -0.2375  0.6497 -0.0921
 4218TIP3   OH234144   5.758   5.152   5.487 -0.3474  0.4983  0.1447
 4218TIP3    H134145   5.741   5.139   5.580 -2.1774 -1.3552 -0.3791
 4218TIP3    H234146   5.853   5.164   5.481 -0.2925  1.5287  2.2999
 4219TIP3   OH234147   0.985   1.614   6.263 -0.1697  0.0157 -0.2266
 4219TIP3    H134148   1.059   1.673   6.278 -0.0488 -0.0583 -0.5202
 4219TIP3    H234149   1.018   1.552   6.198 -0.9050  0.7280 -1.2942
 4220TIP3   OH234150   5.420   1.767   0.320  0.2757  0.3882  0.5040
 4220TIP3    H134151   5.392   1.848   0.279 -0.1775  1.0856  2.1032
 4220TIP3    H234152   5.501   1.742   0.274  0.5325  1.8558  0.1312
 4221TIP3   OH234153   4.461   4.956  14.421 -0.1179  0.1180 -0.6669
 4221TIP3    H134154   4.552   4.936  14.444 -0.7051 -3.0491 -0.6587
 4221TIP3    H234155   4.457   4.941  14.327 -0.9028 -1.1645 -0.4498
 4222TIP3   OH234156   1.833   2.706  16.298  0.3652  0.0227  0.3229
 4222TIP3    H134157   1.915   2.681  16.257  0.9340 -0.7658  1.8898
 4222TIP3    H234158   1.791   2.624  16.323 -1.3868  0.3558 -1.2871
 4223TIP3   OH234159   4.473   0.619   1.306 -0.3045  0.7611  0.4753
 4223TIP3    H134160   4.540   0.563   1.346 -0.1148  0.3467 -0.3788
 4223TIP3    H234161   4.520   0.699   1.282 -0.1015  0.4741 -0.1150
 4224TIP3   OH234162   0.689   0.206  13.620  0.8046 -0.1006 -0.1054
 4224TIP3    H134163   0.671   0.113  13.628  1.0345 -0.2063 -0.7640
 4224TIP3    H234164   0.740   0.228  13.698 -0.2225 -0.2749  0.6373
 4225TIP3   OH234165   4.483   0.137  16.479 -0.6394  0.1129 -0.1264
 4225TIP3    H134166   4.458   0.082  16.405 -1.2382 -0.6653  0.6206
 4225TIP3    H234167   4.418   0.117  16.546 -0.5455  1.3595  0.3524
 4226TIP3   OH234168   4.826   1.087   6.346 -0.4110  0.4079 -0.1915
 4226TIP3    H134169   4.838   1.157   6.409 -0.0680 -0.8043  1.1534
 4226TIP3    H234170   4.877   1.014   6.380 -1.6513 -0.8771 -0.9173
 4227TIP3   OH234171   5.030   6.341  13.589 -0.3202  0.0116  0.4949
 4227TIP3    H134172   5.049   6.367  13.499 -2.8933  0.1443 -0.1098
 4227TIP3    H234173   4.977   6.262  13.580 -1.7008  0.7372  1.7843
 4228TIP3   OH234174   6.322   1.720  12.759 -0.0288 -0.8486  0.1050
 4228TIP3    H134175   6.396   1.763  12.803 -0.1002 -1.7534  1.1804
 4228TIP3    H234176   6.301   1.777  12.685  0.6326  0.3174  0.7826
 4229TIP3   OH234177   2.223   3.946   0.039  0.3046 -0.4417 -0.8017
 4229TIP3    H134178   2.149   3.955  -0.021 -0.1885  0.5683 -0.0708
 4229TIP3    H234179   2.210   3.860   0.079 -0.6714 -0.1457 -0.4431
 4230TIP3   OH234180   0.094   6.678  15.017  0.0488 -0.0620 -0.1755
 4230TIP3    H134181   0.056   6.594  15.044 -0.4934 -0.0273 -0.8177
 4230TIP3    H234182   0.171   6.688  15.074 -0.5182 -0.4475  0.6947
 4231TIP3   OH234183   2.356   3.329  15.034  0.0963 -0.8132 -0.2953
 4231TIP3    H134184   2.359   3.393  15.105 -0.1313 -2.1685  0.9971
 4231TIP3    H234185   2.294   3.365  14.971 -0.8183 -0.2345  0.9007
 4232TIP3   OH234186   3.313   0.325   4.118 -0.0864 -0.0807 -0.2594
 4232TIP3    H134187   3.366   0.253   4.085 -1.0702  0.4785 -3.4076
 4232TIP3    H234188   3.222   0.298   4.102 -0.6295  0.6537  1.2979
 4233TIP3   OH234189   1.086   6.628  16.869 -0.1917  0.4880  0.3087
 4233TIP3    H134190   0.993   6.641  16.889  0.1554  0.5983  1.9525
 4233TIP3    H234191   1.102   6.685  16.794 -1.7714 -0.6383 -0.9815
 4234TIP3   OH234192   4.636   5.904  15.670  0.4720 -0.1306 -0.0182
 4234TIP3    H134193   4.655   5.838  15.736  0.0442 -1.3877 -1.1094
 4234TIP3    H234194   4.541   5.900  15.658  0.5638 -0.0834 -0.8575
 4235TIP3   OH234195   6.083   3.492  12.583  0.4009  0.4956 -0.2556
 4235TIP3    H134196   6.090   3.406  12.541  0.1004  0.7116 -0.7606
 4235TIP3    H234197   6.133   3.483  12.664 -0.6121 -0.5157  0.2908
 4236TIP3   OH234198   2.969   6.083   5.284  0.3054 -0.0747 -0.0156
 4236TIP3    H134199   3.044   6.143   5.282  0.0895  0.2783  1.3190
 4236TIP3    H234200   2.908   6.124   5.345 -0.7157 -0.6722 -0.6130
 4237TIP3   OH234201   2.339   5.423   2.956 -0.8634 -0.6715 -0.2363
 4237TIP3    H134202   2.266   5.443   2.897 -2.5419  0.2107  1.9951
 4237TIP3    H234203   2.310   5.454   3.042  1.8234 -1.0770  0.9263
 4238TIP3   OH234204   3.904   0.029   5.984 -0.6728  0.0453 -0.2717
 4238TIP3    H134205   3.950   0.106   5.950  0.3080 -0.3633  0.1053
 4238TIP3    H234206   3.822   0.026   5.934 -1.7921  2.6064  1.2206
 4239TIP3   OH234207   0.703   0.297   5.813  0.0837  0.4175  0.2190
 4239TIP3    H134208   0.679   0.237   5.884 -1.1963 -0.5883 -0.9940
 4239TIP3    H234209   0.798   0.292   5.808  0.2683  0.9999  2.2412
 4240TIP3   OH234210   4.922   1.944   5.807  0.2225 -0.5185 -0.2318
 4240TIP3    H134211   4.885   2.017   5.857 -1.3758 -1.4864  0.0799
 4240TIP3    H234212   5.010   1.932   5.843  0.2222  0.7398  0.2447
 4241TIP3   OH234213   2.061   0.994  14.027 -0.0376  0.3210  0.3014
 4241TIP3    H134214   2.138   0.998  14.083 -0.4805  1.2479  0.8649
 4241TIP3    H234215   2.093   1.017  13.940 -0.0014  2.9000  0.9114
 4242TIP3   OH234216   3.238   2.995   2.670 -0.3523  0.0773 -0.0457
 4242TIP3    H134217   3.328   2.973   2.645 -0.2760  0.6099 -0.2515
 4242TIP3    H234218   3.208   2.919   2.719 -1.2991 -2.1325 -3.6488
 4243TIP3   OH234219   6.072   1.384   0.954  0.2341  0.2180  0.2848
 4243TIP3    H134220   6.145   1.440   0.930 -0.5673  0.5430 -1.5504
 4243TIP3    H234221   5.996   1.442   0.954 -0.7654 -0.9177 -2.5041
 4244TIP3   OH234222   1.036   4.196   4.471  0.9464 -0.6933  0.3467
 4244TIP3    H134223   1.005   4.283   4.494  0.7171 -0.6639 -0.0605
 4244TIP3    H234224   0.970   4.137   4.507  0.3178 -0.6243 -0.6457
 4245TIP3   OH234225   5.038   2.553  11.675 -0.9961 -0.0671 -0.4628
 4245TIP3    H134226   5.105   2.553  11.606  0.5193  2.6767  0.8637
 4245TIP3    H234227   4.961   2.593  11.633 -1.8450 -2.9039 -1.8838
 4246TIP3   OH234228   6.526   1.275  16.918  0.6817  0.2436  0.3867
 4246TIP3    H134229   6.446   1.258  16.868  0.6087  1.6484  0.0055
 4246TIP3    H234230   6.571   1.190  16.919 -0.7188 -0.5301  0.4771
 4247TIP3   OH234231   5.270   0.878  12.215 -0.4239  0.0597  0.2522
 4247TIP3    H134232   5.326   0.932  12.158  0.1846  0.0845  0.8608
 4247TIP3    H234233   5.331   0.840  12.279 -1.1301  0.1970  1.0125
 4248TIP3   OH234234   1.925   6.737   4.936 -0.2716 -0.9464 -0.2872
 4248TIP3    H134235   1.903   6.770   4.849 -0.6921 -1.5184 -0.4119
 4248TIP3    H234236   1.868   6.660   4.947 -0.8468 -0.3916  0.8350
 4249TIP3   OH234237   2.549   3.076  13.215 -0.1461  0.0285 -0.3675
 4249TIP3    H134238   2.488   3.137  13.257  1.1207  0.7224  0.5114
 4249TIP3    H234239   2.599   3.131  13.155  0.4901 -0.2918 -0.1285
 4250TIP3   OH234240   5.413   2.798  13.965 -0.0105  0.8104 -0.0675
 4250TIP3    H134241   5.414   2.888  13.933  0.0585  0.4231 -1.2257
 4250TIP3    H234242   5.490   2.757  13.925  0.7869  0.5989  1.6029
 4251TIP3   OH234243   5.403   5.320   5.700  0.5596  0.2125  0.4582
 4251TIP3    H134244   5.413   5.257   5.629 -2.5767  0.0285  0.0395
 4251TIP3    H234245   5.391   5.266   5.778  0.3013  0.3453  0.5096
 4252TIP3   OH234246   1.954   2.588   2.705  0.0597  0.1240 -0.5254
 4252TIP3    H134247   1.948   2.678   2.738 -0.5421 -0.3306  0.6603
 4252TIP3    H234248   1.994   2.597   2.619  1.1637  1.4079  0.0908
 4253TIP3   OH234249   6.725   2.504  16.852  0.0701 -0.2421  0.2423
 4253TIP3    H134250   6.671   2.439  16.806  0.1573  1.1350 -1.9212
 4253TIP3    H234251   6.749   2.567  16.785 -1.0244  2.7645  2.4857
 4254TIP3   OH234252   1.007   1.789   3.356 -0.4831 -0.0311  0.3012
 4254TIP3    H134253   1.036   1.750   3.273 -1.1710  0.2168 -0.0717
 4254TIP3    H234254   1.035   1.728   3.423  1.0223  0.2746 -0.0155
 4255TIP3   OH234255   1.384   6.452   4.003 -0.1701 -0.2933  0.0534
 4255TIP3    H134256   1.350   6.380   4.057 -0.2593 -0.3979 -0.1407
 4255TIP3    H234257   1.473   6.465   4.034 -0.9319  1.2025  1.8243
 4256TIP3   OH234258   1.464   0.888   4.677  0.0369  0.7172  0.0085
 4256TIP3    H134259   1.405   0.841   4.735 -0.3573  0.9209 -0.2194
 4256TIP3    H234260   1.416   0.968   4.653  0.3787  0.8571 -0.2264
 4257TIP3   OH234261   2.247   6.549  14.246 -0.3242  0.2368  0.3348
 4257TIP3    H134262   2.159   6.579  14.221 -0.4291 -0.6688 -0.4300
 4257TIP3    H234263   2.306   6.604  14.195 -0.4854 -0.0682 -0.1863
 4258TIP3   OH234264   2.254   0.964   0.454 -0.6379  0.5117 -0.4156
 4258TIP3    H134265   2.323   0.940   0.392  1.2091  0.4379  1.5519
 4258TIP3    H234266   2.294   1.031   0.509 -2.5719  1.3214  0.0699
 4259TIP3   OH234267   6.164   2.172  16.862  0.0424  0.3344 -0.3592
 4259TIP3    H134268   6.221   2.245  16.887  0.2973 -0.2651  0.8845
 4259TIP3    H234269   6.126   2.199  16.778  0.2068  1.8428  0.0250
 4260TIP3   OH234270   0.439   2.180  13.351  0.2212  0.2032 -0.1961
 4260TIP3    H134271   0.379   2.251  13.328 -0.0607  0.1931  0.4777
 4260TIP3    H234272   0.508   2.223  13.402  0.1408  0.0270  0.0652
 4261TIP3   OH234273   0.212   2.608  16.983  0.0862  0.0272 -0.0427
 4261TIP3    H134274   0.141   2.618  17.046  0.0427 -2.1585  0.3501
 4261TIP3    H234275   0.287   2.649  17.024 -0.5485  0.8851  0.2815
 4262TIP3   OH234276   1.173   4.037   2.048  0.1240  0.5974 -0.4102
 4262TIP3    H134277   1.266   4.025   2.028  0.0218 -2.0650  0.3512
 4262TIP3    H234278   1.138   3.948   2.056 -2.8786  1.4736 -2.1704
 4263TIP3   OH234279   1.146   5.792   2.681 -0.2196 -0.2828  0.2007
 4263TIP3    H134280   1.150   5.870   2.736 -0.2600 -0.6333  0.7178
 4263TIP3    H234281   1.061   5.797   2.638 -0.5560 -0.4200  0.8266
 4264TIP3   OH234282   2.828   5.332   4.781 -0.0020  0.3164  0.3258
 4264TIP3    H134283   2.862   5.247   4.810 -1.0362  0.2746  1.5016
 4264TIP3    H234284   2.872   5.349   4.698 -0.9215 -2.0989 -0.7236
 4265TIP3   OH234285   4.766   5.049   0.934  0.8283  0.0266  0.0822
 4265TIP3    H134286   4.754   5.044   1.029  1.2767 -0.8991  0.1032
 4265TIP3    H234287   4.679   5.030   0.898  0.5415  0.8769  0.3037
 4266TIP3   OH234288   6.497   2.254  14.499  0.1742  0.0051  0.0104
 4266TIP3    H134289   6.511   2.176  14.445 -1.6582 -0.1855 -0.2669
 4266TIP3    H234290   6.417   2.293  14.464 -0.5110  0.4426  1.9309
 4267TIP3   OH234291   4.477   6.471   3.857 -0.0940  0.4203  0.0022
 4267TIP3    H134292   4.525   6.549   3.830  0.7608 -0.7342 -2.0951
 4267TIP3    H234293   4.388   6.485   3.823  0.2090  0.2731 -0.8963
 4268TIP3   OH234294   3.072   4.470  16.885 -0.4953 -0.3970 -0.2177
 4268TIP3    H134295   3.141   4.475  16.951 -2.1040 -1.4166  1.6615
 4268TIP3    H234296   3.024   4.553  16.893 -0.0816 -0.0914 -0.8457
 4269TIP3   OH234297   0.303   5.034   4.665 -0.1550  0.4720  0.2254
 4269TIP3    H134298   0.257   4.956   4.694  0.5467 -1.1179 -2.6248
 4269TIP3    H234299   0.273   5.049   4.576  3.3181  0.4446 -1.1111
 4270TIP3   OH234300   0.584   6.813   0.656 -0.2600  0.2572  0.3016
 4270TIP3    H134301   0.494   6.838   0.638 -0.0112  0.5357 -0.6097
 4270TIP3    H234302   0.579   6.760   0.735 -1.4559 -1.2601 -0.7308
 4271TIP3   OH234303   1.989   0.347   2.753  0.3053 -0.0580 -0.1493
 4271TIP3    H134304   1.895   0.366   2.760 -0.0767 -1.9198  0.3759
 4271TIP3    H234305   2.020   0.407   2.686 -1.4697 -0.0638 -1.0414
 4272TIP3   OH234306   6.785   3.477  12.952 -0.0215 -0.7680 -0.4514
 4272TIP3    H134307   6.725   3.413  12.915  3.4024 -4.0157 -0.9526
 4272TIP3    H234308   6.829   3.516  12.877 -1.4473  1.7453 -0.1075
 4273TIP3   OH234309   4.584   5.166   1.658 -0.7225  0.2305 -0.2062
 4273TIP3    H134310   4.534   5.243   1.631  0.5987  0.6843 -1.4661
 4273TIP3    H234311   4.560   5.099   1.594 -0.0269  0.3342 -0.5811
 4274TIP3   OH234312   0.410   6.467   0.607  0.0229 -0.0265  0.2553
 4274TIP3    H134313   0.378   6.495   0.693 -0.2120  1.6674 -0.3350
 4274TIP3    H234314   0.482   6.407   0.627 -0.2526  0.0531  1.6263
 4275TIP3   OH234315   6.602   3.784  15.146  0.0031  0.1694 -0.2784
 4275TIP3    H134316   6.620   3.854  15.083 -1.1593  0.7189 -0.0470
 4275TIP3    H234317   6.513   3.803  15.177  0.8840  0.5495  2.3115
 4276TIP3   OH234318   4.655   1.188   3.078  0.4560  0.4321 -0.3029
 4276TIP3    H134319   4.620   1.199   3.166  1.9745 -1.2468  0.5928
 4276TIP3    H234320   4.713   1.263   3.066  0.7685  0.3180  0.4219
 4277TIP3   OH234321   2.648   5.392   2.973  0.1182 -0.4573  0.0878
 4277TIP3    H134322   2.558   5.417   2.949 -0.0359  1.9756  2.5960
 4277TIP3    H234323   2.638   5.309   3.019 -0.6531 -0.9101 -0.8587
 4278TIP3   OH234324   4.595   6.717   3.769  0.2485 -0.7093 -0.8057
 4278TIP3    H134325   4.652   6.736   3.695 -1.7341  1.0576 -1.9746
 4278TIP3    H234326   4.617   6.784   3.834 -0.9131  0.4427 -1.5504
 4279TIP3   OH234327   5.776   3.294   4.736 -0.2521  0.3056 -0.2765
 4279TIP3    H134328   5.821   3.298   4.651 -1.5802  0.4366 -1.0046
 4279TIP3    H234329   5.738   3.206   4.738 -0.3743  0.3689  0.1078
 4280TIP3   OH234330   1.585   3.227   3.487 -0.0409  0.0805  0.4876
 4280TIP3    H134331   1.575   3.248   3.580  0.5546 -1.3704  0.8896
 4280TIP3    H234332   1.645   3.294   3.454  1.3189 -0.5383  1.6017
 4281TIP3   OH234333   6.547   3.258  16.126  0.0372  0.2823 -0.1660
 4281TIP3    H134334   6.602   3.181  16.136 -0.6277 -0.1016  0.7014
 4281TIP3    H234335   6.469   3.239  16.178 -1.0589  0.6789 -1.5954
 4282TIP3   OH234336   1.016   1.343   6.174  0.4578 -0.7937  0.3167
 4282TIP3    H134337   0.953   1.372   6.108  1.0661  0.2027  0.1467
 4282TIP3    H234338   0.984   1.258   6.203 -2.0950  0.5317  1.7098
 4283TIP3   OH234339   3.290   2.368   0.140  0.1360  0.2152 -0.5596
 4283TIP3    H134340   3.260   2.350   0.051 -1.9798 -1.8912  0.5092
 4283TIP3    H234341   3.385   2.378   0.131 -0.1325  1.1724 -3.1786
 4284TIP3   OH234342   1.986   5.564  12.107 -0.2644  0.5010 -0.0617
 4284TIP3    H134343   1.901   5.557  12.065 -1.4470  0.9631  2.1036
 4284TIP3    H234344   1.994   5.484  12.159  0.2592  0.8367  0.3866
 4285TIP3   OH234345   5.083   3.183   2.519 -0.5473  0.5528 -1.0194
 4285TIP3    H134346   5.123   3.218   2.599  0.4903  0.2088 -1.3744
 4285TIP3    H234347   4.990   3.205   2.527 -0.1205  2.3972 -0.7079
 4286TIP3   OH234348   0.409   1.863   3.665  0.5537  0.0347 -0.1670
 4286TIP3    H134349   0.446   1.790   3.617 -0.1703 -0.6771  0.3279
 4286TIP3    H234350   0.354   1.909   3.601 -0.4421 -0.9357 -0.0363
 4287TIP3   OH234351   5.276   2.216   4.834 -0.2571 -0.7389 -0.3948
 4287TIP3    H134352   5.368   2.214   4.861 -0.1415  1.7608 -0.3871
 4287TIP3    H234353   5.230   2.169   4.903  0.8554 -0.7382  0.3810
 4288TIP3   OH234354   5.775   2.632   1.434 -0.3714 -0.5073  0.1609
 4288TIP3    H134355   5.811   2.718   1.457 -1.1679 -0.2863  0.6181
 4288TIP3    H234356   5.847   2.571   1.448  0.7101  0.2472 -1.6705
 4289TIP3   OH234357   4.503   3.317   1.976  0.3150  0.0263  0.0817
 4289TIP3    H134358   4.574   3.257   1.999  1.0436  0.6376 -0.4840
 4289TIP3    H234359   4.458   3.275   1.903  0.7547  0.1001 -0.2403
 4290TIP3   OH234360   0.351   3.944  11.699  1.6051  0.4361  0.5364
 4290TIP3    H134361   0.391   3.981  11.620 -0.7813 -0.4282 -1.1713
 4290TIP3    H234362   0.265   3.985  11.704  0.6563 -1.5365  1.1362
 4291TIP3   OH234363   4.976   6.236  11.093  0.1734  0.1084  0.0859
 4291TIP3    H134364   5.013   6.205  11.176  0.5092  2.1432  0.7686
 4291TIP3    H234365   5.047   6.225  11.030 -0.8837 -3.9233 -0.7034
 4292TIP3   OH234366   5.200   4.212  13.250  0.0935  0.2438  0.6656
 4292TIP3    H134367   5.294   4.193  13.245 -0.0703 -0.1879 -2.2690
 4292TIP3    H234368   5.190   4.294  13.203 -1.2016 -0.7723 -0.9416
 4293TIP3   OH234369   5.703   5.424  11.451 -0.2579  0.5341  0.2695
 4293TIP3    H134370   5.631   5.368  11.423  0.9137 -0.1250 -1.6661
 4293TIP3    H234371   5.666   5.513  11.451 -0.8588  0.3451 -1.7669
 4294TIP3   OH234372   3.644   0.024  11.286  0.3853 -0.0795  0.0824
 4294TIP3    H134373   3.616   0.113  11.304 -0.6847 -0.8725  2.9926
 4294TIP3    H234374   3.728   0.033  11.241  1.0949  2.4144  1.7067
 4295TIP3   OH234375   0.702   0.594   2.867  0.1667  0.2898 -0.2707
 4295TIP3    H134376   0.743   0.514   2.900 -1.3531  0.1764  1.5230
 4295TIP3    H234377   0.662   0.634   2.944  1.3837  3.1415 -0.9772
 4296TIP3   OH234378   1.020   3.056   1.453 -0.8544  0.0749  0.3010
 4296TIP3    H134379   0.973   3.093   1.378  0.7961 -0.2257 -0.9504
 4296TIP3    H234380   0.998   2.963   1.452 -1.3004  0.1710  0.5819
 4297TIP3   OH234381   6.426   5.019  10.355 -0.6848 -0.2130  0.5170
 4297TIP3    H134382   6.342   5.007  10.311 -0.2040 -1.9190 -0.0253
 4297TIP3    H234383   6.484   4.955  10.314  1.4607  2.1830 -0.5026
 4298TIP3   OH234384   4.701   2.383  13.583  0.8695  0.5401  0.6158
 4298TIP3    H134385   4.672   2.429  13.662  0.7761  1.4098  0.0835
 4298TIP3    H234386   4.662   2.296  13.590  0.1493  0.8968  1.0968
 4299TIP3   OH234387   5.979   1.459  15.131 -1.0246  0.5047 -0.0730
 4299TIP3    H134388   5.968   1.394  15.062  0.0523 -0.8612  0.9700
 4299TIP3    H234389   5.901   1.451  15.185  0.1164 -1.7579  1.4272
 4300TIP3   OH234390   0.328   1.651  16.730 -0.0827 -0.3160 -0.3695
 4300TIP3    H134391   0.274   1.612  16.798 -0.2993 -0.2882 -0.5248
 4300TIP3    H234392   0.321   1.746  16.745 -1.0671 -0.2532 -1.1363
 4301TIP3   OH234393   6.196   4.523  11.773 -0.8833  0.3073  0.2783
 4301TIP3    H134394   6.148   4.452  11.817 -0.7166 -0.0996 -0.1866
 4301TIP3    H234395   6.130   4.566  11.719 -1.4192  1.6742  1.9017
 4302TIP3   OH234396   5.943   1.143   3.656  0.3551 -0.0515  0.3312
 4302TIP3    H134397   5.973   1.054   3.673  2.1998  0.8444  2.2712
 4302TIP3    H234398   5.854   1.146   3.693 -0.1417 -1.3197 -0.6908
 4303TIP3   OH234399   5.921   2.883  16.513  0.2095  0.0868  0.1100
 4303TIP3    H134400   5.840   2.841  16.485 -0.5153  1.0689  0.6273
 4303TIP3    H234401   5.958   2.920  16.433  0.4358 -0.8304 -0.2140
 4304TIP3   OH234402   5.416   3.098   3.720 -0.0137  0.3627  0.0675
 4304TIP3    H134403   5.447   3.162   3.785 -0.5878  0.5334  0.1772
 4304TIP3    H234404   5.328   3.128   3.697 -0.5944 -0.8059  0.6773
 4305TIP3   OH234405   2.274   5.114  14.085  0.0102  0.4151 -1.2119
 4305TIP3    H134406   2.284   5.200  14.043  0.3266  0.6663 -0.6374
 4305TIP3    H234407   2.363   5.079  14.088 -0.2306 -0.3339 -2.2471
 4306TIP3   OH234408   5.102   6.399  17.057 -0.0449  0.0633 -0.3647
 4306TIP3    H134409   5.034   6.346  17.014 -2.6932  1.2224  2.1059
 4306TIP3    H234410   5.091   6.381  17.150  2.0230  1.5390  0.2232
 4307TIP3   OH234411   1.921   6.249  13.622 -0.3580 -0.3753 -0.6383
 4307TIP3    H134412   1.867   6.221  13.549 -0.5659 -0.4350 -0.4618
 4307TIP3    H234413   1.993   6.299  13.582  0.6155 -2.0517 -1.0557
 4308TIP3   OH234414   1.324   2.823   4.809 -0.9904 -0.0113  0.3900
 4308TIP3    H134415   1.414   2.816   4.778 -0.9169  0.0825  0.5772
 4308TIP3    H234416   1.315   2.752   4.873 -0.4489  1.1226  1.7938
 4309TIP3   OH234417   2.639   2.593  15.726 -0.1105 -0.0136  0.7822
 4309TIP3    H134418   2.624   2.582  15.632  0.0512 -2.9082  1.0035
 4309TIP3    H234419   2.723   2.549  15.743 -0.3705  0.0218  2.3274
 4310TIP3   OH234420   1.247   6.749  15.091 -0.1257  0.2008 -0.4361
 4310TIP3    H134421   1.218   6.746  15.182  0.6059  0.3321 -0.1902
 4310TIP3    H234422   1.285   6.662  15.076  1.1319  0.6766 -0.1346
 4311TIP3   OH234423   0.537   1.787  14.384  0.6185  0.3332 -0.3817
 4311TIP3    H134424   0.610   1.727  14.398  0.5315  0.2085 -0.4576
 4311TIP3    H234425   0.466   1.751  14.437  0.0311 -0.6085 -1.7556
 4312TIP3   OH234426   6.192   5.445   0.739  0.1669 -0.3357 -0.5926
 4312TIP3    H134427   6.210   5.418   0.649 -0.3797  0.8831 -1.0872
 4312TIP3    H234428   6.112   5.398   0.763 -0.0598 -0.1522 -0.9870
 4313TIP3   OH234429   4.729   1.018  14.087 -0.1743  0.6919 -0.3225
 4313TIP3    H134430   4.748   1.108  14.113 -1.1457  1.4993 -2.1941
 4313TIP3    H234431   4.813   0.985  14.055  0.2881  0.7704  0.7801
 4314TIP3   OH234432   4.737   5.579  16.394 -0.0315 -0.0514  0.0385
 4314TIP3    H134433   4.658   5.632  16.393  1.5965  2.5480 -0.8951
 4314TIP3    H234434   4.723   5.513  16.326 -0.6741  1.6244 -1.5501
 4315TIP3   OH234435   1.184   5.463   2.111  0.1128  0.1389  0.3172
 4315TIP3    H134436   1.193   5.494   2.201  0.8155 -0.3647  0.4254
 4315TIP3    H234437   1.091   5.473   2.092  0.0695  0.9047  0.8574
 4316TIP3   OH234438   4.428   2.752   5.372  0.1301 -0.7370  0.3786
 4316TIP3    H134439   4.486   2.813   5.419 -0.7742  0.2505  0.2486
 4316TIP3    H234440   4.485   2.678   5.350  0.3799 -1.8545  4.0229
 4317TIP3   OH234441   2.670   5.475  14.647  0.1254 -0.4616 -0.6065
 4317TIP3    H134442   2.699   5.389  14.616 -0.2451  0.2439 -3.1837
 4317TIP3    H234443   2.575   5.476  14.632  0.2840  0.7758 -1.7745
 4318TIP3   OH234444   2.848   0.131  12.140 -0.5699 -0.1739  0.3072
 4318TIP3    H134445   2.792   0.209  12.139  0.0541  0.3061  1.3539
 4318TIP3    H234446   2.790   0.060  12.164 -1.2747 -0.1640 -1.2238
 4319TIP3   OH234447   6.254   5.510   1.039 -0.4691 -0.0274 -0.0307
 4319TIP3    H134448   6.233   5.497   0.946 -0.1043  0.1404 -0.1410
 4319TIP3    H234449   6.218   5.433   1.083  0.7648 -0.9340 -0.5370
 4320TIP3   OH234450   4.564   6.245  14.966 -0.2813  0.4381  0.1684
 4320TIP3    H134451   4.622   6.297  14.910  0.3010 -0.4338 -0.0599
 4320TIP3    H234452   4.476   6.276  14.945 -0.0725  0.1361 -1.2282
 4321TIP3   OH234453   2.498   1.774   1.923 -0.5122  0.4081 -0.1394
 4321TIP3    H134454   2.405   1.795   1.917 -0.3785  0.9368 -0.3872
 4321TIP3    H234455   2.542   1.858   1.931 -0.2684  0.0873  3.5516
 4322TIP3   OH234456   3.743   5.632   1.371  0.4695  0.1160  0.7114
 4322TIP3    H134457   3.678   5.651   1.438 -1.9588 -0.9232 -1.1847
 4322TIP3    H234458   3.805   5.705   1.376 -2.0260  2.3510  1.2424
 4323TIP3   OH234459   4.669   6.662  15.507 -0.3636  0.3083 -0.2854
 4323TIP3    H134460   4.613   6.728  15.546  1.0849  1.9686 -0.8583
 4323TIP3    H234461   4.736   6.713  15.460  0.6726 -1.5772 -0.9428
 4324TIP3   OH234462   1.307   4.214  16.441  0.0540 -0.1507  0.2382
 4324TIP3    H134463   1.266   4.128  16.443 -0.1508 -0.0432  0.6691
 4324TIP3    H234464   1.307   4.239  16.348  0.9966 -1.0360 -0.0205
 4325TIP3   OH234465   0.699   1.433  13.234  0.0264  0.1226 -0.2540
 4325TIP3    H134466   0.710   1.404  13.144 -1.9675 -1.0095 -0.2069
 4325TIP3    H234467   0.763   1.503  13.246  0.9958 -0.3799 -2.2211
 4326TIP3   OH234468   2.673   6.538  16.703  0.2732 -0.3047 -0.5196
 4326TIP3    H134469   2.657   6.454  16.746 -0.9145  0.4095  0.5018
 4326TIP3    H234470   2.734   6.584  16.762  1.6922 -0.7939 -1.5543
 4327TIP3   OH234471   0.377   4.601   6.632  0.0207  0.2129  0.2590
 4327TIP3    H134472   0.319   4.564   6.698  1.4688 -1.9663  0.4294
 4327TIP3    H234473   0.357   4.552   6.553 -1.0125  2.1314 -0.7371
 4328TIP3   OH234474   1.791   2.373   0.446  0.0668 -0.6731 -0.3717
 4328TIP3    H134475   1.850   2.308   0.484 -0.6133 -0.7831  0.5284
 4328TIP3    H234476   1.789   2.444   0.511  1.5284  0.7180 -1.7401
 4329TIP3   OH234477   2.917   3.496   3.834  0.4709  0.3137  0.1248
 4329TIP3    H134478   2.823   3.486   3.852 -0.2399  1.2670 -2.5964
 4329TIP3    H234479   2.927   3.471   3.742  3.1316 -0.8923  0.6347
 4330TIP3   OH234480   2.376   6.688   0.034 -0.2258 -0.1244 -0.0169
 4330TIP3    H134481   2.312   6.617   0.034 -1.1115  0.5635 -2.6127
 4330TIP3    H234482   2.446   6.657  -0.023 -0.5444  0.9700 -1.0454
 4331TIP3   OH234483   1.723   2.146  15.212 -0.4648 -0.2660 -0.2616
 4331TIP3    H134484   1.794   2.175  15.269 -1.3416  2.2614 -0.3250
 4331TIP3    H234485   1.763   2.081  15.154  1.2352 -0.4941  1.1043
 4332TIP3   OH234486   3.729   1.457  11.339 -0.3779  0.0614  0.3520
 4332TIP3    H134487   3.717   1.427  11.249  2.3295  0.9600 -0.4124
 4332TIP3    H234488   3.713   1.379  11.392 -2.6336 -0.3483 -0.8013
 4333TIP3   OH234489   6.547   6.362   0.925  0.0993  0.1975  0.2320
 4333TIP3    H134490   6.572   6.405   1.007 -0.4257  1.5624 -0.2864
 4333TIP3    H234491   6.615   6.297   0.910  2.8968  3.1026 -0.6510
 4334TIP3   OH234492   1.177   6.146   4.806 -0.0545  0.2198  0.6130
 4334TIP3    H134493   1.085   6.159   4.829  0.2987  0.3429  2.0253
 4334TIP3    H234494   1.196   6.056   4.832 -0.4626 -0.7802 -2.1992
 4335TIP3   OH234495   1.706   6.532   6.020 -0.2136 -0.0516  0.2078
 4335TIP3    H134496   1.637   6.526   6.087 -0.8829  4.1713  0.1316
 4335TIP3    H234497   1.659   6.519   5.938  0.0988 -2.2543  0.3106
 4336TIP3   OH234498   3.950   1.491  13.164 -0.4823 -0.2902  0.3102
 4336TIP3    H134499   3.963   1.426  13.233  2.0788  0.9153  1.0909
 4336TIP3    H234500   3.902   1.444  13.095  0.8395 -2.8710  1.0188
 4337TIP3   OH234501   4.655   3.535   1.905  0.4617  0.7832  0.2132
 4337TIP3    H134502   4.600   3.546   1.827  1.4787  0.4834 -0.5694
 4337TIP3    H234503   4.596   3.500   1.971  0.4149 -3.1799 -1.6625
 4338TIP3   OH234504   6.601   2.918   0.442 -0.2609 -0.2343  0.1703
 4338TIP3    H134505   6.542   2.993   0.439 -0.3583 -0.3305 -0.4226
 4338TIP3    H234506   6.645   2.925   0.527 -1.3350 -0.3363  0.7489
 4339TIP3   OH234507   4.845   1.526  14.050  0.1311  0.1090 -0.0049
 4339TIP3    H134508   4.866   1.609  14.006  2.5813 -1.4580 -2.0467
 4339TIP3    H234509   4.770   1.547  14.105  0.1554  3.4898 -1.0323
 4340TIP3   OH234510   6.670   2.176   0.319  0.1618  0.6836 -0.2553
 4340TIP3    H134511   6.684   2.118   0.244  2.2778 -0.2713  0.7813
 4340TIP3    H234512   6.672   2.118   0.395  0.7194  1.9145  0.7123
 4341TIP3   OH234513   3.953   5.173   0.725 -0.2822  0.3732  0.1420
 4341TIP3    H134514   3.954   5.165   0.821 -0.9055 -2.0812  0.0127
 4341TIP3    H234515   4.043   5.198   0.703  0.6731 -1.7648  1.2581
 4342TIP3   OH234516   1.774   4.629  14.832  0.2965 -0.2214 -0.0462
 4342TIP3    H134517   1.693   4.654  14.878  0.3935 -0.7979  0.4523
 4342TIP3    H234518   1.744   4.577  14.757  0.2265 -1.0703  0.5550
 4343TIP3   OH234519   5.760   2.831   1.191 -0.0183 -0.0362  0.1178
 4343TIP3    H134520   5.746   2.913   1.238  0.2589  0.8683 -1.3002
 4343TIP3    H234521   5.842   2.797   1.226 -0.5445 -0.1555  1.2953
 4344TIP3   OH234522   2.190   3.948   1.865 -0.0946 -0.1008  0.2842
 4344TIP3    H134523   2.244   3.881   1.907  0.1577 -0.8281 -1.1023
 4344TIP3    H234524   2.105   3.943   1.909  0.7292  0.6028  2.0543
 4345TIP3   OH234525   3.690   0.695  15.331 -0.0720  0.0850 -0.0830
 4345TIP3    H134526   3.708   0.678  15.423  0.4308 -1.6397 -0.4566
 4345TIP3    H234527   3.673   0.789  15.326 -0.3769  0.1602  1.7974
 4346TIP3   OH234528   4.213   4.531   4.291  0.4171  0.5406 -0.2756
 4346TIP3    H134529   4.152   4.523   4.217 -1.1815 -1.1422  1.0999
 4346TIP3    H234530   4.156   4.540   4.367  1.9892  0.9945  0.8838
 4347TIP3   OH234531   4.654   0.877  13.071  0.1659  0.8206 -0.1391
 4347TIP3    H134532   4.743   0.896  13.102  1.8212 -4.4714 -0.6934
 4347TIP3    H234533   4.664   0.865  12.977 -0.9942 -0.3019 -0.1432
 4348TIP3   OH234534   0.483   6.337  17.059 -0.0788  0.4456 -0.5654
 4348TIP3    H134535   0.503   6.249  17.091 -1.2395 -0.3243 -1.8427
 4348TIP3    H234536   0.552   6.392  17.096 -0.5099 -0.5916  2.0053
 4349TIP3   OH234537   0.062   3.620   2.228  0.1295 -0.0440 -0.2151
 4349TIP3    H134538   0.052   3.576   2.144  0.8787  2.3844 -1.6845
 4349TIP3    H234539  -0.027   3.629   2.262 -0.2564 -0.3611 -1.1243
 4350TIP3   OH234540   1.637   5.263   4.216 -0.3694 -0.0740  0.1496
 4350TIP3    H134541   1.625   5.356   4.235  1.5323  0.0889  0.7616
 4350TIP3    H234542   1.676   5.226   4.295 -0.3204 -1.2210 -0.3775
 4351TIP3   OH234543   3.641   2.564  12.415  0.2418  0.3374  0.3303
 4351TIP3    H134544   3.726   2.569  12.460 -0.5843  0.4250  1.9673
 4351TIP3    H234545   3.651   2.620  12.339  1.3975  1.0315  0.9579
 4352TIP3   OH234546   4.282   5.252   1.695 -0.3416  0.4668 -0.6145
 4352TIP3    H134547   4.208   5.307   1.670 -0.1654  0.1262 -1.9392
 4352TIP3    H234548   4.244   5.166   1.712 -0.4686  0.7095  0.4217
 4353TIP3   OH234549   4.240   2.102  12.710  0.1935  0.1028  0.0574
 4353TIP3    H134550   4.272   2.131  12.624 -0.6051 -1.4624 -0.8119
 4353TIP3    H234551   4.294   2.150  12.773  0.3631  1.7822 -1.2965
 4354TIP3   OH234552   5.307   5.759  12.057 -0.0426 -0.0927  0.2830
 4354TIP3    H134553   5.330   5.681  12.008 -0.2149  0.9959 -1.6349
 4354TIP3    H234554   5.217   5.744  12.086 -0.8153  0.1784 -1.8328
 4355TIP3   OH234555   4.633   6.313  11.541  0.2734  0.2388 -0.2081
 4355TIP3    H134556   4.659   6.276  11.625  2.3327 -0.1514 -0.9444
 4355TIP3    H234557   4.620   6.237  11.484  0.2876  0.5291 -0.6075
 4356TIP3   OH234558   2.596   5.620   2.017  0.2648 -0.1236 -0.1490
 4356TIP3    H134559   2.675   5.584   2.058 -0.2890 -1.5357 -0.2639
 4356TIP3    H234560   2.558   5.677   2.084 -0.5216 -2.2477  1.3079
 4357TIP3   OH234561   3.791   2.565   4.192 -0.2707  0.4902  0.7327
 4357TIP3    H134562   3.766   2.519   4.272 -0.4682  0.6746  0.7772
 4357TIP3    H234563   3.830   2.497   4.137 -1.8156 -0.0376  0.2270
 4358TIP3   OH234564   6.334   2.537   5.962  0.7672 -0.3258 -0.0886
 4358TIP3    H134565   6.279   2.482   6.018 -1.3717  0.6969 -1.0842
 4358TIP3    H234566   6.283   2.616   5.948  1.2478 -0.4639 -3.3702
 4359TIP3   OH234567   4.233   2.890  11.716 -0.3746  0.0322 -0.1508
 4359TIP3    H134568   4.147   2.848  11.715 -1.3193  1.7260  1.6919
 4359TIP3    H234569   4.227   2.958  11.649 -0.6106  0.3430  0.1779
 4360TIP3   OH234570   0.898   6.592  15.655 -0.1156 -0.8893 -0.2600
 4360TIP3    H134571   0.939   6.664  15.701  0.0150 -0.8044 -0.5117
 4360TIP3    H234572   0.844   6.633  15.588 -0.5551 -1.0001  0.0136
 4361TIP3   OH234573   4.916   6.044   6.254  0.4929 -0.7691  1.0790
 4361TIP3    H134574   5.002   6.064   6.290  1.9182 -2.4452 -1.1109
 4361TIP3    H234575   4.863   6.019   6.330  2.7023 -2.1060  2.2855
 4362TIP3   OH234576   4.196   4.176   5.334  0.4239 -0.7373 -0.2388
 4362TIP3    H134577   4.280   4.145   5.367  0.0863 -1.3420  0.0856
 4362TIP3    H234578   4.137   4.169   5.409  0.5312  1.6138  0.1317
 4363TIP3   OH234579   4.962   2.076  16.805 -0.0805 -0.4061  0.1441
 4363TIP3    H134580   4.955   2.053  16.713 -0.3852  0.5106 -0.0809
 4363TIP3    H234581   4.871   2.075  16.837 -0.2848  1.6110 -0.1982
 4364TIP3   OH234582   2.403   3.492   2.164 -0.3667 -0.5461  0.3005
 4364TIP3    H134583   2.445   3.485   2.079  0.8083  0.9850  0.7121
 4364TIP3    H234584   2.474   3.480   2.228 -0.6935  0.9308  1.0106
 4365TIP3   OH234585   4.696   1.322  16.748  0.0462 -0.4801  0.5739
 4365TIP3    H134586   4.651   1.399  16.785  1.1196 -0.1085  1.1570
 4365TIP3    H234587   4.636   1.249  16.766  0.0233 -0.1300  2.0917
 4366TIP3   OH234588   5.795   4.880  11.752 -0.3163  0.1584  0.4570
 4366TIP3    H134589   5.801   4.960  11.700 -2.2458  0.0613  0.0227
 4366TIP3    H234590   5.756   4.908  11.835  3.4042  0.4558  2.3389
 4367TIP3   OH234591   6.496   6.690   3.822 -0.2088  0.1946 -0.2051
 4367TIP3    H134592   6.485   6.777   3.784  1.2729  0.2288 -0.6225
 4367TIP3    H234593   6.583   6.692   3.862 -0.1575 -1.0866 -0.2107
 4368TIP3   OH234594   1.121   6.755   2.639 -0.5396 -0.0899  0.1008
 4368TIP3    H134595   1.183   6.828   2.639  0.2007 -0.6782 -1.0218
 4368TIP3    H234596   1.117   6.728   2.547  0.9612 -2.9224  0.7811
 4369TIP3   OH234597   4.906   5.255  11.619  0.1920 -0.1654 -0.4551
 4369TIP3    H134598   4.864   5.212  11.694  1.7329 -1.2135 -0.1462
 4369TIP3    H234599   4.863   5.340  11.614 -0.3555 -0.2912  1.2646
 4370TIP3   OH234600   1.378   1.300   4.959  0.5347 -0.2976 -0.2270
 4370TIP3    H134601   1.416   1.355   4.891 -0.6162  1.1282  0.2378
 4370TIP3    H234602   1.415   1.213   4.943  1.3996  0.3182 -1.7698
 4371TIP3   OH234603   1.037   1.119  14.954  0.2093  0.1661 -0.3324
 4371TIP3    H134604   1.074   1.176  15.021  2.3334  0.1041 -1.3610
 4371TIP3    H234605   0.958   1.165  14.925  2.2860  3.2008 -1.7584
 4372TIP3   OH234606   2.584   4.552   2.094  0.6987  0.5531  0.6539
 4372TIP3    H134607   2.663   4.548   2.040 -1.3416 -1.1692 -2.4122
 4372TIP3    H234608   2.552   4.642   2.082  1.6973  1.0197  1.2917
 4373TIP3   OH234609   6.663   3.322   4.260  0.0509  0.1367 -0.0229
 4373TIP3    H134610   6.658   3.283   4.347 -1.7341  0.2504 -0.0441
 4373TIP3    H234611   6.588   3.287   4.213  0.5381  0.6959 -1.2692
 4374TIP3   OH234612   2.457   1.154   1.295 -0.2792 -0.0498 -0.1200
 4374TIP3    H134613   2.512   1.215   1.344 -1.3020  0.0892  0.8952
 4374TIP3    H234614   2.464   1.071   1.343 -0.2149 -0.2891 -0.5339
 4375TIP3   OH234615   4.121   4.282   0.704 -0.9955  0.4999  0.2807
 4375TIP3    H134616   4.066   4.359   0.689  0.5572  2.1766  2.4867
 4375TIP3    H234617   4.084   4.241   0.782 -0.7270  0.0514  0.1775
 4376TIP3   OH234618   1.240   0.175   5.171 -0.2297 -0.2226 -0.0410
 4376TIP3    H134619   1.195   0.101   5.130  0.8542 -0.5630 -0.6592
 4376TIP3    H234620   1.249   0.240   5.100 -1.6868  0.7744  0.6358
 4377TIP3   OH234621   5.515   6.779  15.939 -0.2659  0.2098  0.4444
 4377TIP3    H134622   5.465   6.845  15.987  1.4021  1.5754  0.3801
 4377TIP3    H234623   5.472   6.775  15.853 -0.2615  1.4037  0.3621
 4378TIP3   OH234624   2.610   6.006  11.309 -0.2709 -0.4149 -0.3673
 4378TIP3    H134625   2.518   5.994  11.284 -1.0151  2.8195  0.3800
 4378TIP3    H234626   2.634   6.091  11.274  1.7495 -0.1650  1.3812
 4379TIP3   OH234627   3.377   1.443  14.747 -0.3173  1.2311 -0.1051
 4379TIP3    H134628   3.308   1.380  14.727  1.5176 -0.9221 -0.0453
 4379TIP3    H234629   3.455   1.408  14.703  1.1728  2.5251  1.3649
 4380TIP3   OH234630   2.403   3.814   0.928 -0.3887  0.8079 -0.1980
 4380TIP3    H134631   2.401   3.820   1.023 -0.7469  0.7272 -0.1989
 4380TIP3    H234632   2.492   3.787   0.907 -0.0717  1.6048  0.0704
 4381TIP3   OH234633   0.563   4.869   6.003 -0.4418  0.2750 -0.2399
 4381TIP3    H134634   0.609   4.795   5.964 -0.0928 -0.9684  2.3094
 4381TIP3    H234635   0.473   4.837   6.015 -0.6134  0.7358 -0.2815
 4382TIP3   OH234636   2.629   5.327  16.942 -0.1166  0.8324  0.3611
 4382TIP3    H134637   2.697   5.301  16.879 -2.4200  0.4618 -2.1295
 4382TIP3    H234638   2.627   5.255  17.006 -0.2547 -0.7280 -1.3141
 4383TIP3   OH234639   1.034   2.434   4.839  0.1661 -0.3360 -0.3899
 4383TIP3    H134640   1.037   2.375   4.915 -0.9530 -1.1914 -0.9710
 4383TIP3    H234641   1.125   2.449   4.816  0.4914 -1.7869 -0.1503
 4384TIP3   OH234642   0.504   1.668   5.794 -0.6332 -0.2925  0.5131
 4384TIP3    H134643   0.583   1.617   5.778 -0.3976  0.3891 -0.6411
 4384TIP3    H234644   0.520   1.712   5.877  0.3205  0.0436  0.1623
 4385TIP3   OH234645   2.056   0.186  15.144  0.1537  0.1646 -0.5352
 4385TIP3    H134646   1.994   0.124  15.181 -0.1349 -1.7334 -3.7587
 4385TIP3    H234647   2.014   0.272  15.152  0.3155  0.0334  3.5552
 4386TIP3   OH234648   1.797   2.993  15.121  0.2715  0.5027  0.5817
 4386TIP3    H134649   1.773   3.038  15.202  0.5139  0.7193  0.5364
 4386TIP3    H234650   1.753   3.044  15.052  1.0761  1.0668  0.4758
 4387TIP3   OH234651   1.825   6.644   4.001  0.0768  0.2442 -0.1109
 4387TIP3    H134652   1.866   6.602   3.925  2.3578  0.2395  1.0411
 4387TIP3    H234653   1.886   6.713   4.026 -0.9685  0.6985  1.3324
 4388TIP3   OH234654   6.085   3.099   2.703 -0.4073 -0.0721  0.1999
 4388TIP3    H134655   6.138   3.119   2.780 -2.1522 -0.1535  1.4706
 4388TIP3    H234656   6.039   3.181   2.684  0.1984  0.0279 -0.9498
 4389TIP3   OH234657   5.228   0.387  12.195 -0.1748  0.0188 -0.4035
 4389TIP3    H134658   5.230   0.457  12.130  2.3209 -1.6208 -2.2536
 4389TIP3    H234659   5.199   0.310  12.146 -1.9361 -0.5275  1.3613
 4390TIP3   OH234660   4.939   5.506  16.827 -0.0658 -0.5010  0.1442
 4390TIP3    H134661   5.009   5.447  16.800 -0.7626 -1.3752  0.1909
 4390TIP3    H234662   4.945   5.580  16.767  1.2530 -0.2888  0.5175
 4391TIP3   OH234663   4.971   4.308  13.544 -0.2890 -0.3161  0.4417
 4391TIP3    H134664   4.901   4.313  13.609  0.8359  1.6136  1.6171
 4391TIP3    H234665   4.947   4.375  13.479 -1.0751 -1.7933 -0.8666
 4392TIP3   OH234666   4.962   0.209   1.610 -0.5062 -0.3390 -0.2237
 4392TIP3    H134667   4.945   0.284   1.554  1.0812 -0.6832 -1.2092
 4392TIP3    H234668   4.923   0.135   1.564  0.9026 -0.6416 -0.9789
 4393TIP3   OH234669   0.486   2.165  14.047 -0.1654  0.5878 -0.3338
 4393TIP3    H134670   0.579   2.181  14.036 -0.2510  1.2786 -0.1237
 4393TIP3    H234671   0.479   2.112  14.126  0.0026  1.1968  0.0956
 4394TIP3   OH234672   2.710   2.815   4.753 -0.0813  0.6530  0.2562
 4394TIP3    H134673   2.771   2.837   4.682  0.1159 -0.5785  0.0370
 4394TIP3    H234674   2.625   2.848   4.723 -0.1136 -0.3729 -0.8140
 4395TIP3   OH234675   3.729   3.154  16.234  1.1455  0.7970  0.2161
 4395TIP3    H134676   3.715   3.245  16.209  2.8477  0.9368 -0.3698
 4395TIP3    H234677   3.734   3.156  16.330  0.7437  1.2441  0.2314
 4396TIP3   OH234678   5.954   0.244  15.947  0.0784  0.0938  0.0958
 4396TIP3    H134679   5.878   0.281  15.993  0.7283 -0.1058  1.3914
 4396TIP3    H234680   6.000   0.193  16.014  0.8535 -0.5601 -0.9006
 4397TIP3   OH234681   6.755   1.132  15.468  0.2853  0.0758 -0.0616
 4397TIP3    H134682   6.792   1.071  15.404 -0.4143 -0.9546  0.4870
 4397TIP3    H234683   6.829   1.187  15.494  0.8003 -0.1565 -0.9869
 4398TIP3   OH234684   4.984   2.459   3.306 -0.3998 -0.3016 -0.1926
 4398TIP3    H134685   4.969   2.538   3.358 -3.5898 -1.8625  1.5528
 4398TIP3    H234686   4.941   2.478   3.222  2.1040  1.0744 -1.2811
 4399TIP3   OH234687   3.609   3.220   1.748  0.7061 -1.0662  0.6511
 4399TIP3    H134688   3.692   3.267   1.743 -0.0702  0.2924  0.0045
 4399TIP3    H234689   3.560   3.265   1.816  0.0323 -1.0640  0.1728
 4400TIP3   OH234690   0.797   1.635   4.882 -0.0547  0.1332  0.0523
 4400TIP3    H134691   0.868   1.640   4.819  0.5031  1.0324  0.7283
 4400TIP3    H234692   0.823   1.694   4.953 -2.4714  2.3194 -0.7101
 4401TIP3   OH234693   0.495   5.369  14.778 -0.1308 -0.1111  0.0361
 4401TIP3    H134694   0.453   5.440  14.826  0.2480 -0.0709  0.3109
 4401TIP3    H234695   0.426   5.303  14.769  0.1605 -0.7246  1.8800
 4402TIP3   OH234696   0.223   4.229   3.428  0.1869  0.4044 -0.0410
 4402TIP3    H134697   0.148   4.236   3.487 -0.1230 -1.1541 -0.2189
 4402TIP3    H234698   0.298   4.219   3.486  0.1119  0.7288  0.1149
 4403TIP3   OH234699   0.433   0.960   2.760 -0.1979  0.4643 -0.1025
 4403TIP3    H134700   0.377   1.036   2.750  1.1210  1.4866 -0.0336
 4403TIP3    H234701   0.518   0.996   2.786  0.6617 -0.9611 -0.7783
 4404TIP3   OH234702   2.808   2.137  14.883  0.6378 -0.3799 -0.5185
 4404TIP3    H134703   2.741   2.091  14.832 -0.3091  0.3929 -0.0202
 4404TIP3    H234704   2.791   2.112  14.973  0.6728  0.2529 -0.3334
 4405TIP3   OH234705   2.325   2.039  15.724  0.4264  0.0265  0.2435
 4405TIP3    H134706   2.251   1.979  15.722 -0.0249  0.5770  0.2568
 4405TIP3    H234707   2.367   2.021  15.808 -1.3514  1.6529  1.5646
 4406TIP3   OH234708   2.044   6.751   1.158 -0.3369 -0.5883  0.3021
 4406TIP3    H134709   1.978   6.801   1.206  0.4203  0.6600  0.0750
 4406TIP3    H234710   2.052   6.796   1.075  0.5008 -0.9858  0.1620
 4407TIP3   OH234711   0.847   3.931   6.486  0.5209  0.5501 -0.5858
 4407TIP3    H134712   0.762   3.974   6.489 -0.6664 -1.7375  0.2757
 4407TIP3    H234713   0.839   3.865   6.418  1.3342 -0.2094  0.0285
 4408TIP3   OH234714   2.254   2.184  11.253  0.2440 -0.2999 -0.2507
 4408TIP3    H134715   2.178   2.145  11.297  0.0846  0.2889  0.0096
 4408TIP3    H234716   2.236   2.278  11.254  0.6266 -0.2169 -0.8557
 4409TIP3   OH234717   5.382   3.524  11.935  0.6004 -0.3314  0.2008
 4409TIP3    H134718   5.337   3.527  11.851  1.2938 -1.8791 -0.2583
 4409TIP3    H234719   5.316   3.490  11.996  0.4104 -0.1883  0.0786
 4410TIP3   OH234720   2.774   2.892  12.317  0.4483  0.1539  0.1680
 4410TIP3    H134721   2.684   2.920  12.334  0.8941  0.5885  1.9332
 4410TIP3    H234722   2.810   2.961  12.261  0.2914  1.0452  1.1316
 4411TIP3   OH234723   5.071   5.288   5.090 -0.0376  0.0249 -0.5147
 4411TIP3    H134724   5.086   5.277   4.996  0.0976  2.7304 -0.8795
 4411TIP3    H234725   5.158   5.279   5.130  0.0111 -0.4109 -0.7122
 4412TIP3   OH234726   5.907   1.048  11.938 -0.3419 -0.6349 -0.0472
 4412TIP3    H134727   5.835   1.035  11.877 -0.3450 -0.4854 -0.0741
 4412TIP3    H234728   5.906   1.141  11.957  1.2631 -0.2102 -1.8027
 4413TIP3   OH234729   5.490   5.105   3.457 -0.1000  0.3491  0.0086
 4413TIP3    H134730   5.513   5.194   3.433 -1.8896  0.9474  0.3498
 4413TIP3    H234731   5.427   5.078   3.390  1.1403 -1.0429 -0.6542
 4414TIP3   OH234732   3.741   2.613   3.087  0.0596 -0.1459  0.1545
 4414TIP3    H134733   3.767   2.703   3.066  2.6330 -0.0589  2.9742
 4414TIP3    H234734   3.702   2.580   3.006  0.8555  2.8483 -1.6253
 4415TIP3   OH234735   2.434   6.827   3.194  0.2647  0.0271  0.3318
 4415TIP3    H134736   2.497   6.762   3.163  0.2237 -0.1742  0.6670
 4415TIP3    H234737   2.442   6.824   3.289  0.2764  0.5252  0.3475
 4416TIP3   OH234738   5.530   1.161   4.636  0.2595  0.0350 -1.0629
 4416TIP3    H134739   5.537   1.071   4.605  0.6680 -0.5162  0.5551
 4416TIP3    H234740   5.598   1.208   4.587 -0.2756 -0.4213 -2.2685
 4417TIP3   OH234741   3.724   2.514  16.031  0.9411  0.0111  0.5348
 4417TIP3    H134742   3.687   2.598  16.003  0.6767 -0.4707 -0.6223
 4417TIP3    H234743   3.775   2.535  16.109 -1.4769  0.7840  2.0365
 4418TIP3   OH234744   4.258   5.901   2.553 -0.0201  0.4451 -0.8425
 4418TIP3    H134745   4.188   5.898   2.618  2.2321 -0.6190  1.6936
 4418TIP3    H234746   4.247   5.820   2.503 -0.0079 -0.2643  0.2586
 4419TIP3   OH234747   1.628   2.184  14.925  0.7093 -0.3411 -0.2284
 4419TIP3    H134748   1.534   2.171  14.935  0.8815  0.1185  3.4002
 4419TIP3    H234749   1.667   2.109  14.969  1.9556  0.7906  0.6725
 4420TIP3   OH234750   6.514   2.079  14.704  0.1405 -0.1608  0.4401
 4420TIP3    H134751   6.474   2.137  14.768 -0.1403  0.6668 -0.4519
 4420TIP3    H234752   6.523   2.133  14.625  2.3470 -0.5234  0.3706
 4421TIP3   OH234753   6.818   5.634  11.582  0.0063 -0.0687  0.0417
 4421TIP3    H134754   6.881   5.576  11.538  0.7698  0.5097  0.3627
 4421TIP3    H234755   6.786   5.583  11.656  0.8758 -0.0046  0.4802
 4422TIP3   OH234756   2.464   3.617   4.887 -0.1898 -0.1525 -0.1138
 4422TIP3    H134757   2.391   3.563   4.858  0.4545 -1.0765 -0.0621
 4422TIP3    H234758   2.434   3.656   4.970 -0.7214 -0.3045 -0.2334
 4423TIP3   OH234759   3.960   1.364  14.089 -0.6407 -0.2096  0.0362
 4423TIP3    H134760   3.876   1.391  14.126 -1.0684 -1.4257  0.0090
 4423TIP3    H234761   3.976   1.427  14.019 -1.2701  0.3572  0.3891
 4424TIP3   OH234762   5.944   3.989   1.575  0.3781  0.2544  0.1908
 4424TIP3    H134763   6.025   4.030   1.609  1.6184  0.5474 -2.8356
 4424TIP3    H234764   5.968   3.898   1.558 -0.4733 -0.1092  0.8629
 4425TIP3   OH234765   0.011   6.017  16.687 -0.0125 -0.0902 -0.1465
 4425TIP3    H134766   0.085   6.058  16.642  0.6098  0.6437  1.4739
 4425TIP3    H234767   0.024   6.039  16.779 -2.2680  0.0577  0.1837
 4426TIP3   OH234768   2.455   6.354  11.031  0.1845 -0.3738 -0.3221
 4426TIP3    H134769   2.376   6.377  11.080  0.2437 -1.9713  0.6166
 4426TIP3    H234770   2.427   6.353  10.939 -0.0017  2.3883 -0.3713
 4427TIP3   OH234771   3.769   0.408   0.317 -0.1184  0.1835 -0.1967
 4427TIP3    H134772   3.734   0.473   0.377  2.1206  1.1094  0.2170
 4427TIP3    H234773   3.714   0.330   0.331 -2.2580  1.6465 -0.0334
 4428TIP3   OH234774   6.144   4.578  13.224 -0.0655 -0.0915  0.1104
 4428TIP3    H134775   6.186   4.563  13.308 -1.4159 -0.0994  0.8015
 4428TIP3    H234776   6.194   4.650  13.185 -0.5252  1.1761  1.7328
 4429TIP3   OH234777   3.966   2.521   0.649 -0.0650 -0.0740  0.1050
 4429TIP3    H134778   3.929   2.604   0.680  0.9112  0.3404  0.2034
 4429TIP3    H234779   3.890   2.470   0.621 -0.7463  0.5627  0.7341
 4430TIP3   OH234780   1.062   1.633  12.220  0.7268 -0.0549  0.6196
 4430TIP3    H134781   1.016   1.717  12.216  0.7179 -0.0552  0.7072
 4430TIP3    H234782   1.145   1.653  12.264  1.0542  0.0515 -0.0307
 4431TIP3   OH234783   0.848   1.978  16.168  0.4817  0.0422  0.1296
 4431TIP3    H134784   0.846   1.887  16.137 -0.1991 -0.0179  0.3520
 4431TIP3    H234785   0.942   1.997  16.177  0.6214 -0.7591  0.4502
 4432TIP3   OH234786   3.949   5.963  14.483 -0.5660 -0.0696  0.2273
 4432TIP3    H134787   3.964   5.976  14.577  0.8228 -0.1271  0.0313
 4432TIP3    H234788   4.036   5.962  14.445 -1.1611  2.0832 -1.3753
 4433TIP3   OH234789   1.942   6.427   3.627 -0.3828 -0.4565  0.5950
 4433TIP3    H134790   1.896   6.413   3.709  0.8201 -0.6429  1.2575
 4433TIP3    H234791   1.972   6.518   3.632  0.0596 -0.5999  0.5462
 4434TIP3   OH234792   3.287   5.596  16.091  0.7543 -0.1528 -0.0940
 4434TIP3    H134793   3.364   5.623  16.041  0.3702  0.0735 -0.5678
 4434TIP3    H234794   3.302   5.631  16.179  2.4255 -2.3133  0.5783
 4435TIP3   OH234795   5.812   3.970  11.479 -0.2851  0.1000 -0.6618
 4435TIP3    H134796   5.738   3.995  11.424  0.2264  0.4547 -1.2036
 4435TIP3    H234797   5.779   3.977  11.569 -0.2836  2.4344 -0.7755
 4436TIP3   OH234798   5.150   6.539  10.190  0.6904 -0.2071 -0.0337
 4436TIP3    H134799   5.075   6.571  10.240  1.1562  1.0624 -0.1037
 4436TIP3    H234800   5.224   6.588  10.225  1.3988 -1.0210 -0.3658
 4437TIP3   OH234801   2.839   5.150   3.851  0.0236 -0.0524 -0.2540
 4437TIP3    H134802   2.853   5.216   3.919 -1.2631 -0.0160  0.0105
 4437TIP3    H234803   2.868   5.191   3.770 -0.3762  0.6968 -0.0250
 4438TIP3   OH234804   3.463   5.453   1.812 -0.0386 -0.1823 -0.1597
 4438TIP3    H134805   3.511   5.535   1.810  3.0365 -1.7583 -3.5136
 4438TIP3    H234806   3.523   5.391   1.854 -2.4120 -0.7825  2.6237
 4439TIP3   OH234807   3.934   3.436  11.459 -0.5271 -0.6111  0.0137
 4439TIP3    H134808   4.006   3.403  11.405 -0.6071 -1.6610  0.5184
 4439TIP3    H234809   3.970   3.442  11.547 -0.3844  1.1457 -0.1324
 4440TIP3   OH234810   1.197   3.158   6.250  0.0376  0.3410 -0.2359
 4440TIP3    H134811   1.163   3.077   6.212  0.8507  0.3659 -1.0573
 4440TIP3    H234812   1.250   3.197   6.180 -0.1848  1.4894  0.2129
 4441TIP3   OH234813   5.306   5.519  16.940  0.0330  0.1443 -0.0150
 4441TIP3    H134814   5.234   5.571  16.974 -0.7659 -0.2270 -1.0823
 4441TIP3    H234815   5.329   5.459  17.011 -1.4585 -0.4909 -0.0390
 4442TIP3   OH234816   5.466   5.888   3.296  0.2421 -0.0149 -0.0521
 4442TIP3    H134817   5.454   5.797   3.271 -2.5003 -0.3434  1.9304
 4442TIP3    H234818   5.509   5.884   3.382 -0.8605  0.4256  0.5551
 4443TIP3   OH234819   3.677   4.303  14.544 -0.9293 -0.0150 -0.2913
 4443TIP3    H134820   3.732   4.377  14.572  1.1364 -0.6406 -2.3181
 4443TIP3    H234821   3.739   4.231  14.533 -2.6021 -1.5243 -0.2495
 4444TIP3   OH234822   5.395   1.453  12.475 -0.4478  0.1505  0.2842
 4444TIP3    H134823   5.479   1.476  12.515 -0.6521  0.0042  0.7957
 4444TIP3    H234824   5.415   1.448  12.381  0.1461 -0.0006  0.4102
 4445TIP3   OH234825   5.741   2.068   0.354  0.3368  0.3108 -0.4140
 4445TIP3    H134826   5.676   2.020   0.405  1.6474 -0.4074  0.6697
 4445TIP3    H234827   5.691   2.113   0.286 -1.3802  0.5707  0.9602
 4446TIP3   OH234828   6.037   4.330  14.540  0.2333 -0.5314  0.0989
 4446TIP3    H134829   6.109   4.309  14.600  1.3529  0.8611 -0.6821
 4446TIP3    H234830   6.047   4.268  14.468  1.0853  0.0730 -0.3207
 4447TIP3   OH234831   0.138   5.319  16.263 -0.2777 -0.2145  0.0366
 4447TIP3    H134832   0.208   5.342  16.324  0.8567 -1.0868 -0.8884
 4447TIP3    H234833   0.138   5.224  16.262  0.5739 -0.2462 -2.2134
 4448TIP3   OH234834   1.875   6.539   2.111  0.0851 -0.4472  0.3481
 4448TIP3    H134835   1.963   6.570   2.090 -0.3258 -0.1363 -1.0256
 4448TIP3    H234836   1.819   6.616   2.098 -0.4456 -0.7501  0.8028
 4449TIP3   OH234837   4.347   1.831  12.439  0.6742  0.0835  0.2422
 4449TIP3    H134838   4.288   1.890  12.392  0.1836  0.2332  1.0183
 4449TIP3    H234839   4.420   1.817  12.380  0.5130  1.0091 -0.1838
 4450TIP3   OH234840   2.564   5.231  13.664 -0.1639  0.3456 -0.5714
 4450TIP3    H134841   2.478   5.273  13.660 -0.9410 -1.2274 -1.4634
 4450TIP3    H234842   2.580   5.218  13.757 -0.8557  0.7122 -0.3911
 4451TIP3   OH234843   0.019   1.518  13.511  0.8899 -0.5313  0.2438
 4451TIP3    H134844   0.095   1.490  13.460  1.7741 -0.3371  1.4324
 4451TIP3    H234845   0.042   1.604  13.545 -0.6387  0.4081 -0.9223
 4452TIP3   OH234846   0.074   6.434  11.581  0.0570 -0.4656  0.0173
 4452TIP3    H134847   0.052   6.375  11.653 -0.2634  1.1280  1.2714
 4452TIP3    H234848  -0.011   6.460  11.545  0.0856  0.9154  0.8972
 4453TIP3   OH234849   3.944   3.449  12.279  0.2449  0.2600 -0.1487
 4453TIP3    H134850   4.016   3.492  12.233  0.0014 -0.0819 -0.8577
 4453TIP3    H234851   3.870   3.455  12.220  0.3322 -1.5949 -0.5269
 4454TIP3   OH234852   0.339   1.815  11.188 -0.2832 -0.1639 -0.3068
 4454TIP3    H134853   0.365   1.727  11.161 -1.8170 -0.6935 -0.1710
 4454TIP3    H234854   0.284   1.846  11.116 -0.5914  0.2731  0.1113
 4455TIP3   OH234855   1.149   5.189   5.297 -0.3718 -0.3730  0.8810
 4455TIP3    H134856   1.084   5.257   5.280  0.4651 -0.1081 -1.7114
 4455TIP3    H234857   1.220   5.234   5.344 -0.1174  0.4198 -0.2293
 4456TIP3   OH234858   3.717   5.800  10.937  0.2251  0.2685  0.2497
 4456TIP3    H134859   3.769   5.730  10.898  1.0319  1.5093 -0.9767
 4456TIP3    H234860   3.627   5.768  10.934  0.8528 -2.1741  2.9387
 4457TIP3   OH234861   5.662   2.744   5.016  0.2724  0.2212 -0.5991
 4457TIP3    H134862   5.619   2.816   5.061 -0.4309  0.7912 -2.0906
 4457TIP3    H234863   5.702   2.692   5.085 -0.8653  0.9703  0.6707
 4458TIP3   OH234864   3.312   2.663   4.931 -0.2795  0.2806  0.5914
 4458TIP3    H134865   3.361   2.653   4.850 -0.3408  0.1237  0.5731
 4458TIP3    H234866   3.243   2.726   4.910  1.0027  1.9137  1.1111
 4459TIP3   OH234867   2.650   4.199  15.468 -0.1643 -0.1303  0.6550
 4459TIP3    H134868   2.567   4.240  15.494  0.4460  1.2815  0.4559
 4459TIP3    H234869   2.718   4.253  15.509  0.6683 -1.4443  1.0584
 4460TIP3   OH234870   3.437   2.918  14.379  0.0216  0.0225  0.4221
 4460TIP3    H134871   3.477   2.838  14.413 -1.9802 -0.8173  0.9650
 4460TIP3    H234872   3.491   2.989  14.414  0.9482 -1.0354  1.2102
 4461TIP3   OH234873   3.387   4.549   6.196 -0.6264  0.1484  0.1609
 4461TIP3    H134874   3.377   4.505   6.281 -0.9108 -0.8442 -0.3791
 4461TIP3    H234875   3.443   4.625   6.215  1.3892 -1.4065  0.7746
 4462TIP3   OH234876   4.640   4.828  11.003  0.4679  0.0735 -0.4268
 4462TIP3    H134877   4.613   4.903  11.055 -0.1089 -1.4026  1.5331
 4462TIP3    H234878   4.582   4.757  11.030  0.0442 -0.8054 -3.2311
 4463TIP3   OH234879   3.792   1.551   4.801  0.4283  0.6893  0.4120
 4463TIP3    H134880   3.755   1.582   4.718  0.4580  0.8187  0.4472
 4463TIP3    H234881   3.885   1.540   4.783 -0.0240 -2.6079 -0.6033
 4464TIP3   OH234882   4.939   3.533  13.081  0.4054 -0.5710 -0.1088
 4464TIP3    H134883   4.896   3.462  13.128 -0.4830 -1.5803 -2.3113
 4464TIP3    H234884   5.017   3.494  13.043  1.0265  0.1871  0.3358
 4465TIP3   OH234885   3.345   2.292   0.960 -0.4223 -0.4987 -0.1515
 4465TIP3    H134886   3.355   2.373   1.011  0.6919 -1.6615  1.5603
 4465TIP3    H234887   3.285   2.316   0.890 -0.3313  1.7511  0.4573
 4466TIP3   OH234888   6.536   1.257  16.578 -0.1099  0.0956  0.1869
 4466TIP3    H134889   6.517   1.169  16.611 -0.5074 -0.5112 -1.5999
 4466TIP3    H234890   6.468   1.312  16.617  0.8073 -0.1300  2.2324
 4467TIP3   OH234891   4.650   4.991   2.093  0.1030  0.2539  0.0912
 4467TIP3    H134892   4.678   4.944   2.014 -1.0598 -1.0743  0.4295
 4467TIP3    H234893   4.623   4.922   2.153  0.2241  1.2883  1.3691
 4468TIP3   OH234894   0.707   3.200   5.573  0.1889 -0.2277 -0.1295
 4468TIP3    H134895   0.717   3.209   5.668  0.4041 -0.2554 -0.1490
 4468TIP3    H234896   0.784   3.244   5.536 -1.4772  2.7223 -0.4232
 4469TIP3   OH234897   1.604   6.747   0.420  0.6332  0.1099 -0.1743
 4469TIP3    H134898   1.536   6.701   0.469  1.1692 -0.1631  0.3306
 4469TIP3    H234899   1.686   6.711   0.453  1.0332  0.5906 -0.6162
 4470TIP3   OH234900   0.656   3.482  11.133 -0.0916  0.3457 -0.2642
 4470TIP3    H134901   0.670   3.474  11.039  0.4392  0.6290 -0.2169
 4470TIP3    H234902   0.718   3.550  11.161 -0.1425  0.1672  0.3085
 4471TIP3   OH234903   1.781   4.970   3.705 -0.5079  0.2131  0.3302
 4471TIP3    H134904   1.759   5.059   3.732  1.2353  0.4597  1.0848
 4471TIP3    H234905   1.794   4.923   3.787  1.4397  0.0476 -0.0337
 4472TIP3   OH234906   3.094   0.966   2.031  1.0600 -0.8200 -0.2468
 4472TIP3    H134907   3.085   1.005   2.118 -1.1397  0.0181 -0.7997
 4472TIP3    H234908   3.185   0.985   2.006  1.3583  0.0096  1.3281
 4473TIP3   OH234909   6.569   4.693  13.447  0.8932 -0.3451  0.4083
 4473TIP3    H134910   6.642   4.754  13.431  1.1480 -0.1541  2.1172
 4473TIP3    H234911   6.523   4.731  13.522 -2.0925  0.5190 -1.6744
 4474TIP3   OH234912   0.378   3.404  13.073  0.2139 -0.2486  0.6924
 4474TIP3    H134913   0.293   3.409  13.119 -0.9417  0.7860 -1.4044
 4474TIP3    H234914   0.421   3.328  13.111 -1.4103 -0.4721  2.2407
 4475TIP3   OH234915   6.562   4.453   5.452  0.3768 -0.1504 -0.5999
 4475TIP3    H134916   6.572   4.546   5.474  1.3744 -0.0922 -1.2277
 4475TIP3    H234917   6.610   4.443   5.370  0.7082 -1.3208 -0.2794
 4476TIP3   OH234918   5.946   2.253  14.366  0.1948  0.3028 -0.2622
 4476TIP3    H134919   5.884   2.233  14.437 -0.7777  0.5580 -1.0100
 4476TIP3    H234920   6.029   2.216  14.395 -0.7647 -1.9257 -0.1188
 4477TIP3   OH234921   1.644   4.978  15.639 -0.7545 -0.1527  0.1820
 4477TIP3    H134922   1.724   4.973  15.586  1.5651  1.8060  3.1962
 4477TIP3    H234923   1.653   4.908  15.703 -0.4441  1.2506  1.7248
 4478TIP3   OH234924   1.997   3.641  15.098  0.0866  0.2918  0.7974
 4478TIP3    H134925   1.928   3.664  15.036  0.4224  2.2992  1.0899
 4478TIP3    H234926   2.078   3.672  15.056  0.7194 -1.1489  0.8908
 4479TIP3   OH234927   0.516   4.368  15.539 -0.2358 -0.5163  0.7975
 4479TIP3    H134928   0.448   4.431  15.515 -1.4258 -1.4587  1.6070
 4479TIP3    H234929   0.583   4.420  15.584  0.2503  0.6442 -1.1410
 4480TIP3   OH234930   1.516   3.268  15.944 -0.1277  0.0433 -0.3875
 4480TIP3    H134931   1.422   3.255  15.931  0.1068 -0.7983 -1.4344
 4480TIP3    H234932   1.556   3.219  15.872  1.1587 -0.7608  0.8372
 4481TIP3   OH234933   4.814   0.100  12.766  0.1493  0.4688 -0.0428
 4481TIP3    H134934   4.789   0.159  12.695 -1.0075  0.1352  0.0800
 4481TIP3    H234935   4.798   0.151  12.846 -0.1461  0.2473  0.0384
 4482TIP3   OH234936   3.033   5.383   6.065  0.1791  0.8699  0.1870
 4482TIP3    H134937   2.969   5.317   6.092  0.4740  0.9721  1.2077
 4482TIP3    H234938   3.104   5.373   6.128  0.4461  1.8321  0.0451
 4483TIP3   OH234939   4.550   5.782  16.342 -0.8490 -0.1055  0.5863
 4483TIP3    H134940   4.521   5.795  16.432 -0.8275  0.5241  0.5045
 4483TIP3    H234941   4.556   5.870  16.306 -1.4094 -0.3853 -0.2099
 4484TIP3   OH234942   4.699   6.461   3.494 -0.4186 -0.0464 -0.0429
 4484TIP3    H134943   4.666   6.538   3.540  0.8812  1.3434 -1.3397
 4484TIP3    H234944   4.776   6.435   3.545  0.6942  1.1547 -1.0609
 4485TIP3   OH234945   2.348   0.037  12.622  0.0490 -0.1280  0.0020
 4485TIP3    H134946   2.386   0.124  12.632  0.6456 -0.0868 -2.1318
 4485TIP3    H234947   2.422  -0.023  12.627 -0.0382 -0.3166 -0.7681
 4486TIP3   OH234948   0.430   0.419   3.209 -0.4206 -0.5321 -0.0661
 4486TIP3    H134949   0.486   0.401   3.133  1.5518 -0.6571  1.3183
 4486TIP3    H234950   0.366   0.348   3.208 -0.2859 -0.6739 -1.4446
 4487TIP3   OH234951   0.395   0.802   1.164 -0.1231 -0.3544  0.0477
 4487TIP3    H134952   0.423   0.729   1.220 -0.3839 -0.7788 -0.3626
 4487TIP3    H234953   0.312   0.830   1.201 -1.2879 -1.9252 -1.2519
 4488TIP3   OH234954   2.409   3.154   1.280  0.5531 -0.1825  0.0320
 4488TIP3    H134955   2.375   3.241   1.260  0.3817 -0.3622 -0.4644
 4488TIP3    H234956   2.339   3.094   1.255  0.5960 -0.4565  0.5435
 4489TIP3   OH234957   0.994   5.161  13.420  0.6609  0.3345  0.0132
 4489TIP3    H134958   0.906   5.152  13.381  0.4213 -0.2286  0.6640
 4489TIP3    H234959   1.018   5.072  13.445  1.0331  0.6092  0.6574
 4490TIP3   OH234960   1.745   1.663  14.724 -0.0959 -0.1986  0.1372
 4490TIP3    H134961   1.777   1.659  14.634 -2.6578 -1.2895 -0.7904
 4490TIP3    H234962   1.774   1.749  14.755  0.2065  0.5162 -1.9584
 4491TIP3   OH234963   2.843   5.175   0.876 -0.2089  0.4189 -0.2708
 4491TIP3    H134964   2.932   5.169   0.842  0.3994  1.0490  1.0998
 4491TIP3    H234965   2.799   5.237   0.818  0.3756  0.4236 -0.7177
 4492TIP3   OH234966   6.817   2.484  11.193 -0.1905  0.2580  0.3912
 4492TIP3    H134967   6.829   2.501  11.100  1.0610  0.9099  0.6549
 4492TIP3    H234968   6.783   2.394  11.196 -0.6805  0.3866 -0.6988
 4493TIP3   OH234969   0.738   5.836   0.692  0.3340  0.2704  0.5049
 4493TIP3    H134970   0.719   5.926   0.664  0.4267  0.1435  0.0300
 4493TIP3    H234971   0.833   5.827   0.683  0.2391 -0.1079 -0.1468
 4494TIP3   OH234972   1.188   0.987   2.535 -0.8577  0.1371  0.2663
 4494TIP3    H134973   1.155   1.026   2.454 -1.3751  1.2875  1.0036
 4494TIP3    H234974   1.116   0.931   2.565 -1.0359  0.4333  0.4007
 4495TIP3   OH234975   1.131   1.170   5.493  0.9441 -0.7389 -0.1843
 4495TIP3    H134976   1.188   1.227   5.543  0.3554 -0.7799  0.5468
 4495TIP3    H234977   1.135   1.204   5.404  1.9002 -0.5880 -0.0951
 4496TIP3   OH234978   6.494   0.962  13.212  0.2067  0.0340 -0.1600
 4496TIP3    H134979   6.512   1.053  13.187 -1.1789  0.8273  1.5603
 4496TIP3    H234980   6.485   0.964  13.307 -0.9595 -1.7121 -0.1891
 4497TIP3   OH234981   0.601   6.353   0.841  0.9385 -0.5289  0.0705
 4497TIP3    H134982   0.651   6.299   0.780 -1.1231 -2.6066  0.0973
 4497TIP3    H234983   0.523   6.301   0.862  0.6841  0.8465  3.1193
 4498TIP3   OH234984   6.750   2.255  12.294 -0.3183  0.1653 -0.6559
 4498TIP3    H134985   6.700   2.275  12.373  0.4650 -0.9001  0.1194
 4498TIP3    H234986   6.841   2.271  12.318  0.3926 -3.7949 -0.0283
 4499TIP3   OH234987   3.976   6.518  15.378  0.0143  0.1024  0.5886
 4499TIP3    H134988   3.977   6.513  15.283  0.5160 -2.5242  0.6727
 4499TIP3    H234989   4.041   6.454  15.407 -0.1855  0.7720  2.7044
 4500TIP3   OH234990   6.540   2.917   2.315  0.5069  0.4092 -0.2052
 4500TIP3    H134991   6.487   2.873   2.249  0.3728  0.7851 -0.3453
 4500TIP3    H234992   6.620   2.864   2.320 -0.5525 -1.1907  1.2461
 4501TIP3   OH234993   2.527   1.558  15.090  0.4731  0.3799 -0.2699
 4501TIP3    H134994   2.589   1.486  15.082  0.6903  0.4953  0.2822
 4501TIP3    H234995   2.582   1.636  15.101  0.2481  0.6860 -1.2447
 4502TIP3   OH234996   3.118   3.043  13.612 -0.5078 -0.1231 -0.2815
 4502TIP3    H134997   3.188   3.028  13.676 -0.1667 -0.5602 -0.7467
 4502TIP3    H234998   3.161   3.084  13.538 -1.1124  1.4876  0.2168
 4503TIP3   OH234999   6.157   0.578   1.686 -0.7836 -0.4382 -0.0434
 4503TIP3    H135000   6.192   0.510   1.629  0.9304  1.2905 -1.1714
 4503TIP3    H235001   6.075   0.604   1.644 -1.8348 -2.2227  0.7908
 4504TIP3   OH235002   0.209   5.062   3.062  0.2381 -0.2384 -0.4400
 4504TIP3    H135003   0.151   5.065   2.986  1.1287 -0.7876 -1.1675
 4504TIP3    H235004   0.160   5.014   3.128 -0.1494 -0.6966 -1.0474
 4505TIP3   OH235005   3.884   6.453   1.877 -0.1261 -0.7221 -0.5325
 4505TIP3    H135006   3.970   6.419   1.900  1.6092  2.1473 -2.1720
 4505TIP3    H235007   3.900   6.510   1.802 -2.9449  2.1913  0.8241
 4506TIP3   OH235008   4.080   0.677   3.073 -0.1251  0.1451  0.0278
 4506TIP3    H135009   4.124   0.673   3.158 -0.6948 -0.0154  0.3185
 4506TIP3    H235010   4.030   0.595   3.068  0.3577 -0.1109 -0.7116
 4507TIP3   OH235011   6.395   5.577  15.361  0.9102  0.2243  0.2912
 4507TIP3    H135012   6.460   5.628  15.312 -1.7491  1.6764 -2.0064
 4507TIP3    H235013   6.316   5.631  15.359 -1.1057 -2.5227  0.7419
 4508TIP3   OH235014   5.019   0.604  16.093 -0.2671 -0.0071 -0.8695
 4508TIP3    H135015   4.989   0.515  16.109 -1.7342  0.9357  2.5597
 4508TIP3    H235016   5.114   0.599  16.099 -0.4036 -1.0459  2.1976
 4509TIP3   OH235017   1.847   2.428   4.784  0.3425  0.6287 -0.0484
 4509TIP3    H135018   1.821   2.419   4.876 -0.1860  0.4447 -0.2127
 4509TIP3    H235019   1.942   2.419   4.785  0.3549  0.7821  0.4992
 4510TIP3   OH235020   3.786   0.270  12.135 -0.5912  0.1177 -0.3492
 4510TIP3    H135021   3.800   0.335  12.204 -0.6402  0.6379 -0.8180
 4510TIP3    H235022   3.692   0.251  12.140 -0.5809  0.1002 -0.2221
 4511TIP3   OH235023   0.517   1.611   1.998  0.2693 -0.2953  0.2968
 4511TIP3    H135024   0.587   1.548   1.983  0.6300  0.4788 -1.5823
 4511TIP3    H235025   0.472   1.617   1.914 -1.8105 -0.4400  1.3395
 4512TIP3   OH235026   1.399   4.283  14.191 -0.4649 -0.1699  0.0348
 4512TIP3    H135027   1.461   4.331  14.246  0.2946 -1.7522  0.6418
 4512TIP3    H235028   1.313   4.311  14.221 -0.0983 -1.3236  2.4504
 4513TIP3   OH235029   5.728   3.993   2.515  0.1546 -0.6345 -0.2132
 4513TIP3    H135030   5.706   3.955   2.601 -0.8545 -2.0414 -1.0583
 4513TIP3    H235031   5.776   3.923   2.470  1.8656  0.5704 -0.3392
 4514TIP3   OH235032   6.172   1.025  11.294  0.0219  0.4990 -0.2458
 4514TIP3    H135033   6.079   1.013  11.275  0.0975  1.2950 -1.2281
 4514TIP3    H235034   6.210   1.049  11.209  1.2156 -0.3444  0.0385
 4515TIP3   OH235035   1.892   5.880  13.477 -0.3993  0.2198 -0.0299
 4515TIP3    H135036   1.911   5.974  13.479 -0.3716  0.2316  2.8181
 4515TIP3    H235037   1.803   5.872  13.510 -0.6745 -0.7285 -0.9501
 4516TIP3   OH235038   4.509   1.433   1.384  0.2648 -0.6502  0.0871
 4516TIP3    H135039   4.432   1.397   1.340  0.0227  0.0242 -0.0363
 4516TIP3    H235040   4.530   1.368   1.451  0.1424 -1.2855 -0.4783
 4517TIP3   OH235041   4.061   5.079   2.546  0.3780 -0.0438 -0.1318
 4517TIP3    H135042   4.028   5.127   2.471 -0.7319 -1.6959 -0.7514
 4517TIP3    H235043   4.148   5.048   2.519 -0.4184 -1.4928 -1.1944
 4518TIP3   OH235044   4.935   3.112   1.714 -0.3654 -0.7727  0.5902
 4518TIP3    H135045   4.845   3.085   1.695 -0.3229 -1.2681  1.0622
 4518TIP3    H235046   4.988   3.036   1.691 -0.0330 -0.3787  0.0348
 4519TIP3   OH235047   6.417   3.162   3.254  0.4979 -0.3624  0.2457
 4519TIP3    H135048   6.423   3.208   3.338 -0.8089  0.9989 -0.3539
 4519TIP3    H235049   6.503   3.173   3.215  0.5249  0.7463  0.5655
 4520TIP3   OH235050   1.220   0.429   3.242  0.2063 -0.0637 -0.1345
 4520TIP3    H135051   1.239   0.364   3.311  1.3369  1.9060  1.5137
 4520TIP3    H235052   1.154   0.486   3.281  0.1179  0.4955 -1.0830
 4521TIP3   OH235053   4.405   2.773  12.178  0.2545 -0.0893 -0.0635
 4521TIP3    H135054   4.389   2.703  12.242  3.4856 -0.1685  0.8535
 4521TIP3    H235055   4.421   2.851  12.232 -0.7362  0.7619 -0.9705
 4522TIP3   OH235056   1.914   1.366  12.701  0.3034  1.0554  0.2143
 4522TIP3    H135057   1.997   1.352  12.656 -0.5299  0.6079 -1.2459
 4522TIP3    H235058   1.851   1.383  12.631 -0.9162  1.0206  1.2651
 4523TIP3   OH235059   5.700   5.388  16.567 -0.1723 -0.1147 -0.3491
 4523TIP3    H135060   5.649   5.438  16.630 -1.2982 -0.5605 -0.8702
 4523TIP3    H235061   5.650   5.393  16.486 -0.5410 -2.3472 -0.3342
 4524TIP3   OH235062   6.108   5.107   1.588  0.1568  0.3988 -0.4255
 4524TIP3    H135063   6.014   5.103   1.571 -0.0485  0.6242  0.5638
 4524TIP3    H235064   6.123   5.036   1.651  0.7791 -0.0679 -1.0826
 4525TIP3   OH235065   5.290   5.230   5.227 -0.3679  0.3901 -0.2354
 4525TIP3    H135066   5.327   5.317   5.209 -0.9206  0.5485 -0.5925
 4525TIP3    H235067   5.257   5.237   5.317  0.4543  0.2455  0.0963
 4526TIP3   OH235068   1.469   6.464   4.949 -0.0130  0.0622  0.1846
 4526TIP3    H135069   1.423   6.380   4.950 -1.1744  0.5127 -3.1522
 4526TIP3    H235070   1.400   6.530   4.941  0.9764  0.9967 -1.2802
 4527TIP3   OH235071   4.408   3.292  15.943 -0.3567  0.1353 -0.0277
 4527TIP3    H135072   4.471   3.264  16.010 -0.0326 -1.4077 -0.9119
 4527TIP3    H235073   4.322   3.276  15.982 -0.1800  0.2730  0.4205
 4528TIP3   OH235074   6.426   1.076  11.413  0.1912 -0.5612 -0.1374
 4528TIP3    H135075   6.340   1.085  11.371 -0.5213  3.0632  1.6451
 4528TIP3    H235076   6.415   1.003  11.474 -1.0949 -1.1438 -1.0108
 4529TIP3   OH235077   3.036   5.783  12.014  0.1357  0.0612 -0.0345
 4529TIP3    H135078   2.981   5.716  11.973  0.6218 -0.4442  0.1228
 4529TIP3    H235079   3.081   5.826  11.940  1.2027 -1.0174 -0.0438
 4530TIP3   OH235080   5.750   5.758  16.342  0.4875  0.2820 -0.6254
 4530TIP3    H135081   5.744   5.812  16.421  2.9509  0.5225 -0.5257
 4530TIP3    H235082   5.722   5.671  16.371 -0.5204  0.7850 -0.0122
 4531TIP3   OH235083   0.441   0.199  11.225  0.4667  0.5812  0.0305
 4531TIP3    H135084   0.530   0.170  11.243 -0.1272 -1.2153  0.3054
 4531TIP3    H235085   0.447   0.246  11.142  1.3075 -1.7409 -1.3262
 4532TIP3   OH235086   5.735   4.490  16.683 -0.3111  0.9397  0.6067
 4532TIP3    H135087   5.784   4.523  16.608 -0.5132 -0.2470 -0.0667
 4532TIP3    H235088   5.787   4.517  16.759  0.2365  1.5926  0.0072
 4533TIP3   OH235089   4.858   2.594  12.865  0.5130  0.1693 -0.5714
 4533TIP3    H135090   4.877   2.649  12.941  2.4659 -0.5053 -0.5213
 4533TIP3    H235091   4.813   2.653  12.804  1.9523  1.6720 -0.2461
 4534TIP3   OH235092   2.500   0.877  12.209 -0.1868 -0.5205 -0.1307
 4534TIP3    H135093   2.497   0.835  12.124  0.7935  1.0720 -1.0056
 4534TIP3    H235094   2.522   0.807  12.270  0.8050 -1.3758 -1.4211
 4535TIP3   OH235095   6.341   5.109  15.289  0.3271 -0.2400  0.3486
 4535TIP3    H135096   6.402   5.180  15.272  0.9522 -0.8776 -0.1421
 4535TIP3    H235097   6.287   5.104  15.210  0.8343 -0.8416  0.0316
 4536TIP3   OH235098   5.407   5.563  10.797 -0.5748 -0.0717  0.2798
 4536TIP3    H135099   5.330   5.513  10.826 -1.6450  1.1051 -0.3935
 4536TIP3    H235100   5.370   5.645  10.765  0.9719  0.4350 -0.2579
 4537TIP3   OH235101   5.686   0.752   3.745  0.2938  0.2155 -0.7235
 4537TIP3    H135102   5.639   0.821   3.792 -1.0616 -0.5895 -0.8427
 4537TIP3    H235103   5.673   0.773   3.653 -0.9966 -0.7216 -0.7817
 4538TIP3   OH235104   1.344   6.767   5.763  0.3537  0.0146  0.2318
 4538TIP3    H135105   1.298   6.703   5.817  1.3459 -0.3703  0.6476
 4538TIP3    H235106   1.425   6.786   5.811 -0.0148  1.7769  0.2494
 4539TIP3   OH235107   5.559   4.754  11.230  0.0797  0.4856  0.0772
 4539TIP3    H135108   5.582   4.786  11.317 -1.5788 -0.0749  0.7655
 4539TIP3    H235109   5.514   4.828  11.188 -2.0083 -0.2270  0.9424
 4540TIP3   OH235110   3.596   1.540   3.021 -0.0649 -0.1449 -0.5501
 4540TIP3    H135111   3.594   1.635   3.007 -0.9538  0.2551  1.7904
 4540TIP3    H235112   3.532   1.506   2.959 -1.8523  1.1517  0.4774
 4541TIP3   OH235113   3.001   4.841  15.931 -0.3686  0.0536  0.0379
 4541TIP3    H135114   2.906   4.855  15.928 -0.0885  2.2221 -0.8907
 4541TIP3    H235115   3.029   4.847  15.839  0.6681 -0.4646  0.3039
 4542TIP3   OH235116   1.960   4.638  12.164 -0.2051 -0.2508  0.5717
 4542TIP3    H135117   1.959   4.545  12.184 -0.9468 -0.2164  0.7578
 4542TIP3    H235118   1.965   4.681  12.250  1.0034 -0.1153  0.4466
 4543TIP3   OH235119   2.017   3.337   4.272  0.4537  0.0217 -0.0277
 4543TIP3    H135120   1.984   3.422   4.299 -0.4979 -0.1702 -0.5384
 4543TIP3    H235121   1.939   3.282   4.265  1.0184 -0.7960 -0.0378
 4544TIP3   OH235122   0.644   2.402  12.368 -0.4599  0.2430  0.1352
 4544TIP3    H135123   0.584   2.331  12.393 -0.2791  0.8868  2.7297
 4544TIP3    H235124   0.730   2.372  12.398 -0.1925  1.0616  0.1961
 4545TIP3   OH235125   2.226   3.173   3.621  0.2832  0.0851 -0.2401
 4545TIP3    H135126   2.160   3.227   3.578 -0.2538  0.2962  0.8226
 4545TIP3    H235127   2.227   3.092   3.570 -1.5894 -0.3493  0.3720
 4546TIP3   OH235128   6.331   6.226   5.874  0.3258 -0.1243 -0.5175
 4546TIP3    H135129   6.412   6.270   5.848 -0.6896  0.9896 -1.9543
 4546TIP3    H235130   6.261   6.282   5.840 -1.0395 -1.8990 -0.8030
 4547TIP3   OH235131   5.291   2.792  15.494 -0.3624 -0.4177 -0.1944
 4547TIP3    H135132   5.338   2.741  15.427  2.2726 -0.0999  1.2552
 4547TIP3    H235133   5.308   2.745  15.576 -1.8467  0.2768  0.5433
 4548TIP3   OH235134   6.373   2.599  13.117 -0.5897  0.0130  0.5315
 4548TIP3    H135135   6.440   2.612  13.050 -1.3554 -1.1120 -0.4826
 4548TIP3    H235136   6.417   2.623  13.199  0.6795  0.4304 -0.2412
 4549TIP3   OH235137   5.109   4.972   4.784 -0.1745 -0.6579 -0.5407
 4549TIP3    H135138   5.132   4.917   4.859 -0.7610  0.8352  0.8065
 4549TIP3    H235139   5.156   4.934   4.710  0.2262 -2.3329  0.5319
 4550TIP3   OH235140   5.701   0.001  14.961 -0.3565 -0.0333  0.1247
 4550TIP3    H135141   5.611  -0.001  14.928 -0.8151  0.7049  1.2786
 4550TIP3    H235142   5.710  -0.080  15.012 -0.1715 -0.3701 -0.4236
 4551TIP3   OH235143   3.222   5.302  12.011  0.0942  0.5685  0.3892
 4551TIP3    H135144   3.183   5.340  11.931  0.6211 -2.3461 -1.3904
 4551TIP3    H235145   3.179   5.350  12.082 -1.9422  1.9272 -1.5768
 4552TIP3   OH235146   3.648   1.358  16.334 -0.2617 -0.0268 -0.2480
 4552TIP3    H135147   3.603   1.334  16.254  2.0293 -0.2477 -1.5457
 4552TIP3    H235148   3.701   1.435  16.311  2.7899 -1.8521  0.0906
 4553TIP3   OH235149   1.211   6.171   4.537  0.0880 -0.2954 -0.1948
 4553TIP3    H135150   1.148   6.101   4.519 -0.9120 -0.0467  2.0127
 4553TIP3    H235151   1.225   6.167   4.631  2.1402  0.7446 -0.3960
 4554TIP3   OH235152   2.247   3.491   4.778 -0.0005  0.0655  0.6472
 4554TIP3    H135153   2.223   3.498   4.685  1.1485 -0.7082  0.2658
 4554TIP3    H235154   2.164   3.494   4.825 -0.6061  0.4093 -0.4067
 4555TIP3   OH235155   6.363   5.326  12.575  0.1522  0.7164 -0.2354
 4555TIP3    H135156   6.448   5.287  12.556  0.4976  0.4295  1.6750
 4555TIP3    H235157   6.320   5.262  12.633 -0.0739  2.2241  1.3414
 4556TIP3   OH235158   5.247   6.451   5.350 -0.0988 -0.6044 -0.2076
 4556TIP3    H135159   5.157   6.470   5.323  0.2414  0.7920 -0.4655
 4556TIP3    H235160   5.244   6.454   5.446 -0.5490 -1.7620 -0.1705
 4557TIP3   OH235161   4.808   4.251  15.370 -0.2838  0.0326  0.4863
 4557TIP3    H135162   4.724   4.289  15.344 -0.8212 -1.6356 -0.3386
 4557TIP3    H235163   4.844   4.214  15.289  0.3579 -0.9297  1.1873
 4558TIP3   OH235164   0.899   2.224   4.411  0.1099 -0.0233  0.7985
 4558TIP3    H135165   0.965   2.253   4.474  1.0628  0.1853 -0.2669
 4558TIP3    H235166   0.821   2.274   4.433  0.9452  1.3703  0.7094
 4559TIP3   OH235167   2.720   5.530   3.193 -0.3004 -0.3650 -0.7749
 4559TIP3    H135168   2.711   5.488   3.108  3.3082 -1.4061 -0.8312
 4559TIP3    H235169   2.726   5.457   3.255  1.1707  0.1708 -0.2303
 4560TIP3   OH235170   3.539   4.526  15.857 -0.5133  0.4487  0.2246
 4560TIP3    H135171   3.586   4.597  15.813 -0.1586 -0.9173 -1.7216
 4560TIP3    H235172   3.447   4.544  15.841 -0.3719 -0.3038 -1.5946
 4561TIP3   OH235173   5.002   1.068   6.125 -0.0514 -0.6929 -0.0082
 4561TIP3    H135174   4.925   1.053   6.179 -0.6857 -0.9331 -0.9602
 4561TIP3    H235175   4.969   1.072   6.036  0.8940  0.2999 -0.3424
 4562TIP3   OH235176   5.917   5.794   4.466  0.5677 -0.7924  0.6048
 4562TIP3    H135177   5.877   5.708   4.462 -1.1643  0.0059 -1.5099
 4562TIP3    H235178   5.843   5.855   4.469  1.6234  0.6782 -0.9942
 4563TIP3   OH235179   4.147   5.042  13.171  0.6506  0.7135  0.6602
 4563TIP3    H135180   4.221   4.991  13.139  0.7047  1.7287 -0.9058
 4563TIP3    H235181   4.071   4.987  13.154  0.9701 -0.2062  2.0073
 4564TIP3   OH235182   0.776   5.865  13.576  0.4343  0.5945  0.0251
 4564TIP3    H135183   0.825   5.795  13.533  0.2981  0.2919  0.3577
 4564TIP3    H235184   0.818   5.945  13.546  0.9573  0.3473  0.0813
 4565TIP3   OH235185   4.007   2.142  12.163 -0.7562 -0.5021 -0.2463
 4565TIP3    H135186   3.966   2.157  12.248 -1.2314 -0.6557 -0.4476
 4565TIP3    H235187   4.040   2.228  12.136 -2.1353 -0.0904 -0.7015
 4566TIP3   OH235188   5.194   4.574  12.250  0.0779 -0.4140  0.9773
 4566TIP3    H135189   5.103   4.596  12.268  0.6977  2.4942  0.9934
 4566TIP3    H235190   5.214   4.617  12.167  1.6801 -0.1999  1.4418
 4567TIP3   OH235191   5.131   5.473  15.745  0.2301  0.5891 -0.1739
 4567TIP3    H135192   5.051   5.423  15.762  0.7013  0.1164  0.7194
 4567TIP3    H235193   5.107   5.533  15.674 -0.0297 -1.7745 -2.2351
 4568TIP3   OH235194   3.403   0.687  16.586  0.1592  0.3207  0.0383
 4568TIP3    H135195   3.401   0.614  16.648  2.2893  1.0005  0.9806
 4568TIP3    H235196   3.452   0.756  16.631  0.3662  1.4395 -1.7848
 4569TIP3   OH235197   0.214   3.911   4.348 -0.0663 -0.0784  0.3106
 4569TIP3    H135198   0.283   3.977   4.349  1.1216 -1.1423 -2.0539
 4569TIP3    H235199   0.159   3.935   4.274 -0.4619 -0.9157  0.3162
 4570TIP3   OH235200   4.518   1.960   0.727  0.3406  0.3922  0.3689
 4570TIP3    H135201   4.497   1.867   0.714  1.0781  0.3031 -0.2597
 4570TIP3    H235202   4.611   1.966   0.709  0.5032  1.0920  1.3967
 4571TIP3   OH235203   3.849   3.495   4.830  0.3741  0.1275  0.2525
 4571TIP3    H135204   3.783   3.432   4.859  0.5387 -0.9710 -1.5923
 4571TIP3    H235205   3.830   3.510   4.737  1.7537  1.0089  0.0685
 4572TIP3   OH235206   5.590   3.848  15.241  0.4743 -0.4279 -0.4432
 4572TIP3    H135207   5.522   3.790  15.275 -1.6628  1.6686 -0.8097
 4572TIP3    H235208   5.621   3.896  15.318  1.5891 -1.3942 -0.2750
 4573TIP3   OH235209   3.800   4.393  15.492 -0.6857 -0.2757  0.1269
 4573TIP3    H135210   3.814   4.379  15.585 -1.6995  0.6183  0.4348
 4573TIP3    H235211   3.862   4.335  15.449 -0.8697 -1.4142  1.3484
 4574TIP3   OH235212   3.469   5.827  11.346  0.3130 -0.2497  0.2046
 4574TIP3    H135213   3.393   5.835  11.288  1.8632  1.8952 -1.6731
 4574TIP3    H235214   3.536   5.784  11.293  1.2859  0.3659  0.9029
 4575TIP3   OH235215   1.051   6.084  14.548 -0.2843 -0.0318 -0.3006
 4575TIP3    H135216   1.053   6.180  14.544  2.4399 -0.0678 -1.3986
 4575TIP3    H235217   1.016   6.065  14.635 -0.4272  1.9676  0.1300
 4576TIP3   OH235218   3.446   3.501   0.765  0.0238  0.2320  0.1981
 4576TIP3    H135219   3.354   3.528   0.773 -0.1801 -0.3443 -0.1797
 4576TIP3    H235220   3.495   3.582   0.776 -0.5417  0.5919  0.1187
 4577TIP3   OH235221   5.153   2.301  15.124  0.3455  0.1825 -0.2371
 4577TIP3    H135222   5.184   2.265  15.207 -0.3916 -0.4287 -0.2226
 4577TIP3    H235223   5.145   2.395  15.140 -0.4556 -0.0194  0.5914
 4578TIP3   OH235224   3.680   3.141   0.542  0.4430  0.4104  0.4357
 4578TIP3    H135225   3.755   3.171   0.593  0.5119 -0.1700  0.6900
 4578TIP3    H235226   3.619   3.214   0.542  0.3731  0.3559  1.4968
 4579TIP3   OH235227   5.575   1.655   0.976  0.1158 -0.0679 -0.1214
 4579TIP3    H135228   5.505   1.601   0.938  0.4916 -1.6059  1.2673
 4579TIP3    H235229   5.542   1.679   1.063  0.9563 -0.0534  0.1964
 4580TIP3   OH235230   6.416   6.619   2.416  0.0180  0.8604 -0.3637
 4580TIP3    H135231   6.384   6.590   2.330  1.6569 -1.5603 -0.2471
 4580TIP3    H235232   6.440   6.711   2.403 -0.3548  0.7244 -2.3221
 4581TIP3   OH235233   2.276   6.783  11.386  0.0738  0.1208 -0.6194
 4581TIP3    H135234   2.356   6.744  11.350  0.2404  0.8304 -1.0215
 4581TIP3    H235235   2.227   6.813  11.310 -0.5154 -0.1773 -0.3652
 4582TIP3   OH235236   6.723   4.597  16.909  0.4031 -0.0966  0.3102
 4582TIP3    H135237   6.723   4.505  16.933  1.2462 -1.0634 -2.9810
 4582TIP3    H235238   6.631   4.617  16.890  0.0863  0.0467  1.8724
 4583TIP3   OH235239   5.965   3.301  15.263  0.2506  0.4930 -0.5882
 4583TIP3    H135240   5.882   3.255  15.246 -0.7000  2.0837 -0.4094
 4583TIP3    H235241   5.987   3.277  15.353  1.3657 -1.9583 -1.4242
 4584TIP3   OH235242   0.448   5.644  13.575  0.3770  0.6376 -0.5186
 4584TIP3    H135243   0.504   5.602  13.509  1.7525  1.0851  0.3093
 4584TIP3    H235244   0.370   5.589  13.580  0.7494 -0.0248 -1.7118
 4585TIP3   OH235245   5.678   2.641   5.289  0.0721 -0.2247 -0.1094
 4585TIP3    H135246   5.587   2.625   5.262  0.5518 -2.9599 -0.3799
 4585TIP3    H235247   5.670   2.703   5.362 -1.9099  0.3677 -0.7552
 4586TIP3   OH235248   2.799   6.333  15.185  0.2304 -0.2539  0.0880
 4586TIP3    H135249   2.803   6.418  15.228 -1.1103 -0.1348  0.0394
 4586TIP3    H235250   2.716   6.295  15.214  0.4027 -1.1797 -0.5586
 4587TIP3   OH235251   4.400   5.871   5.547 -0.1690  0.1865 -0.2109
 4587TIP3    H135252   4.318   5.918   5.563 -1.3170 -1.7984  0.1164
 4587TIP3    H235253   4.392   5.838   5.458  0.6913  0.7281 -0.4983
 4588TIP3   OH235254   5.945   3.647  11.747  0.1712  0.2841 -0.4208
 4588TIP3    H135255   5.930   3.716  11.812  1.0343  1.6333 -1.5883
 4588TIP3    H235256   6.027   3.606  11.774 -0.4181 -0.4005  0.3589
 4589TIP3   OH235257   3.350   6.781  16.657  0.1991 -1.2184  0.2164
 4589TIP3    H135258   3.330   6.845  16.725  0.8184  0.8851 -1.4370
 4589TIP3    H235259   3.387   6.706  16.703  3.2062  1.1662  2.0723
 4590TIP3   OH235260   2.099   3.625   0.663 -0.0285 -0.4887 -0.1762
 4590TIP3    H135261   2.183   3.601   0.625 -0.4256  0.4822 -1.7882
 4590TIP3    H235262   2.120   3.687   0.732  0.6625 -1.5352  0.5723
 4591TIP3   OH235263   2.383   0.004   2.447 -0.6648  0.6334 -0.0615
 4591TIP3    H135264   2.414  -0.022   2.360  0.8161  1.5507  0.1595
 4591TIP3    H235265   2.325   0.079   2.430 -0.4285  0.7715 -0.2653
 4592TIP3   OH235266   2.414   1.255  11.588  0.2475  0.6091 -0.0450
 4592TIP3    H135267   2.369   1.231  11.507 -1.4671 -0.7452  1.2357
 4592TIP3    H235268   2.460   1.175  11.615  0.5336  0.9506  0.4993
 4593TIP3   OH235269   4.762   1.991  13.483 -0.3669  0.3565  0.0967
 4593TIP3    H135270   4.730   1.930  13.417  0.5224  0.1020 -0.1108
 4593TIP3    H235271   4.726   2.075  13.457  1.5306  0.6584 -1.8842
 4594TIP3   OH235272   3.535   1.778  13.306 -0.0682 -0.6205  0.1830
 4594TIP3    H135273   3.520   1.780  13.211  0.5727 -0.1530  0.0839
 4594TIP3    H235274   3.448   1.786  13.345 -0.1941  0.9220 -0.3623
 4595TIP3   OH235275   0.894   0.997  11.422 -0.1120 -0.0693 -0.4491
 4595TIP3    H135276   0.956   1.058  11.462 -0.0634  0.0189 -0.6591
 4595TIP3    H235277   0.809   1.025  11.455  0.1610 -1.9157  2.1493
 4596TIP3   OH235278   3.148   0.524  13.023 -0.0084 -0.7008  0.6444
 4596TIP3    H135279   3.077   0.571  13.067  0.8527 -0.5695  1.9598
 4596TIP3    H235280   3.106   0.481  12.949 -1.2025  0.4369  0.6286
 4597TIP3   OH235281   1.977   1.887  10.355  0.1512  0.5458 -0.3962
 4597TIP3    H135282   1.884   1.904  10.363 -0.2855  0.3621 -3.6786
 4597TIP3    H235283   1.986   1.793  10.373 -0.2698  0.5660 -0.0568
 4598TIP3   OH235284   4.919   2.779  14.187  0.1626  1.2116 -0.4922
 4598TIP3    H135285   4.869   2.733  14.254 -1.1793 -1.1690 -2.9120
 4598TIP3    H235286   5.007   2.741  14.193 -0.8627 -1.8321 -2.2873
 4599TIP3   OH235287   3.633   6.023  16.140  0.2257  0.5081 -0.2649
 4599TIP3    H135288   3.600   6.019  16.230 -0.7078  0.7976 -0.5869
 4599TIP3    H235289   3.556   6.038  16.086  0.8428  0.8537 -1.0780
 4600TIP3   OH235290   0.388   5.639   2.463  0.2005  0.7588 -0.1178
 4600TIP3    H135291   0.348   5.650   2.549 -0.6164  1.6923 -0.5951
 4600TIP3    H235292   0.319   5.662   2.401  0.9466  0.6609 -1.0140
 4601TIP3   OH235293   3.857   6.667   2.260 -0.4179  0.1743 -0.2361
 4601TIP3    H135294   3.945   6.637   2.234 -0.3490 -1.0588  1.2434
 4601TIP3    H235295   3.799   6.633   2.192  0.1640  0.4455 -0.8842
 4602TIP3   OH235296   5.802   0.028  12.653 -0.4136  0.1064 -0.5196
 4602TIP3    H135297   5.779   0.104  12.706  0.0144 -0.0823 -0.0457
 4602TIP3    H235298   5.893   0.045  12.626  0.3074 -1.0189  1.0472
 4603TIP3   OH235299   1.573   0.040  10.657 -0.0536 -0.3250 -0.3372
 4603TIP3    H135300   1.663   0.052  10.626 -0.1725 -0.7399 -0.8504
 4603TIP3    H235301   1.580  -0.021  10.730  0.2475  0.7794  0.5915
 4604TIP3   OH235302   4.463   1.356   3.670  0.2235 -0.4591 -0.0520
 4604TIP3    H135303   4.431   1.443   3.647 -1.4081 -0.4180  2.1207
 4604TIP3    H235304   4.387   1.299   3.661  0.2149 -0.9118  2.3417
 4605TIP3   OH235305   1.490   0.501   6.714 -0.2765 -0.2929 -0.2166
 4605TIP3    H135306   1.506   0.559   6.639 -0.0773  0.2505  0.2437
 4605TIP3    H235307   1.572   0.452   6.723  0.2850  0.7638  0.6206
 4606TIP3   OH235308   1.490   6.425  12.849 -0.4085 -0.3894  0.6003
 4606TIP3    H135309   1.436   6.409  12.927 -1.4845  1.1224  0.2263
 4606TIP3    H235310   1.474   6.517  12.828  1.7722 -0.1009  0.0010
 4607TIP3   OH235311   3.912   5.896   5.077 -0.0459  0.2056  0.1123
 4607TIP3    H135312   3.866   5.907   4.993 -0.4785  0.9745  0.4329
 4607TIP3    H235313   3.846   5.859   5.136  0.7224 -1.9508 -0.2968
 4608TIP3   OH235314   2.082   6.576   1.538  0.7354  0.2316 -0.6624
 4608TIP3    H135315   2.175   6.557   1.522  0.7088 -2.0176  1.1948
 4608TIP3    H235316   2.082   6.656   1.590  1.7471 -0.4340  0.3961
 4609TIP3   OH235317   4.104   6.760  10.856 -0.3956 -0.5167 -0.0357
 4609TIP3    H135318   4.011   6.745  10.871 -1.3429  0.6977 -3.5985
 4609TIP3    H235319   4.129   6.694  10.791  0.4253  0.8691 -1.2080
 4610TIP3   OH235320   4.549   4.009   2.980  0.1024 -0.1931  0.0461
 4610TIP3    H135321   4.501   4.078   3.026  0.0609  1.4576 -2.2438
 4610TIP3    H235322   4.501   3.929   2.999 -1.6041  0.8859  0.5203
 4611TIP3   OH235323   4.496   3.748   5.274 -0.1198 -0.1934  0.6665
 4611TIP3    H135324   4.549   3.679   5.233  0.1938  0.1970  0.4103
 4611TIP3    H235325   4.513   3.738   5.368  0.6318  0.1076  0.5678
 4612TIP3   OH235326   4.646   4.124  12.164  0.2706 -0.0447  0.0899
 4612TIP3    H135327   4.665   4.094  12.076  0.8578 -1.1245  0.5718
 4612TIP3    H235328   4.555   4.099  12.179 -0.1125  0.9221 -0.5066
 4613TIP3   OH235329   2.792   5.784  11.328  0.1946  0.2458 -0.0132
 4613TIP3    H135330   2.722   5.740  11.280 -0.0542  1.7705 -1.1159
 4613TIP3    H235331   2.759   5.873  11.342  0.0552 -0.2121  3.4500
 4614TIP3   OH235332   2.182   2.271  12.851 -0.2346  0.1402 -0.1895
 4614TIP3    H135333   2.230   2.333  12.905 -0.2585  2.0714 -2.2268
 4614TIP3    H235334   2.135   2.215  12.913 -0.1094  2.0825  1.7645
 4615TIP3   OH235335   3.153   4.360   4.432 -0.4520  0.2105 -0.1592
 4615TIP3    H135336   3.057   4.357   4.431 -0.5425  1.7490 -1.8429
 4615TIP3    H235337   3.174   4.453   4.430  1.0890 -0.1179 -0.4353
 4616TIP3   OH235338   6.399   0.449   5.292  0.8969  0.6193 -0.0750
 4616TIP3    H135339   6.449   0.510   5.347 -1.3611  2.9707 -0.3972
 4616TIP3    H235340   6.331   0.414   5.350  1.9732 -1.4372  0.0149
 4617TIP3   OH235341   4.016   4.663  13.249  0.0631  0.6565  0.3198
 4617TIP3    H135342   4.068   4.706  13.181  0.8016  0.5686  0.8165
 4617TIP3    H235343   4.028   4.718  13.326  1.0174 -0.4048  0.9660
 4618TIP3   OH235344   1.467   6.693   2.314 -0.4888  0.0299 -0.6579
 4618TIP3    H135345   1.531   6.691   2.385 -1.3187 -1.0884  0.1087
 4618TIP3    H235346   1.433   6.782   2.315 -1.2834 -0.2362  1.1384
 4619TIP3   OH235347   1.085   6.804  13.141 -0.2871 -0.6464 -0.2335
 4619TIP3    H135348   0.993   6.780  13.147 -0.2684 -0.9616 -1.1120
 4619TIP3    H235349   1.084   6.892  13.104 -0.2963  0.2181  1.6724
 4620TIP3   OH235350   6.530   5.688   2.195 -0.2144  0.2820  0.5467
 4620TIP3    H135351   6.524   5.762   2.256 -0.7010 -0.6102  1.6122
 4620TIP3    H235352   6.624   5.679   2.179 -0.1021  0.7253  0.9185
 4621TIP3   OH235353   0.297   5.168  14.778 -0.1975  0.0573  0.4290
 4621TIP3    H135354   0.218   5.167  14.723  0.3292  0.0246 -0.3299
 4621TIP3    H235355   0.340   5.084  14.760  0.1014  0.1436  0.7271
 4622TIP3   OH235356   0.111   4.856   5.090 -0.1886  0.0791 -0.3526
 4622TIP3    H135357   0.021   4.862   5.124  0.9457  1.2935  2.8619
 4622TIP3    H235358   0.160   4.814   5.161  1.8584 -0.3158 -1.9231
 4623TIP3   OH235359   5.751   2.297  12.694  0.0581 -0.0698 -0.2798
 4623TIP3    H135360   5.721   2.249  12.617 -0.1453 -2.0306  0.9490
 4623TIP3    H235361   5.846   2.300  12.684 -0.0176  0.3649 -0.9620
 4624TIP3   OH235362   4.244   5.870  16.319 -0.0849  0.1576 -0.7198
 4624TIP3    H135363   4.159   5.895  16.355 -0.2225 -1.1966 -0.0723
 4624TIP3    H235364   4.292   5.834  16.393  0.5594 -0.3476 -1.3704
 4625TIP3   OH235365   2.826   5.878   1.833 -0.1218  0.2824 -0.1264
 4625TIP3    H135366   2.820   5.936   1.909 -1.2727  0.2465 -0.1791
 4625TIP3    H235367   2.865   5.933   1.764 -1.4015  1.0793 -0.2450
 4626TIP3   OH235368   6.171   3.496  11.834 -0.3898  0.2099  0.0119
 4626TIP3    H135369   6.157   3.408  11.799  0.0814  0.3433 -0.5474
 4626TIP3    H235370   6.266   3.507  11.832 -0.5037  1.2910 -1.3960
 4627TIP3   OH235371   1.376   2.936  12.413  0.2051  0.3875 -0.5880
 4627TIP3    H135372   1.346   2.846  12.431  0.8873 -0.1317 -1.8739
 4627TIP3    H235373   1.341   2.955  12.326 -0.7807  1.7740  0.0910
 4628TIP3   OH235374   4.694   2.871  12.212  0.1096 -0.3258  0.4719
 4628TIP3    H135375   4.678   2.855  12.305  1.3030  1.0411  0.9389
 4628TIP3    H235376   4.787   2.889  12.206  0.4437 -2.3347 -1.3195
 4629TIP3   OH235377   6.281   4.540   6.151 -0.1311  0.4231  0.0562
 4629TIP3    H135378   6.250   4.537   6.242 -0.0721  0.5074  0.0790
 4629TIP3    H235379   6.250   4.458   6.113 -0.0868  0.3503  0.1759
 4630TIP3   OH235380   1.670   2.505   5.640 -0.5229  0.0330 -0.2274
 4630TIP3    H135381   1.620   2.472   5.714  0.4908 -0.1234  0.4028
 4630TIP3    H235382   1.621   2.475   5.563 -1.1749 -0.4492  0.3616
 4631TIP3   OH235383   3.300   0.278   0.804  0.5577  0.2221  0.1323
 4631TIP3    H135384   3.323   0.210   0.866  1.6986 -1.3343 -1.8624
 4631TIP3    H235385   3.205   0.270   0.794  0.4091  0.2810  1.3808
 4632TIP3   OH235386   3.331   6.498   0.638  0.1316 -0.2918  0.0847
 4632TIP3    H135387   3.273   6.561   0.596 -0.7948  1.1407  3.2284
 4632TIP3    H235388   3.417   6.539   0.636  0.3302 -0.6981 -1.1549
 4633TIP3   OH235389   1.160   6.034   2.149  0.0105  0.1940 -0.0821
 4633TIP3    H135390   1.073   6.069   2.132 -0.1620  0.4927  1.3019
 4633TIP3    H235391   1.146   5.940   2.162 -0.3823  0.4465  1.6544
 4634TIP3   OH235392   2.664   1.493   5.764 -0.6234  0.7236  0.7148
 4634TIP3    H135393   2.656   1.516   5.672  1.5763 -0.5793  0.1063
 4634TIP3    H235394   2.604   1.419   5.776  2.7554 -2.7519 -1.2423
 4635TIP3   OH235395   5.759   6.354   4.717  0.0877  0.4838  0.1575
 4635TIP3    H135396   5.709   6.397   4.786  0.2104  0.3820  0.3126
 4635TIP3    H235397   5.694   6.305   4.667  0.0789  0.0433  0.5906
 4636TIP3   OH235398   1.795   6.183  15.304  0.5386  0.6591 -0.1011
 4636TIP3    H135399   1.877   6.143  15.276 -0.3681 -0.3198 -1.5179
 4636TIP3    H235400   1.821   6.264  15.347  2.4840 -1.3406  2.8482
 4637TIP3   OH235401   4.122   0.125  16.083 -0.5778 -1.0399 -0.3221
 4637TIP3    H135402   4.032   0.151  16.102 -0.8189 -0.8676 -1.6379
 4637TIP3    H235403   4.126   0.033  16.108 -0.5024 -0.5527  1.7107
 4638TIP3   OH235404   0.972   2.294  12.445 -0.2071 -0.2995 -1.1737
 4638TIP3    H135405   1.004   2.208  12.470  0.6286  0.5506  0.9529
 4638TIP3    H235406   0.947   2.335  12.528  0.8126  2.0308 -1.9442
 4639TIP3   OH235407   2.013   5.640  15.847  0.2143 -0.2930 -0.0294
 4639TIP3    H135408   2.029   5.561  15.898 -2.4137 -1.2163 -0.4697
 4639TIP3    H235409   1.935   5.679  15.886 -0.2353  0.4990 -1.6027
 4640TIP3   OH235410   4.687   6.422  17.165  1.0035 -0.0673  0.1086
 4640TIP3    H135411   4.621   6.374  17.115 -1.0156  2.9522 -0.4045
 4640TIP3    H235412   4.758   6.436  17.102 -0.5774  1.8160 -1.3928
 4641TIP3   OH235413   5.229   4.552  11.875 -0.5721 -0.9954  0.6416
 4641TIP3    H135414   5.298   4.499  11.914  0.0899 -1.7313 -1.4086
 4641TIP3    H235415   5.155   4.492  11.865 -0.1273 -1.3417 -0.8356
 4642TIP3   OH235416   4.956   0.904   2.560  0.5622 -0.6538 -0.2710
 4642TIP3    H135417   4.886   0.856   2.603 -0.4711  1.3686  0.4521
 4642TIP3    H235418   5.017   0.926   2.630  0.1685  0.4599 -0.2488
 4643TIP3   OH235419   6.264   1.315  11.115  0.1026 -0.0757  0.0653
 4643TIP3    H135420   6.258   1.363  11.198 -0.9636  0.7776 -0.4738
 4643TIP3    H235421   6.284   1.382  11.050 -1.6472 -0.2634 -0.7372
 4644TIP3   OH235422   0.453   2.984   3.344 -0.5515  0.1064  0.8794
 4644TIP3    H135423   0.524   3.020   3.291 -0.5160  0.9072  1.4571
 4644TIP3    H235424   0.402   3.060   3.371 -2.2467 -0.5272 -0.3584
 4645TIP3   OH235425   1.272   4.562  14.485  0.2089 -0.5392 -0.3363
 4645TIP3    H135426   1.263   4.624  14.558  1.9250 -0.2243 -0.3674
 4645TIP3    H235427   1.201   4.499  14.499 -0.0651  0.0419  1.0693
 4646TIP3   OH235428   4.036   4.117  17.040 -0.1169  0.1711 -1.3646
 4646TIP3    H135429   4.016   4.023  17.042 -0.6392  0.2857 -0.2501
 4646TIP3    H235430   4.131   4.121  17.051 -0.2729 -0.2001  0.4126
 4647TIP3   OH235431   0.166   0.620  12.534  0.1565  0.7131  0.5030
 4647TIP3    H135432   0.254   0.593  12.557 -0.0378 -1.0680 -0.6683
 4647TIP3    H235433   0.157   0.708  12.572  3.1218  1.8360 -1.0519
 4648TIP3   OH235434   5.655   2.299   1.280  0.6525 -0.1372 -0.2618
 4648TIP3    H135435   5.627   2.286   1.189  2.4744  0.1349 -0.8960
 4648TIP3    H235436   5.632   2.390   1.299  2.1130  0.4591 -1.1836
 4649TIP3   OH235437   4.764   3.989  14.067 -0.1858  0.0311  0.2571
 4649TIP3    H135438   4.677   4.015  14.096  0.5652  2.5910  0.4310
 4649TIP3    H235439   4.823   4.018  14.137  0.8705 -1.2368 -0.0636
 4650TIP3   OH235440   2.272   0.585  12.319  0.2021 -0.3698  0.4141
 4650TIP3    H135441   2.363   0.602  12.297  0.1091 -0.4453 -0.0241
 4650TIP3    H235442   2.235   0.671  12.337 -0.4698  0.0504 -2.5651
 4651TIP3   OH235443   4.098   2.569   4.419  0.4546  0.4477  0.0874
 4651TIP3    H135444   4.146   2.605   4.493  0.5020 -0.2260  0.3954
 4651TIP3    H235445   4.090   2.475   4.439 -0.8415  0.5169 -0.0380
 4652TIP3   OH235446   4.341   0.968   4.686 -0.1908 -0.8312 -0.3514
 4652TIP3    H135447   4.410   0.917   4.729 -0.7387  1.3719  3.5979
 4652TIP3    H235448   4.383   1.051   4.665 -1.1450 -0.0871  0.5722
 4653TIP3   OH235449   4.771   5.491  11.590  0.4210 -0.0658  0.8046
 4653TIP3    H135450   4.695   5.454  11.635 -1.2512  0.4541 -1.3948
 4653TIP3    H235451   4.748   5.583  11.576  1.3330  0.0430 -0.1465
 4654TIP3   OH235452   0.033   6.154   1.866  0.1517 -0.2168  0.1272
 4654TIP3    H135453  -0.048   6.170   1.818  0.6317  0.7270 -0.3953
 4654TIP3    H235454   0.084   6.098   1.808  0.2475 -0.0550  0.0551
 4655TIP3   OH235455   3.215   5.585   4.894 -0.4761  0.2479 -0.4823
 4655TIP3    H135456   3.238   5.674   4.922  0.3262  0.6247 -2.1932
 4655TIP3    H235457   3.264   5.529   4.954 -0.2535  0.9676  0.0333
 4656TIP3   OH235458   3.553   2.575   1.151  0.1705  0.1581 -0.4191
 4656TIP3    H135459   3.620   2.513   1.120  0.4722  0.8356 -1.1536
 4656TIP3    H235460   3.598   2.627   1.217 -0.1278 -0.5023  0.3095
 4657TIP3   OH235461   3.880   3.040  16.023 -0.2542  0.0223 -0.4348
 4657TIP3    H135462   3.889   2.946  16.014 -2.7929 -0.2891 -0.6649
 4657TIP3    H235463   3.823   3.051  16.100 -2.6400  1.1052 -2.2025
 4658TIP3   OH235464   4.911   5.686   4.765 -0.3658  0.1534  0.7862
 4658TIP3    H135465   4.882   5.608   4.718  0.5136 -0.4277  1.1858
 4658TIP3    H235466   4.830   5.735   4.783 -1.2844 -1.8764  2.7029
 4659TIP3   OH235467   0.510   3.078  12.395 -0.5851 -0.5172  0.0783
 4659TIP3    H135468   0.528   2.986  12.378 -0.4470 -0.3004 -1.0185
 4659TIP3    H235469   0.596   3.116  12.414 -0.6027 -0.5563  0.2357
 4660TIP3   OH235470   5.797   0.632  13.443 -0.0931 -0.5272  0.1097
 4660TIP3    H135471   5.729   0.617  13.377  0.2414  0.6195 -0.5377
 4660TIP3    H235472   5.876   0.651  13.392  0.5546 -1.1700  0.8538
 4661TIP3   OH235473   5.756   4.639  11.636 -0.2098 -0.3363 -0.1597
 4661TIP3    H135474   5.766   4.710  11.699 -0.7174  0.1642 -0.6312
 4661TIP3    H235475   5.787   4.676  11.553 -0.3419 -0.7115 -0.3787
 4662TIP3   OH235476   0.643   1.787  10.182  0.6069 -0.3025  0.1937
 4662TIP3    H135477   0.585   1.862  10.169 -0.6871 -0.6792  3.0107
 4662TIP3    H235478   0.720   1.823  10.225  0.7120 -0.3688  0.0623
 4663TIP3   OH235479   1.984   6.184  15.063  0.1057 -0.2123  0.0251
 4663TIP3    H135480   2.073   6.176  15.096  0.2354  0.1392 -0.2246
 4663TIP3    H235481   1.995   6.197  14.968 -0.3121 -2.9312 -0.4771
 4664TIP3   OH235482   4.161   5.233   5.439  0.1265 -0.1577  0.6173
 4664TIP3    H135483   4.125   5.322   5.438  0.4394  0.1317 -3.5550
 4664TIP3    H235484   4.256   5.246   5.437  0.1944 -0.6327  0.7331
 4665TIP3   OH235485   4.612   4.506   3.918 -0.5290 -0.8014 -0.1755
 4665TIP3    H135486   4.535   4.472   3.872 -1.4159  0.4230  0.3391
 4665TIP3    H235487   4.605   4.470   4.006  0.8585 -2.6784 -0.7737
 4666TIP3   OH235488   6.020   3.697   3.874 -0.5911 -0.4257 -0.1302
 4666TIP3    H135489   5.975   3.769   3.918 -0.6059 -2.0086  2.6780
 4666TIP3    H235490   6.069   3.740   3.804 -2.0533  2.0491  0.2108
 4667TIP3   OH235491   6.375   5.874  13.922 -0.0655 -0.0093 -0.4933
 4667TIP3    H135492   6.306   5.816  13.891 -2.1978  2.2164 -0.1784
 4667TIP3    H235493   6.373   5.948  13.862  0.8812  0.9074  0.5576
 4668TIP3   OH235494   3.616   5.087  17.026 -0.0381  0.5443 -0.1512
 4668TIP3    H135495   3.614   5.152  17.095  0.1057  0.0453  0.3322
 4668TIP3    H235496   3.532   5.096  16.981 -0.7731 -0.1268  1.0287
 4669TIP3   OH235497   1.404   1.671   0.706 -0.9797  0.4117 -0.0809
 4669TIP3    H135498   1.449   1.755   0.707  0.4066 -0.2452  2.5315
 4669TIP3    H235499   1.434   1.628   0.626  0.6092  1.2352  0.0431
 4670TIP3   OH235500   2.528   2.481   0.845 -0.2860  1.0142 -0.4206
 4670TIP3    H135501   2.601   2.502   0.787 -0.3152  2.2773 -0.0359
 4670TIP3    H235502   2.568   2.431   0.916 -0.4965 -1.9908 -2.2215
 4671TIP3   OH235503   3.183   1.174  15.973  0.2374  0.1208 -0.0475
 4671TIP3    H135504   3.109   1.194  15.916  0.6126  4.2497  0.6110
 4671TIP3    H235505   3.248   1.135  15.914 -0.7316  0.8645 -1.6859
 4672TIP3   OH235506   0.323   3.656   4.369 -0.3986 -0.1091  0.5203
 4672TIP3    H135507   0.368   3.657   4.285  0.8700 -1.6335  1.1343
 4672TIP3    H235508   0.276   3.740   4.372 -1.2260 -0.3783 -2.0655
 4673TIP3   OH235509   3.003   2.131   5.833  0.3841 -0.0167 -0.1136
 4673TIP3    H135510   2.932   2.067   5.834 -0.0997  0.5056 -0.0254
 4673TIP3    H235511   2.991   2.179   5.752  2.4125 -1.8247 -1.5922
 4674TIP3   OH235512   3.999   5.338  13.288 -0.7873 -0.3824  0.4278
 4674TIP3    H135513   3.980   5.349  13.195 -1.6436  0.6814  0.7183
 4674TIP3    H235514   4.059   5.263  13.291  1.5573  1.2847 -1.2405
 4675TIP3   OH235515   1.495   0.673  13.962  0.0142  0.3444 -0.3606
 4675TIP3    H135516   1.498   0.726  13.882 -1.0822  0.5263 -0.2914
 4675TIP3    H235517   1.530   0.729  14.030 -2.9591  1.7858  0.1292
 4676TIP3   OH235518   1.925   5.917   3.965  0.0649 -0.5495  0.7361
 4676TIP3    H135519   1.922   5.836   3.913  1.3168 -0.4177  0.4198
 4676TIP3    H235520   1.898   5.890   4.053 -0.6603 -1.0654  0.3674
 4677TIP3   OH235521   4.198   4.411  14.297  0.3213  0.0958  0.9658
 4677TIP3    H135522   4.219   4.319  14.280  0.3131  0.2165  0.3073
 4677TIP3    H235523   4.186   4.450  14.211  0.7439  0.8196  1.2255
 4678TIP3   OH235524   4.312   2.146  14.530 -0.2923 -0.0926 -0.7600
 4678TIP3    H135525   4.379   2.180  14.470  1.4946  0.3264  1.3372
 4678TIP3    H235526   4.290   2.221  14.585  0.3275 -1.1343  0.9829
 4679TIP3   OH235527   0.935   4.972  11.794 -0.0385 -0.4437 -0.5041
 4679TIP3    H135528   0.981   5.051  11.765 -0.7481  0.3534  0.4476
 4679TIP3    H235529   0.943   4.973  11.889 -0.1046 -1.5036 -0.4801
 4680TIP3   OH235530   0.392   0.591  13.853 -0.2169  0.5286  0.2721
 4680TIP3    H135531   0.406   0.582  13.947 -0.1719  0.4350  0.2563
 4680TIP3    H235532   0.328   0.523  13.832 -0.3691  0.6713  0.2673
 4681TIP3   OH235533   6.538   5.384   0.157 -0.8709  0.4438 -0.9827
 4681TIP3    H135534   6.576   5.436   0.228 -1.2193 -0.0704 -0.4059
 4681TIP3    H235535   6.574   5.296   0.170 -1.7105  0.1106 -0.8384
 4682TIP3   OH235536   1.341   6.584   0.860  0.1934  0.5140 -0.2073
 4682TIP3    H135537   1.408   6.625   0.805 -0.6299  0.9774 -0.8775
 4682TIP3    H235538   1.391   6.528   0.920  1.1796  0.8374 -0.7022
 4683TIP3   OH235539   0.868   4.491  15.358  0.3029 -0.6709  0.4470
 4683TIP3    H135540   0.830   4.404  15.366  1.9597 -1.6868 -1.7281
 4683TIP3    H235541   0.883   4.519  15.449 -1.0845 -2.2238  1.2156
 4684TIP3   OH235542   2.960   1.339  15.304  0.3351 -0.4673  0.6070
 4684TIP3    H135543   3.034   1.312  15.249  0.3605 -1.0797  0.9316
 4684TIP3    H235544   2.978   1.430  15.326  0.9526 -0.5883  0.6197
 4685TIP3   OH235545   5.103   3.845  17.020 -0.3599 -0.1590 -0.2090
 4685TIP3    H135546   5.118   3.921  16.963  0.6505 -0.5475 -0.4816
 4685TIP3    H235547   5.007   3.838  17.026 -0.6162  2.9362  2.2404
 4686TIP3   OH235548   5.975   6.404   0.660  0.2914  0.4816 -0.1875
 4686TIP3    H135549   5.989   6.319   0.701 -1.1818  0.7765  1.0195
 4686TIP3    H235550   5.946   6.461   0.732 -0.4101  1.5563 -1.2804
 4687TIP3   OH235551   5.761   0.605   3.335  0.3480 -0.1838 -0.5232
 4687TIP3    H135552   5.676   0.574   3.306 -0.1490  0.1663  0.5463
 4687TIP3    H235553   5.808   0.623   3.253 -0.4731 -0.6933 -1.1222
 4688TIP3   OH235554   1.784   4.025  13.695  0.3793 -0.0541 -0.1283
 4688TIP3    H135555   1.747   3.958  13.753  0.4292  0.2130  0.2162
 4688TIP3    H235556   1.709   4.077  13.668  0.6813  1.5686  1.9654
 4689TIP3   OH235557   1.415   0.889  12.850  0.1866 -0.1984  0.2896
 4689TIP3    H135558   1.492   0.836  12.869  2.9979  3.4772  0.2893
 4689TIP3    H235559   1.403   0.882  12.755  1.4664  0.2816  0.0774
 4690TIP3   OH235560   1.385   1.148  11.076 -0.1300 -0.0199 -0.5110
 4690TIP3    H135561   1.443   1.073  11.089 -0.9287 -0.5718  0.0059
 4690TIP3    H235562   1.444   1.223  11.067  0.6594 -0.3808  1.1774
 4691TIP3   OH235563   2.211   2.801  11.205  0.0530 -0.5586 -0.0659
 4691TIP3    H135564   2.250   2.878  11.162  0.7535  0.5690  2.4336
 4691TIP3    H235565   2.117   2.821  11.208 -0.1269 -1.0027 -1.6419
 4692TIP3   OH235566   0.536   1.193  10.963 -0.4618 -0.5340 -0.2229
 4692TIP3    H135567   0.572   1.225  10.880 -0.6807 -0.1592 -0.1763
 4692TIP3    H235568   0.608   1.145  11.004  0.0356  0.3322 -0.0629
 4693TIP3   OH235569   0.765   4.222   0.623  0.0032 -0.5299  0.3496
 4693TIP3    H135570   0.840   4.274   0.595  0.7492 -2.1247 -0.7121
 4693TIP3    H235571   0.803   4.153   0.678 -0.6650 -1.3792 -0.2395
 4694TIP3   OH235572   4.197   0.041  14.436  0.0145 -0.0147 -0.4086
 4694TIP3    H135573   4.221  -0.028  14.499  0.2375  0.7769  0.3885
 4694TIP3    H235574   4.204   0.122  14.486 -2.7950  0.4199 -0.5410
 4695TIP3   OH235575   4.026   3.149  16.572 -0.1437  0.0897  0.6878
 4695TIP3    H135576   3.987   3.062  16.566 -0.0412  0.0757  0.1267
 4695TIP3    H235577   4.084   3.145  16.647 -0.7582 -0.0742  1.1596
 4696TIP3   OH235578   0.896   5.716   0.994  0.0100  0.2042 -0.0888
 4696TIP3    H135579   0.815   5.682   1.033  0.7449 -2.6807 -0.7998
 4696TIP3    H235580   0.887   5.811   0.999 -2.2960 -0.0161  2.0979
 4697TIP3   OH235581   1.789   1.108   6.351  0.6642 -0.1308 -0.0779
 4697TIP3    H135582   1.737   1.031   6.374  0.7781 -0.1027  0.2845
 4697TIP3    H235583   1.845   1.079   6.280 -0.4651  0.0811 -1.0908
 4698TIP3   OH235584   2.876   5.822  13.522 -0.4028 -0.4590 -0.3896
 4698TIP3    H135585   2.881   5.885  13.593  1.0399 -1.7770  0.7629
 4698TIP3    H235586   2.955   5.837  13.471 -0.4139 -0.8391 -0.5237
 4699TIP3   OH235587   5.871   6.167   2.341  0.1957 -0.5273  0.6519
 4699TIP3    H135588   5.814   6.107   2.293 -0.4175  0.2453  0.3910
 4699TIP3    H235589   5.812   6.237   2.372  1.0925  0.6982 -0.2848
 4700TIP3   OH235590   5.294   3.246  16.559 -0.3713  0.1115  0.0609
 4700TIP3    H135591   5.359   3.178  16.541 -0.4678  0.2516 -0.8649
 4700TIP3    H235592   5.322   3.285  16.642 -0.2546 -0.9837  0.5529
 4701TIP3   OH235593   3.596   3.283  14.320 -0.0554  0.3953  0.1853
 4701TIP3    H135594   3.503   3.300  14.307 -0.4478 -0.6244  1.5660
 4701TIP3    H235595   3.637   3.369  14.309 -0.8176  0.4980 -2.8352
 4702TIP3   OH235596   3.733   3.002   4.032 -0.3277  0.4295 -0.5091
 4702TIP3    H135597   3.757   2.917   3.995  0.1438 -0.4060  1.5809
 4702TIP3    H235598   3.815   3.052   4.032 -0.3018  0.3865 -0.4563
 4703TIP3   OH235599   1.053   2.673  15.496 -0.1531  0.2989 -0.0086
 4703TIP3    H135600   1.041   2.755  15.543 -0.4736 -0.2863  0.9491
 4703TIP3    H235601   1.123   2.692  15.433 -0.0880  1.2487  0.3335
 4704TIP3   OH235602   6.378   6.010   3.559 -0.6766 -0.1182  0.3589
 4704TIP3    H135603   6.325   5.983   3.634  0.9627 -0.0968  1.5804
 4704TIP3    H235604   6.437   5.937   3.543 -0.9835 -0.1123 -0.9220
 4705TIP3   OH235605   4.729   4.355   1.053  0.4744 -0.3126  0.4939
 4705TIP3    H135606   4.752   4.315   1.137 -1.4184 -1.4358  0.5214
 4705TIP3    H235607   4.813   4.382   1.016  1.9600 -4.2452  0.5230
 4706TIP3   OH235608   4.178   4.842  11.239 -0.1871 -0.5664  0.0772
 4706TIP3    H135609   4.180   4.756  11.280  2.0414 -0.1737  0.9236
 4706TIP3    H235610   4.232   4.834  11.161 -1.2305 -0.2889 -0.7082
 4707TIP3   OH235611   0.491   3.304   0.659 -0.2556  0.4749  0.2457
 4707TIP3    H135612   0.420   3.253   0.697  0.7025 -0.8314  0.3272
 4707TIP3    H235613   0.473   3.394   0.687 -1.7006  0.1336  0.5047
 4708TIP3   OH235614   4.906   3.996   2.453  0.1727  0.3807  0.1218
 4708TIP3    H135615   4.981   4.050   2.426 -0.0090  0.7580  0.3599
 4708TIP3    H235616   4.917   3.986   2.548  1.3715 -1.7866 -0.1766
 4709TIP3   OH235617   2.289   1.429  15.073 -0.1864  0.0195  0.2402
 4709TIP3    H135618   2.372   1.477  15.066 -0.1637 -0.1935 -1.4228
 4709TIP3    H235619   2.241   1.453  14.994 -0.7623 -1.6125  0.0585
 4710TIP3   OH235620   5.352   6.486  10.916  0.0951 -0.5735 -0.2513
 4710TIP3    H135621   5.342   6.581  10.906 -1.7791 -0.7189 -0.1504
 4710TIP3    H235622   5.381   6.456  10.831 -1.0611 -0.0827 -0.8456
 4711TIP3   OH235623   2.613   2.504  14.215 -0.4479  0.0505 -0.8423
 4711TIP3    H135624   2.552   2.465  14.153 -0.3743  0.6114 -1.2771
 4711TIP3    H235625   2.631   2.591  14.180 -0.2557  0.3058 -0.1341
 4712TIP3   OH235626   3.121   4.605   0.095 -0.2889  0.5692  0.0366
 4712TIP3    H135627   3.154   4.580   0.181  0.5869  1.5800  0.0170
 4712TIP3    H235628   3.197   4.597   0.037 -0.9687 -0.5290 -0.7572
 4713TIP3   OH235629   5.789   5.759  11.017 -0.3222 -0.1934  0.4806
 4713TIP3    H135630   5.864   5.762  10.957  0.2117 -0.9445  1.0913
 4713TIP3    H235631   5.712   5.766  10.960  0.2038  1.7086 -0.0743
 4714TIP3   OH235632   1.048   4.353  14.622  0.5877 -0.2758  0.6562
 4714TIP3    H135633   0.980   4.312  14.569  0.9789  2.2892 -2.0868
 4714TIP3    H235634   0.999   4.399  14.691 -0.2629 -0.6052  0.2944
 4715TIP3   OH235635   6.638   5.516   5.503  0.1921  0.4617 -0.2274
 4715TIP3    H135636   6.731   5.531   5.484  0.1396  0.2203 -0.6826
 4715TIP3    H235637   6.632   5.423   5.522  0.3877  0.8399  1.8657
 4716TIP3   OH235638   2.254   1.959   4.819 -0.0728 -0.1058 -0.5144
 4716TIP3    H135639   2.177   1.976   4.765  0.9695  0.3944 -1.9062
 4716TIP3    H235640   2.265   1.864   4.817  0.2966 -0.0590 -1.7419
 4717TIP3   OH235641   4.823   1.160  16.968 -0.5279 -0.2581 -0.1607
 4717TIP3    H135642   4.847   1.241  16.923  1.4166  0.0826  1.3531
 4717TIP3    H235643   4.790   1.188  17.053 -1.1991 -1.0048 -0.1661
 4718TIP3   OH235644   2.622   0.292   2.869  0.4698  0.1845 -0.0777
 4718TIP3    H135645   2.711   0.325   2.856  0.2325  0.5098 -0.9364
 4718TIP3    H235646   2.624   0.203   2.835  1.3269 -1.0982  2.9863
 4719TIP3   OH235647   3.898   4.212  14.296 -0.2440  0.1702 -0.6961
 4719TIP3    H135648   3.926   4.137  14.243 -0.2463  0.8035 -1.6353
 4719TIP3    H235649   3.888   4.283  14.232 -1.3343  0.6703  0.0033
 4720TIP3   OH235650   5.704   1.292  16.819 -0.7892  0.3161 -0.4996
 4720TIP3    H135651   5.685   1.199  16.807 -0.8481  0.0171  1.6115
 4720TIP3    H235652   5.720   1.302  16.913  0.3705  2.2381 -0.8459
 4721TIP3   OH235653   6.115   1.061   5.227 -0.1027 -0.1144  0.1574
 4721TIP3    H135654   6.105   1.014   5.144 -1.6241  0.6963 -0.1551
 4721TIP3    H235655   6.028   1.096   5.245  0.0277 -0.7971  2.4404
 4722TIP3   OH235656   1.414   3.545  11.410  0.5448  0.3537 -0.2480
 4722TIP3    H135657   1.424   3.613  11.343  0.6195 -1.0235 -1.6825
 4722TIP3    H235658   1.322   3.548  11.434  0.2222 -0.0354 -1.4055
 4723TIP3   OH235659   4.041   4.313  16.408 -0.5076 -0.2372  0.5767
 4723TIP3    H135660   4.065   4.281  16.321 -1.0952 -1.7686  0.9380
 4723TIP3    H235661   3.950   4.341  16.399 -0.4523 -0.0531  0.6021
 4724TIP3   OH235662   0.015   3.154   1.653 -0.7667 -0.1775 -0.3597
 4724TIP3    H135663   0.039   3.111   1.736 -2.6378  0.4585  0.5706
 4724TIP3    H235664   0.098   3.167   1.608  0.2827 -0.8236  1.2850
 4725TIP3   OH235665   4.397   3.718  11.186 -0.5338  0.3584  0.1582
 4725TIP3    H135666   4.447   3.749  11.111 -0.3981  0.9934  0.4992
 4725TIP3    H235667   4.451   3.651  11.227 -0.4420  0.2813 -0.0916
 4726TIP3   OH235668   2.354   6.782  13.311 -0.4553  0.2730 -0.1850
 4726TIP3    H135669   2.368   6.752  13.221 -2.7509 -2.2785  0.1593
 4726TIP3    H235670   2.409   6.725  13.364  0.2804  1.2314  0.0915
 4727TIP3   OH235671   3.285   5.173   4.520  0.1571  0.1476  0.3232
 4727TIP3    H135672   3.357   5.144   4.577  0.2509  0.5585  0.4222
 4727TIP3    H235673   3.251   5.251   4.564  0.2388  0.4750 -0.1876
 4728TIP3   OH235674   2.945   1.679   1.777 -0.5356 -0.5339 -0.0750
 4728TIP3    H135675   3.005   1.726   1.720 -1.1769  1.0132  0.4697
 4728TIP3    H235676   2.935   1.593   1.736  0.2252 -0.0114 -1.4231
 4729TIP3   OH235677   4.047   6.383   6.110  0.1660  0.3752  0.3449
 4729TIP3    H135678   4.030   6.472   6.080  1.6601  0.7957  0.6373
 4729TIP3    H235679   4.117   6.393   6.175  2.7859 -1.2424 -1.9664
 4730TIP3   OH235680   5.114   6.218   0.787 -0.1397 -0.6502  0.0620
 4730TIP3    H135681   5.190   6.247   0.737 -1.1071 -0.8845 -1.6126
 4730TIP3    H235682   5.102   6.127   0.762 -0.7159 -0.7425  0.6398
 4731TIP3   OH235683   5.488   1.133  16.121 -0.5232  0.4069  0.1866
 4731TIP3    H135684   5.515   1.156  16.210  1.7946  0.3015 -0.4388
 4731TIP3    H235685   5.470   1.217  16.079 -1.0850  0.4873  0.5711
 4732TIP3   OH235686   5.690   5.648  12.151  0.3401  0.4375 -0.0843
 4732TIP3    H135687   5.685   5.553  12.145 -0.0269  0.3544  1.1784
 4732TIP3    H235688   5.772   5.665  12.198 -0.6448  0.5998  1.6870
 4733TIP3   OH235689   6.406   6.210   1.970  0.3697 -0.0729 -0.2022
 4733TIP3    H135690   6.343   6.160   2.023  0.8956  0.6712  1.1673
 4733TIP3    H235691   6.486   6.210   2.022  1.2755 -0.2987 -1.5473
 4734TIP3   OH235692   4.048   0.573  13.327 -0.0295 -0.2943  0.1433
 4734TIP3    H135693   3.977   0.538  13.274  1.3019 -1.7082 -0.7781
 4734TIP3    H235694   4.108   0.613  13.264  0.3199  0.3180  0.8449
 4735TIP3   OH235695   5.206   0.409   2.314 -0.2293 -0.2482 -0.2504
 4735TIP3    H135696   5.176   0.495   2.343  1.4361 -0.1049  1.1459
 4735TIP3    H235697   5.146   0.347   2.355 -0.2439  0.1529  0.3349
 4736TIP3   OH235698   5.923   4.482  13.932 -0.4311 -0.3599 -0.0754
 4736TIP3    H135699   6.009   4.450  13.958 -1.3029 -0.4830  2.9995
 4736TIP3    H235700   5.885   4.410  13.881  0.7132 -0.8692 -0.2377
 4737TIP3   OH235701   4.101   5.588  12.337 -0.0003 -0.3565 -0.0737
 4737TIP3    H135702   4.088   5.552  12.249  1.7637 -1.2413 -0.0189
 4737TIP3    H235703   4.056   5.528  12.395 -0.2966 -0.3412 -0.2842
 4738TIP3   OH235704   1.182   4.101  13.480  0.6682  0.7105 -0.0945
 4738TIP3    H135705   1.150   4.190  13.464  0.2991  0.6893  0.5205
 4738TIP3    H235706   1.136   4.072  13.558  0.8918  0.0249 -0.2086
 4739TIP3   OH235707   0.270   6.365  13.928  0.6150 -0.2690  0.2807
 4739TIP3    H135708   0.205   6.301  13.898  1.7690 -0.5789 -1.6614
 4739TIP3    H235709   0.235   6.396  14.012 -2.8973  0.8109 -1.3842
 4740TIP3   OH235710   6.412   5.751  11.914 -0.3056 -0.2076 -0.5992
 4740TIP3    H135711   6.332   5.716  11.873  0.0415  0.2809 -1.7454
 4740TIP3    H235712   6.380   5.811  11.982 -0.9816  1.2017 -2.0772
 4741TIP3   OH235713   6.521   6.567  13.511  0.3493 -0.1222  0.0870
 4741TIP3    H135714   6.487   6.628  13.445 -0.9053 -1.9617 -1.0613
 4741TIP3    H235715   6.586   6.514  13.465  0.0714 -0.8771  0.5402
 4742TIP3   OH235716   2.317   5.472  11.572  0.2355  0.1969 -0.0402
 4742TIP3    H135717   2.223   5.484  11.558  0.2843 -0.8545 -1.5541
 4742TIP3    H235718   2.323   5.393  11.626  0.2589 -0.5870 -1.1539
 4743TIP3   OH235719   4.433   3.434  16.932  0.1262  0.4856 -0.0897
 4743TIP3    H135720   4.443   3.414  17.025  1.4034  1.4888  0.0141
 4743TIP3    H235721   4.494   3.506  16.915 -0.0838  0.3393 -1.7080
 4744TIP3   OH235722   4.589   0.420   5.320  0.1613 -0.0699 -0.3588
 4744TIP3    H135723   4.554   0.434   5.408  0.8784  1.4258 -0.2790
 4744TIP3    H235724   4.574   0.503   5.275  0.6549 -0.5046 -1.3434
 4745TIP3   OH235725   0.219   1.607   2.448 -0.0188 -0.6159 -0.0788
 4745TIP3    H135726   0.183   1.518   2.441  1.1392 -1.0292 -0.9960
 4745TIP3    H235727   0.197   1.648   2.365 -1.6548  0.4189  0.8117
 4746TIP3   OH235728   6.030   6.072   5.701  0.4688 -0.1773  0.2800
 4746TIP3    H135729   6.073   5.988   5.685  1.4307  0.3378  0.0689
 4746TIP3    H235730   6.044   6.122   5.621  1.2318  0.7265  0.9549
 4747TIP3   OH235731   4.245   5.672  16.152  0.1236  0.2445  0.5763
 4747TIP3    H135732   4.253   5.613  16.227 -1.1333 -1.0996 -0.2999
 4747TIP3    H235733   4.248   5.760  16.190  1.9387 -0.3441  1.9239
 4748TIP3   OH235734   5.062   2.827   4.286  1.0609  0.6707  0.2120
 4748TIP3    H135735   5.151   2.806   4.257  1.5789  0.4620  1.8476
 4748TIP3    H235736   5.059   2.923   4.285  0.7253  0.6848 -1.3867
 4749TIP3   OH235737   1.617   3.552  15.054  0.2079  0.3921 -0.2486
 4749TIP3    H135738   1.614   3.613  15.128 -2.0520  1.7348 -1.3263
 4749TIP3    H235739   1.617   3.609  14.977 -1.0089 -0.9516 -1.2824
 4750TIP3   OH235740   6.359   2.100   0.112 -0.6099  0.1897 -0.6424
 4750TIP3    H135741   6.364   2.020   0.059  0.2423 -0.8532  0.9324
 4750TIP3    H235742   6.443   2.144   0.098 -0.3365 -0.1476 -0.0795
 4751TIP3   OH235743   2.898   3.467   1.469  1.1597  0.2096  0.1346
 4751TIP3    H135744   2.948   3.411   1.529  0.2887 -0.0644  0.6269
 4751TIP3    H235745   2.844   3.521   1.527 -0.0491 -0.3913 -0.3977
 4752TIP3   OH235746   3.144   4.911  10.967  0.2178  0.0650 -0.2248
 4752TIP3    H135747   3.162   4.830  10.919 -1.5403 -0.4575 -0.0835
 4752TIP3    H235748   3.109   4.882  11.052 -0.6153  0.9448 -0.2400
 4753TIP3   OH235749   5.234   6.834  14.729  0.9509 -0.3716 -0.2952
 4753TIP3    H135750   5.205   6.923  14.707  0.5345 -0.7755 -1.4753
 4753TIP3    H235751   5.170   6.804  14.793  0.4787 -0.1912 -0.6753
 4754TIP3   OH235752   6.668   3.316   4.519  0.8080  0.4441  0.0412
 4754TIP3    H135753   6.628   3.245   4.569 -0.4166  1.2293  0.2186
 4754TIP3    H235754   6.717   3.366   4.585 -1.6053  2.0522  0.7419
 4755TIP3   OH235755   3.354   5.568   5.306 -0.0479  0.2621 -0.2170
 4755TIP3    H135756   3.279   5.584   5.249  0.3610  0.7204 -0.6285
 4755TIP3    H235757   3.427   5.555   5.247  0.5066  1.3493  0.1972
 4756TIP3   OH235758   1.739   5.221   1.765 -0.8139  0.0441 -0.5869
 4756TIP3    H135759   1.785   5.300   1.795  0.3175 -0.9966  0.5404
 4756TIP3    H235760   1.753   5.219   1.671  1.1126  0.0264 -0.3441
 4757TIP3   OH235761   4.949   0.903  13.130 -0.0145  0.2351 -0.2177
 4757TIP3    H135762   4.959   0.835  13.197 -0.6817 -1.0909 -1.3945
 4757TIP3    H235763   5.007   0.875  13.059 -1.0101  0.3551 -1.1055
 4758TIP3   OH235764   1.328   0.778  13.400  0.4787 -0.3023  0.1108
 4758TIP3    H135765   1.419   0.803  13.418  0.3383 -0.3447  0.8890
 4758TIP3    H235766   1.294   0.749  13.484  0.0380 -1.2325 -0.3760
 4759TIP3   OH235767   4.824   5.395  15.837 -0.1976  0.0972 -0.0781
 4759TIP3    H135768   4.731   5.412  15.850 -0.1810 -0.0435  0.2385
 4759TIP3    H235769   4.866   5.435  15.913 -0.0287 -0.1153 -0.0603
 4760TIP3   OH235770   4.187   3.611   0.471  0.1727  0.2244 -0.0818
 4760TIP3    H135771   4.238   3.588   0.393  0.8469 -1.7915  0.8714
 4760TIP3    H235772   4.148   3.528   0.499 -0.6230  1.0433  1.3130
 4761TIP3   OH235773   5.547   4.379  13.996  0.2376  0.1527 -0.2817
 4761TIP3    H135774   5.540   4.395  13.902 -0.2970 -0.4575 -0.3528
 4761TIP3    H235775   5.472   4.323  14.016 -0.1682  1.0078  0.6731
 4762TIP3   OH235776   3.923   0.256   4.512  0.0231  0.4600  0.0306
 4762TIP3    H135777   3.860   0.212   4.456  0.5133  0.1627 -0.2990
 4762TIP3    H235778   3.910   0.217   4.599 -0.1420  0.3001 -0.0658
 4763TIP3   OH235779   5.074   4.341   2.945  0.0732  0.3212 -0.7184
 4763TIP3    H135780   5.169   4.344   2.934  0.0718  1.8612 -0.5887
 4763TIP3    H235781   5.055   4.251   2.972  1.9977  0.9230  3.3741
 4764TIP3   OH235782   5.477   3.280   2.112 -0.1673  0.4167  0.0812
 4764TIP3    H135783   5.432   3.200   2.141 -1.9515  0.7889 -1.5192
 4764TIP3    H235784   5.472   3.339   2.188 -0.3244 -0.3717  0.6978
 4765TIP3   OH235785   1.057   3.284  13.343  0.2329  0.3488 -0.0308
 4765TIP3    H135786   1.107   3.229  13.403 -0.1638  2.2740  2.2163
 4765TIP3    H235787   0.982   3.231  13.318  2.0079 -1.6557 -1.4418
 4766TIP3   OH235788   1.719   6.747   1.991  0.0873 -0.0473  0.1272
 4766TIP3    H135789   1.627   6.746   1.965  0.3201 -0.0355 -0.7172
 4766TIP3    H235790   1.743   6.840   1.990  0.1982 -0.0773  0.0357
 4767TIP3   OH235791   3.654   4.542  11.077 -1.1122  0.2969 -0.4791
 4767TIP3    H135792   3.593   4.614  11.095 -0.2857  0.7020  0.8541
 4767TIP3    H235793   3.702   4.570  10.999 -1.8859  0.4657 -0.9010
 4768TIP3   OH235794   3.951   4.287   0.146 -0.6589 -0.3022  1.0030
 4768TIP3    H135795   4.008   4.219   0.109 -0.3824  0.5407 -0.1693
 4768TIP3    H235796   3.871   4.282   0.093 -0.3423  0.7817  0.4067
 4769TIP3   OH235797   1.026   2.605   4.611 -0.5309 -0.1814 -0.0303
 4769TIP3    H135798   1.030   2.698   4.632 -2.2836  0.1950 -1.1661
 4769TIP3    H235799   1.008   2.562   4.694 -0.6746  0.5855  0.3398
 4770TIP3   OH235800   2.181   2.562   1.661 -0.5917 -0.4141  0.2660
 4770TIP3    H135801   2.217   2.637   1.614 -3.5721  2.7391  2.4502
 4770TIP3    H235802   2.093   2.551   1.626 -1.7095 -0.0525  2.7305
 4771TIP3   OH235803   3.590   2.483  15.114 -0.1862 -0.3358 -0.0361
 4771TIP3    H135804   3.604   2.390  15.095  0.4531  0.1444 -2.1181
 4771TIP3    H235805   3.496   2.490  15.133 -0.4451 -1.2492 -0.9096
 4772TIP3   OH235806   0.085   1.723   3.472  0.1304  0.0497  0.3573
 4772TIP3    H135807   0.145   1.755   3.404  0.5092 -0.3851  0.4827
 4772TIP3    H235808   0.104   1.630   3.478 -1.7626 -0.4863 -0.8506
 4773TIP3   OH235809   4.584   5.254   0.064 -0.5681 -0.3493 -0.2175
 4773TIP3    H135810   4.573   5.322  -0.002  1.3566  1.8466  1.5308
 4773TIP3    H235811   4.677   5.229   0.057 -0.7274 -1.2471  0.6285
 4774TIP3   OH235812   1.916   3.699  11.848 -0.5113  0.8087 -0.1202
 4774TIP3    H135813   1.831   3.675  11.885 -0.4485  2.8035  1.4987
 4774TIP3    H235814   1.900   3.708  11.754 -1.3229 -1.7691 -0.3020
 4775TIP3   OH235815   4.978   4.851  16.254 -0.0682  0.1623 -0.1941
 4775TIP3    H135816   5.038   4.913  16.212 -0.0064 -0.4606 -1.0530
 4775TIP3    H235817   5.035   4.794  16.305  0.7780 -3.2309 -4.3806
 4776TIP3   OH235818   2.765   2.906   6.479  0.1580  0.4115  0.2169
 4776TIP3    H135819   2.702   2.968   6.440 -1.5900 -1.2713  0.1908
 4776TIP3    H235820   2.809   2.956   6.547 -1.4007  1.6359  0.3991
 4777TIP3   OH235821   2.044   1.817  14.469  0.3052  0.3298 -0.1776
 4777TIP3    H135822   2.065   1.888  14.530 -0.2541  0.5134 -0.1945
 4777TIP3    H235823   2.122   1.809  14.414  0.8304  0.1334  0.5846
 4778TIP3   OH235824   4.641   3.096   3.318  0.7402 -0.4584  0.2172
 4778TIP3    H135825   4.563   3.046   3.295  0.6534  0.3799 -1.4554
 4778TIP3    H235826   4.686   3.042   3.383 -0.8524 -1.2859  0.6659
 4779TIP3   OH235827   2.827   4.272  16.206 -0.7775 -0.4439  0.4728
 4779TIP3    H135828   2.780   4.216  16.267 -2.0967  1.5382  1.3740
 4779TIP3    H235829   2.758   4.320  16.160  0.2997  0.9948  0.2937
 4780TIP3   OH235830   6.459   3.680   5.883  0.4593 -0.1406  0.3576
 4780TIP3    H135831   6.423   3.661   5.797  0.6615  0.0598  0.2282
 4780TIP3    H235832   6.387   3.722   5.931  0.6736  0.7312 -0.0710
 4781TIP3   OH235833   6.411   3.374   1.386  0.0261  0.3010 -0.4219
 4781TIP3    H135834   6.480   3.356   1.450 -0.7792  1.0559  0.6997
 4781TIP3    H235835   6.421   3.467   1.365 -2.9552  1.5817  2.7808
 4782TIP3   OH235836   3.927   1.260  11.076 -0.0633 -0.1657 -0.4774
 4782TIP3    H135837   3.921   1.187  11.015  1.9224 -0.0097 -0.9253
 4782TIP3    H235838   3.837   1.286  11.092 -0.8767 -2.9195 -0.0396
 4783TIP3   OH235839   5.820   4.322   2.122 -0.1230 -0.5766  0.3642
 4783TIP3    H135840   5.759   4.250   2.138 -0.0252 -0.6639  0.3525
 4783TIP3    H235841   5.809   4.344   2.030 -0.1059 -0.6205  0.3518
 4784TIP3   OH235842   3.883   5.499   4.852  0.0654  0.6146  0.3045
 4784TIP3    H135843   3.860   5.482   4.760 -0.2732  0.1244  0.4783
 4784TIP3    H235844   3.889   5.412   4.892 -1.8474  0.8741  1.2533
 4785TIP3   OH235845   0.349   3.374   6.455  1.1260 -0.3786  0.3013
 4785TIP3    H135846   0.331   3.288   6.493  1.1224  0.4700  2.3599
 4785TIP3    H235847   0.286   3.432   6.498  1.9971  0.8639 -0.0704
 4786TIP3   OH235848   3.884   3.120  15.265 -0.1716  0.4139 -0.1658
 4786TIP3    H135849   3.979   3.114  15.260 -0.1195  1.7083 -1.7290
 4786TIP3    H235850   3.853   3.093  15.178 -1.3062 -0.7697  0.5704
 4787TIP3   OH235851   5.734   3.881   2.169  0.3268 -0.1205  0.9908
 4787TIP3    H135852   5.650   3.882   2.215 -0.5618  1.5258 -0.5046
 4787TIP3    H235853   5.765   3.971   2.175  1.5877 -0.5302  0.8128
 4788TIP3   OH235854   5.242   5.876  13.239 -0.0501  0.1815 -0.3924
 4788TIP3    H135855   5.260   5.928  13.160 -0.1086  0.7558 -0.0359
 4788TIP3    H235856   5.294   5.919  13.307 -0.8330  0.3478  0.1120
 4789TIP3   OH235857   3.225   2.964   4.878  0.6272  0.2015  0.4668
 4789TIP3    H135858   3.269   2.937   4.797  1.5692  2.6838  0.0507
 4789TIP3    H235859   3.161   3.030   4.849  0.2023  0.3320  1.6522
 4790TIP3   OH235860   0.608   0.507  16.189 -0.2616  0.6433 -0.0474
 4790TIP3    H135861   0.555   0.567  16.241 -1.4441 -0.4528  0.0910
 4790TIP3    H235862   0.692   0.502  16.234 -1.5312 -0.9456  2.3657
 4791TIP3   OH235863   6.719   4.799   5.823  0.4087 -0.0560 -0.3568
 4791TIP3    H135864   6.707   4.710   5.791  1.5173 -0.2316 -0.3250
 4791TIP3    H235865   6.631   4.836   5.825  0.0066 -0.9451 -0.9602
 4792TIP3   OH235866   1.832   5.782  11.295  0.0111 -0.3737  0.2762
 4792TIP3    H135867   1.788   5.746  11.372 -1.9145  0.6973 -0.2507
 4792TIP3    H235868   1.853   5.705  11.242 -0.5516 -0.9880  0.9132
 4793TIP3   OH235869   2.486   4.714   3.294 -0.3142 -0.0688 -0.3801
 4793TIP3    H135870   2.463   4.656   3.221 -0.4013  1.5549 -1.7114
 4793TIP3    H235871   2.513   4.655   3.364  0.5298 -1.6816 -1.9786
 4794TIP3   OH235872   3.888   5.612   5.889  0.2260 -0.1681  0.4320
 4794TIP3    H135873   3.979   5.617   5.916  0.3493 -0.6036  0.1103
 4794TIP3    H235874   3.838   5.627   5.969  0.5901 -1.4181  0.9084
 4795TIP3   OH235875   6.159   3.313   1.491 -0.0698 -0.5770  0.2081
 4795TIP3    H135876   6.162   3.370   1.568 -1.4145 -0.4210  0.1554
 4795TIP3    H235877   6.247   3.320   1.453 -0.0153  0.9747  0.5470
 4796TIP3   OH235878   3.112   0.767   3.232 -0.8341  0.5077  0.2750
 4796TIP3    H135879   3.051   0.706   3.274 -1.2724  2.0350  1.9896
 4796TIP3    H235880   3.106   0.847   3.284  0.4560  1.7051 -1.3052
 4797TIP3   OH235881   2.286   2.629   0.629 -0.1269  0.3489  0.1800
 4797TIP3    H135882   2.322   2.541   0.623  1.1595  0.9016 -0.3899
 4797TIP3    H235883   2.192   2.615   0.643 -0.0282 -1.1011 -0.4324
 4798TIP3   OH235884   3.216   6.388  13.661  0.2898  0.3536 -0.5593
 4798TIP3    H135885   3.191   6.323  13.595  0.8582  0.0090 -0.4467
 4798TIP3    H235886   3.141   6.447  13.667 -1.5204 -1.9088  1.3777
 4799TIP3   OH235887   0.926   6.081   0.328  0.0872 -0.5226  0.0255
 4799TIP3    H135888   0.959   6.145   0.391  1.6088  0.8949 -2.0710
 4799TIP3    H235889   0.850   6.042   0.371  0.9666  0.4440  2.6452
 4800TIP3   OH235890   5.948   6.428  15.662  0.1306  0.5417  0.6594
 4800TIP3    H135891   5.930   6.354  15.605  0.6079 -0.4123  1.7127
 4800TIP3    H235892   5.864   6.474  15.667  0.0648  0.6182 -0.7376
 4801TIP3   OH235893   1.293   0.592   6.892 -0.7647  0.6591 -0.5177
 4801TIP3    H135894   1.365   0.560   6.837 -1.2578  0.0855 -0.8554
 4801TIP3    H235895   1.214   0.564   6.845 -1.2105  1.5388 -0.3068
 4802TIP3   OH235896   2.546   3.235   5.634  0.5285  0.2021 -0.0321
 4802TIP3    H135897   2.602   3.250   5.558  1.1656 -1.4480  0.0733
 4802TIP3    H235898   2.606   3.224   5.707 -0.0447  0.8095  0.5454
 4803TIP3   OH235899   1.485   3.682  15.273  0.0313 -0.5014 -0.5487
 4803TIP3    H135900   1.448   3.597  15.252 -0.3758 -0.6199  0.5792
 4803TIP3    H235901   1.431   3.715  15.344  0.9866  0.1194 -0.0839
 4804TIP3   OH235902   0.262   4.595  15.657  0.4550  0.0231  0.4554
 4804TIP3    H135903   0.288   4.557  15.573  3.4059  0.1324  1.2163
 4804TIP3    H235904   0.313   4.675  15.664 -1.6973  1.4251  1.2526
 4805TIP3   OH235905   1.696   5.941   2.426 -0.2868 -0.4039 -0.5368
 4805TIP3    H135906   1.633   5.973   2.490 -0.3781  0.3970 -1.0192
 4805TIP3    H235907   1.706   5.848   2.446 -0.1634 -0.1178  0.7619
 4806TIP3   OH235908   0.804   4.865  16.127  0.2041 -0.1726 -0.0349
 4806TIP3    H135909   0.863   4.853  16.202 -0.5910 -2.0347  0.3595
 4806TIP3    H235910   0.716   4.849  16.164 -0.4724  1.5145 -0.8239
 4807TIP3   OH235911   3.469   2.227   0.655  0.3881 -0.2257  0.4091
 4807TIP3    H135912   3.491   2.231   0.749 -0.1682  0.9873  0.5135
 4807TIP3    H235913   3.390   2.173   0.651  0.8624 -0.9427  0.5371
 4808TIP3   OH235914   6.585   3.814  14.452  0.3223 -0.5332 -0.9098
 4808TIP3    H135915   6.615   3.873  14.522 -1.5010  0.1182 -0.6109
 4808TIP3    H235916   6.664   3.771  14.421  1.1505 -1.3244  1.9854
 4809TIP3   OH235917   4.426   2.153  10.953  0.3642 -0.7162 -0.9375
 4809TIP3    H135918   4.500   2.202  10.989 -0.9773  0.0665  0.9617
 4809TIP3    H235919   4.395   2.206  10.879 -0.1456  0.5878  0.1702
 4810TIP3   OH235920   5.550   4.621  10.822  0.1945  0.0778 -0.2273
 4810TIP3    H135921   5.518   4.699  10.776 -0.3950  0.8910  1.4884
 4810TIP3    H235922   5.485   4.553  10.802  1.2988 -0.3937 -2.6708
 4811TIP3   OH235923   2.551   3.422   6.750  0.8593 -0.6952  0.1917
 4811TIP3    H135924   2.590   3.434   6.663  0.9850 -2.5220 -0.0412
 4811TIP3    H235925   2.489   3.350   6.738 -0.4603  0.2240  1.2317
 4812TIP3   OH235926   3.235   2.342   2.546  0.2470  0.1851 -0.0192
 4812TIP3    H135927   3.205   2.274   2.606  1.5655  0.9515  1.6226
 4812TIP3    H235928   3.203   2.316   2.460  0.3928 -2.2877  0.6166
 4813TIP3   OH235929   1.421   6.497  11.849  0.2270 -0.2019  0.0711
 4813TIP3    H135930   1.468   6.526  11.770 -0.7235 -0.2189 -0.5098
 4813TIP3    H235931   1.351   6.561  11.860 -0.1719 -0.6865  0.4010
 4814TIP3   OH235932   3.359   3.404  14.567  0.7553  0.9466  0.5269
 4814TIP3    H135933   3.373   3.316  14.602  1.4034  0.2437 -1.3404
 4814TIP3    H235934   3.328   3.389  14.477 -1.3238  2.6247  0.8747
 4815TIP3   OH235935   0.146   5.697   6.031 -0.0146 -0.2072  0.1483
 4815TIP3    H135936   0.190   5.753   5.968 -0.7980  0.0642 -0.1664
 4815TIP3    H235937   0.180   5.724   6.116 -0.8851  1.2208  0.0633
 4816TIP3   OH235938   6.544   5.607  10.934 -0.9076  0.1083  0.5735
 4816TIP3    H135939   6.530   5.701  10.920 -2.4828  0.0602  1.5474
 4816TIP3    H235940   6.531   5.595  11.028 -1.9275 -1.2547  0.2847
 4817TIP3   OH235941   1.353   0.130  10.542 -0.3689 -0.0256  0.7693
 4817TIP3    H135942   1.347   0.221  10.569  1.2999  0.0414  1.0169
 4817TIP3    H235943   1.438   0.101  10.574 -1.4273 -2.0999  1.9609
 4818TIP3   OH235944   5.215   5.815  14.054 -0.0476 -0.6458 -0.2321
 4818TIP3    H135945   5.142   5.807  13.993 -0.3192 -1.8262  0.2152
 4818TIP3    H235946   5.182   5.873  14.124  0.1739  0.4863 -1.0356
 4819TIP3   OH235947   1.049   5.958  11.306 -0.1394  0.1055  0.0115
 4819TIP3    H135948   1.076   5.877  11.263 -0.7230  0.5427 -1.2210
 4819TIP3    H235949   1.128   6.013  11.304 -0.4197  0.4908 -1.4291
 4820TIP3   OH235950   4.284   6.067  16.962  0.3899  0.5156  0.1970
 4820TIP3    H135951   4.215   6.005  16.939  1.5107 -0.2988 -1.1942
 4820TIP3    H235952   4.353   6.012  16.999  1.5317  0.8411 -1.3428
 4821TIP3   OH235953   1.043   2.462   2.329  0.1493 -0.0848  0.3402
 4821TIP3    H135954   0.962   2.412   2.342  0.4924 -0.4349  1.2205
 4821TIP3    H235955   1.094   2.409   2.268 -0.1398 -0.0364  0.0537
 4822TIP3   OH235956   4.097   5.052  15.685 -0.0660 -0.0568 -0.1075
 4822TIP3    H135957   4.164   5.106  15.727 -0.8905  0.3702  0.7203
 4822TIP3    H235958   4.078   5.096  15.603  0.5475 -0.0896 -0.2691
 4823TIP3   OH235959   5.246   6.216  14.711  0.5208 -0.0289 -0.3188
 4823TIP3    H135960   5.247   6.243  14.802  0.0602 -1.6600  0.2176
 4823TIP3    H235961   5.318   6.153  14.704 -0.6840 -1.4518 -0.5251
 4824TIP3   OH235962   3.367   5.710  15.284 -0.0495  0.1012 -0.1868
 4824TIP3    H135963   3.287   5.682  15.238  0.8040 -0.0353 -1.6258
 4824TIP3    H235964   3.407   5.773  15.225  0.8182  0.3055  0.6145
 4825TIP3   OH235965   2.679   3.910   2.296  0.4071  0.0817 -0.1783
 4825TIP3    H135966   2.633   3.891   2.214  0.7590  1.2561 -0.6676
 4825TIP3    H235967   2.622   3.876   2.364 -0.5228  0.2570 -0.8485
 4826TIP3   OH235968   0.708   0.743  15.101  0.4862 -0.4932 -0.8386
 4826TIP3    H135969   0.784   0.781  15.057  0.9453 -2.1656 -1.5785
 4826TIP3    H235970   0.732   0.652  15.117 -1.4030 -1.1154 -1.2493
 4827TIP3   OH235971   4.314   3.654   0.222  0.8230 -0.3754 -0.2338
 4827TIP3    H135972   4.382   3.709   0.183 -1.1091  2.9016  0.7036
 4827TIP3    H235973   4.248   3.644   0.152  0.2405  0.2295  0.2194
 4828TIP3   OH235974   0.789   4.506  11.680 -0.3098  0.5400  0.1108
 4828TIP3    H135975   0.793   4.600  11.667 -2.9576  0.4779 -2.1229
 4828TIP3    H235976   0.857   4.471  11.622 -0.3540  1.0329 -0.2473
 4829TIP3   OH235977   4.433   0.484   1.638 -0.0479 -0.3661  0.0714
 4829TIP3    H135978   4.464   0.461   1.551  0.8022  0.7279  0.0582
 4829TIP3    H235979   4.512   0.491   1.691 -0.4955 -0.3082  0.7448
 4830TIP3   OH235980   5.113   2.299  16.889  0.4679 -0.1812  0.0175
 4830TIP3    H135981   5.169   2.345  16.827  0.0192  1.0859  0.5223
 4830TIP3    H235982   5.063   2.237  16.835 -0.7982  1.7235 -1.1270
 4831TIP3   OH235983   0.776   6.406  15.394  0.3859 -0.0388 -0.4021
 4831TIP3    H135984   0.684   6.400  15.367  0.7664 -0.8805 -1.5832
 4831TIP3    H235985   0.792   6.499  15.405 -0.6870  0.1001  0.1386
 4832TIP3   OH235986   2.209   4.209  16.261 -0.2157 -0.0671  0.7104
 4832TIP3    H135987   2.192   4.280  16.199  0.0988  0.1885  0.9175
 4832TIP3    H235988   2.302   4.190  16.251 -0.8914 -2.9094 -1.9749
 4833TIP3   OH235989   1.186   5.618  12.082  0.7251 -0.1234  0.5467
 4833TIP3    H135990   1.111   5.677  12.074  0.9657  0.1882  0.5867
 4833TIP3    H235991   1.187   5.593  12.174  0.6258 -0.1856  0.5303
 4834TIP3   OH235992   2.243   2.761  15.712 -0.5722 -0.5150 -0.2804
 4834TIP3    H135993   2.316   2.730  15.766 -1.1434  1.8983  2.0944
 4834TIP3    H235994   2.281   2.831  15.658 -1.0384  0.6440  0.8519
 4835TIP3   OH235995   4.251   5.078  15.146 -0.2266  0.2967 -0.3291
 4835TIP3    H135996   4.209   5.123  15.220 -0.4218  2.0329 -1.4202
 4835TIP3    H235997   4.289   5.149  15.094 -0.7842 -0.7824 -2.3149
 4836TIP3   OH235998   2.195   6.530   0.620  0.7162 -0.0882 -0.8384
 4836TIP3    H135999   2.190   6.445   0.663  0.6820  0.4770  0.3138
 4836TIP3    H236000   2.225   6.511   0.531  0.4296 -1.3235 -0.6820
 4837TIP3   OH236001   6.456   1.969  11.955  0.1721 -0.2387  0.0915
 4837TIP3    H136002   6.414   2.038  12.007  2.0870 -0.1911  1.6841
 4837TIP3    H236003   6.498   2.016  11.884  0.7524  0.1570  0.6844
 4838TIP3   OH236004   3.804   6.312   4.909  0.0513  0.3241 -0.0460
 4838TIP3    H136005   3.867   6.323   4.981  2.0824 -0.5376 -1.6114
 4838TIP3    H236006   3.825   6.382   4.848 -2.3646  1.7100  0.5907
 4839TIP3   OH236007   3.014   3.135   3.995 -0.6473  0.1971 -0.4725
 4839TIP3    H136008   2.933   3.152   3.947 -0.6519  1.4084 -0.0599
 4839TIP3    H236009   3.036   3.218   4.037  1.3460  0.1809 -1.3692
 4840TIP3   OH236010   4.181   2.967  16.301  1.0341  0.7085 -0.1864
 4840TIP3    H136011   4.234   3.043  16.324  0.4001  0.4595  2.3534
 4840TIP3    H236012   4.182   2.912  16.380 -0.1101 -1.0003 -1.2918
 4841TIP3   OH236013   2.550   2.295  11.743 -0.2874 -0.2582 -0.2265
 4841TIP3    H136014   2.565   2.312  11.650  0.7875 -1.1013 -0.2293
 4841TIP3    H236015   2.512   2.207  11.745  0.3953 -0.5536  0.1629
 4842TIP3   OH236016   3.644   4.715   1.460  0.4360 -0.1564 -0.3071
 4842TIP3    H136017   3.691   4.785   1.506 -0.6168 -0.0818  0.6766
 4842TIP3    H236018   3.552   4.742   1.461  0.0745 -1.3377 -0.3158
 4843TIP3   OH236019   1.000   3.053   5.432  0.1737 -0.2873  0.5146
 4843TIP3    H136020   0.961   3.043   5.518 -1.0527 -0.6620 -0.0729
 4843TIP3    H236021   0.932   3.095   5.379  0.4438 -1.2034 -0.5992
 4844TIP3   OH236022   4.174   6.574  10.674 -0.4320 -0.0024  0.3873
 4844TIP3    H136023   4.156   6.560  10.582 -1.7122  0.1576  0.5916
 4844TIP3    H236024   4.250   6.632  10.675  0.1232 -0.6926 -0.5412
 4845TIP3   OH236025   4.984   5.319   6.555 -0.2192  0.1761 -0.1781
 4845TIP3    H136026   4.964   5.371   6.632  0.7617 -1.3474  1.1553
 4845TIP3    H236027   5.076   5.336   6.537 -0.0553 -0.5729 -0.1076
 4846TIP3   OH236028   3.021   6.795   0.737 -0.2176  0.1492  0.2817
 4846TIP3    H136029   2.952   6.854   0.707 -0.8799 -0.6827  0.1251
 4846TIP3    H236030   2.999   6.776   0.828 -0.4786 -0.5141  0.0817
 4847TIP3   OH236031   2.565   1.040  15.705  0.6754  0.2979 -0.6476
 4847TIP3    H136032   2.640   0.981  15.695  0.5105  0.2592 -1.7213
 4847TIP3    H236033   2.504   0.990  15.760  1.1492  0.0636 -0.3193
 4848TIP3   OH236034   3.414   2.583   2.057 -0.0962  0.6245 -0.7601
 4848TIP3    H136035   3.353   2.623   2.119  0.2515  0.0716 -0.0518
 4848TIP3    H236036   3.496   2.575   2.106 -0.1285 -0.8604 -0.9023
 4849TIP3   OH236037   1.688   0.209  12.005  0.3090 -0.5736  0.9872
 4849TIP3    H136038   1.734   0.143  11.954  1.3937  0.9698 -0.0920
 4849TIP3    H236039   1.657   0.273  11.941 -0.0743  0.3590  2.0609
 4850TIP3   OH236040   1.067   2.402  12.220  0.5696  0.0565  0.3422
 4850TIP3    H136041   1.006   2.461  12.175 -1.3117 -2.0691 -0.0806
 4850TIP3    H236042   1.022   2.379  12.302  0.9057 -1.3543  0.1504
 4851TIP3   OH236043   0.261   6.308   1.487  0.2428  0.3830 -0.6525
 4851TIP3    H136044   0.330   6.365   1.520 -1.1114  1.7386 -0.0432
 4851TIP3    H236045   0.208   6.364   1.431 -0.7336 -0.4522 -0.5994
 4852TIP3   OH236046   3.905   0.455   1.241  0.3246 -0.8131  0.3897
 4852TIP3    H136047   3.840   0.525   1.249  1.9284  0.7778  0.3144
 4852TIP3    H236048   3.972   0.478   1.305  2.2574 -0.6778 -1.5669
 4853TIP3   OH236049   0.409   6.524  14.323 -0.4097 -0.2038 -0.6717
 4853TIP3    H136050   0.488   6.488  14.363 -0.0486  2.3349  1.2431
 4853TIP3    H236051   0.438   6.560  14.240  0.8408  1.7684  0.5339
 4854TIP3   OH236052   0.965   3.259  15.575 -0.0839 -0.8927 -0.1319
 4854TIP3    H136053   0.984   3.198  15.647 -0.0412 -2.3229 -1.3069
 4854TIP3    H236054   0.875   3.238  15.550 -0.3478  0.0968 -0.0423
 4855TIP3   OH236055   1.343   6.244  16.197  0.4083 -0.0321  0.0423
 4855TIP3    H136056   1.409   6.260  16.264 -0.0863  1.6271  0.1949
 4855TIP3    H236057   1.375   6.290  16.119  1.4231 -2.6788 -1.2206
 4856TIP3   OH236058   2.046   1.358  13.898 -0.0764  0.0055 -0.1326
 4856TIP3    H136059   2.072   1.283  13.845  1.2553  0.7180 -0.5373
 4856TIP3    H236060   2.040   1.323  13.987 -4.5998 -1.7614 -0.8873
 4857TIP3   OH236061   0.673   4.532  15.688 -0.1924  0.1721  0.0082
 4857TIP3    H136062   0.661   4.624  15.709 -0.2716  0.1670 -0.0134
 4857TIP3    H236063   0.765   4.524  15.663  0.0189  0.0844  0.8101
 4858TIP3   OH236064   5.911   0.927  11.182  0.5908 -0.5411 -0.1446
 4858TIP3    H136065   5.909   0.849  11.126  1.6107 -1.1361  0.5965
 4858TIP3    H236066   5.866   0.900  11.262  0.2780 -0.1242 -0.1822
 4859TIP3   OH236067   0.541   4.522  13.936 -0.7957  0.2727 -0.1682
 4859TIP3    H136068   0.514   4.610  13.910  0.9970  1.4390  1.6397
 4859TIP3    H236069   0.636   4.521  13.927 -0.7513 -1.4507 -0.0021
 4860TIP3   OH236070   4.689   1.354  10.819 -0.5032  0.0677 -0.1363
 4860TIP3    H136071   4.748   1.428  10.833 -0.2792  0.4018 -2.4296
 4860TIP3    H236072   4.603   1.386  10.846 -0.5049  1.4054 -1.5627
 4861TIP3   OH236073   3.120   3.212   4.818 -0.0496  0.1489 -0.5757
 4861TIP3    H136074   3.142   3.222   4.726  1.9176  0.6439 -0.1147
 4861TIP3    H236075   3.121   3.301   4.853  0.4946 -0.1233  0.1439
 4862TIP3   OH236076   6.136   2.850  16.684 -0.2914  0.6489  0.2166
 4862TIP3    H136077   6.111   2.776  16.741 -0.0145  0.2028 -0.2312
 4862TIP3    H236078   6.054   2.877  16.643 -0.1981 -0.2719 -0.6121
 4863TIP3   OH236079   4.265   1.929   1.529 -0.6485 -0.5858  0.0426
 4863TIP3    H136080   4.170   1.932   1.537 -0.6431 -1.3641  0.5270
 4863TIP3    H236081   4.286   1.836   1.535  0.1036 -0.4681 -0.5742
 4864TIP3   OH236082   4.542   1.623  15.136 -0.6085 -0.8421  0.5302
 4864TIP3    H136083   4.482   1.652  15.204 -0.2703  0.0975  0.4413
 4864TIP3    H236084   4.497   1.643  15.054 -0.3483 -0.5162  0.4669
 4865TIP3   OH236085   2.135   4.591  11.562 -0.3743 -0.0236  0.4649
 4865TIP3    H136086   2.076   4.573  11.489 -0.7106 -1.8301  1.1290
 4865TIP3    H236087   2.221   4.558  11.532 -0.1250  0.8038  0.2478
 4866TIP3   OH236088   0.694   5.076   3.154 -0.0284  0.1267 -0.3045
 4866TIP3    H136089   0.674   4.982   3.158  1.5617 -0.2503 -0.4724
 4866TIP3    H236090   0.787   5.079   3.133  0.0240  1.7564  0.0720
 4867TIP3   OH236091   5.664   1.941  11.541 -0.3793 -0.1714  0.1637
 4867TIP3    H136092   5.692   1.890  11.465  0.9706  1.8040 -0.7451
 4867TIP3    H236093   5.620   2.017  11.505 -3.1911 -1.0253  1.5234
 4868TIP3   OH236094   5.326   2.542   2.171  1.0112  0.3330  1.2829
 4868TIP3    H136095   5.349   2.597   2.096  0.6464 -0.9503  0.1950
 4868TIP3    H236096   5.250   2.585   2.210 -0.1315 -0.0902 -0.3761
 4869TIP3   OH236097   2.158   0.147   5.772 -0.3402 -0.0893 -0.4325
 4869TIP3    H136098   2.239   0.199   5.776 -0.5027  0.0976  2.1135
 4869TIP3    H236099   2.092   0.202   5.813 -1.2986 -1.0392 -0.6519
 4870TIP3   OH236100   5.256   0.473  13.711 -0.6104 -0.2078  0.0365
 4870TIP3    H136101   5.182   0.526  13.738  0.0095  1.2186 -0.9431
 4870TIP3    H236102   5.333   0.520  13.744 -0.0067  0.0210 -1.6037
 4871TIP3   OH236103   3.324   1.261   2.987 -0.2134 -0.4287 -0.1812
 4871TIP3    H136104   3.248   1.281   3.041  1.2673  1.3361  1.3630
 4871TIP3    H236105   3.320   1.166   2.974 -1.0660 -0.8290  2.4050
 4872TIP3   OH236106   1.444   0.413  17.021 -0.3341 -0.0883  0.2215
 4872TIP3    H136107   1.511   0.348  16.999 -1.1379 -0.4033 -1.4988
 4872TIP3    H236108   1.438   0.411  17.116  1.7623 -0.3721  0.3967
 4873TIP3   OH236109   5.906   0.597  16.449 -0.3427 -0.0485 -0.6144
 4873TIP3    H136110   5.828   0.560  16.490 -1.5247  0.8654 -1.9804
 4873TIP3    H236111   5.978   0.570  16.507 -1.7406 -0.1698  1.1509
 4874TIP3   OH236112   3.413   5.478  16.654  0.3701 -0.1685  0.2254
 4874TIP3    H136113   3.431   5.569  16.677 -3.9020  1.4904 -1.9148
 4874TIP3    H236114   3.328   5.480  16.610 -0.1302 -5.2890  0.2776
 4875TIP3   OH236115   0.826   4.835   3.224  0.3714  0.7078  0.1619
 4875TIP3    H136116   0.843   4.746   3.193 -0.4378  0.6398 -0.0938
 4875TIP3    H236117   0.906   4.860   3.270 -0.0032 -0.7707  1.7009
 4876TIP3   OH236118   2.043   0.619   2.189 -0.0128 -0.1307 -0.2435
 4876TIP3    H136119   2.006   0.681   2.126 -0.5929 -1.3435 -1.1214
 4876TIP3    H236120   2.131   0.600   2.155  1.8825  3.2063  2.1499
 4877TIP3   OH236121   3.130   6.291  10.702  0.0964  0.2279 -0.0343
 4877TIP3    H136122   3.121   6.326  10.790  1.4988 -0.8502  0.5599
 4877TIP3    H236123   3.072   6.215  10.700 -0.5576  0.7207 -0.3260
 4878TIP3   OH236124   1.818   3.448  16.651 -0.0077  0.5121 -0.1312
 4878TIP3    H136125   1.856   3.532  16.677  0.2090  0.2543  0.3932
 4878TIP3    H236126   1.879   3.412  16.587  0.6718  0.0724  0.7510
 4879TIP3   OH236127   4.283   4.547   2.844 -0.0403 -0.3898  0.2607
 4879TIP3    H136128   4.265   4.606   2.771 -1.0237 -0.1833  0.6490
 4879TIP3    H236129   4.247   4.463   2.817 -1.9416  0.0899  1.1494
 4880TIP3   OH236130   3.983   3.178   4.101  0.2172 -0.1727 -0.4880
 4880TIP3    H136131   4.036   3.099   4.096  0.6182 -0.0537  1.2026
 4880TIP3    H236132   4.046   3.250   4.093  0.0906 -0.0258 -0.1706
 4881TIP3   OH236133   5.625   0.379   5.414 -0.4724 -0.1482  0.3510
 4881TIP3    H136134   5.559   0.446   5.395 -0.5053  0.2052  1.6120
 4881TIP3    H236135   5.634   0.381   5.509  0.2856 -1.2266  0.3187
 4882TIP3   OH236136   6.670   3.080   0.852  0.2882 -0.0242  0.3038
 4882TIP3    H136137   6.655   3.141   0.779 -1.2335  0.3004  0.8604
 4882TIP3    H236138   6.707   3.135   0.921 -0.5991  0.1788  0.6259
 4883TIP3   OH236139   4.693   5.906   5.625 -0.1927  0.1510  0.5371
 4883TIP3    H136140   4.598   5.906   5.623 -0.2257 -1.3941 -1.6458
 4883TIP3    H236141   4.718   5.997   5.640 -1.9783  0.5174  1.5071
 4884TIP3   OH236142   4.890   2.270   4.396  0.0124 -0.1610 -0.0392
 4884TIP3    H136143   4.874   2.225   4.479  1.8584  1.9319  1.5547
 4884TIP3    H236144   4.982   2.253   4.377 -0.0116  0.6179 -0.8761
 4885TIP3   OH236145   3.270   4.047   2.738  0.5209  0.0555  0.0259
 4885TIP3    H136146   3.235   4.054   2.649  2.2363  0.6234 -0.6300
 4885TIP3    H236147   3.321   3.966   2.737  1.3136  0.5460  0.2082
 4886TIP3   OH236148   2.348   2.431  11.006  0.1956 -0.1061  0.3819
 4886TIP3    H136149   2.430   2.434  11.054  1.4465  2.1919 -1.7127
 4886TIP3    H236150   2.367   2.376  10.929  0.3930  1.8176 -1.0115
 4887TIP3   OH236151   6.599   0.552   3.491 -0.3879  0.3580 -0.3218
 4887TIP3    H136152   6.545   0.476   3.514 -0.1778  0.3981  0.3547
 4887TIP3    H236153   6.635   0.531   3.405 -0.4854 -0.2316 -0.2249
 4888TIP3   OH236154   0.016   2.536  14.800 -0.3001  0.6728  0.3845
 4888TIP3    H136155   0.010   2.545  14.895  0.9045  0.2620  0.5310
 4888TIP3    H236156  -0.059   2.482  14.776  0.3790 -0.8251  1.3897
 4889TIP3   OH236157   3.549   3.238  12.003  0.2693 -0.3813  0.3520
 4889TIP3    H136158   3.523   3.149  11.980 -0.6126  0.0845 -0.5884
 4889TIP3    H236159   3.466   3.284  12.017  0.6551  0.5815 -0.3958
 4890TIP3   OH236160   3.571   3.450   3.282 -0.3083  0.2828 -0.2072
 4890TIP3    H136161   3.599   3.509   3.352 -0.8277  2.0228 -1.3960
 4890TIP3    H236162   3.484   3.420   3.311  0.5605 -1.1184  1.0893
 4891TIP3   OH236163   5.091   4.217   2.347  0.2470 -0.3452  0.8114
 4891TIP3    H136164   5.076   4.278   2.420 -2.0212 -0.2807  0.3456
 4891TIP3    H236165   5.159   4.260   2.295  0.0704  0.8549  1.5198
 4892TIP3   OH236166   2.516   4.368   5.853  0.2155 -0.2886 -0.1315
 4892TIP3    H136167   2.474   4.329   5.930  1.1072 -1.9495 -0.4270
 4892TIP3    H236168   2.474   4.323   5.779  0.9300 -0.3339 -0.5150
 4893TIP3   OH236169   5.398   2.815  11.711 -0.6225  0.1419  0.0336
 4893TIP3    H136170   5.326   2.817  11.774 -0.2978  1.1664  0.4009
 4893TIP3    H236171   5.476   2.832  11.764 -0.6012  3.9733 -0.9423
 4894TIP3   OH236172   2.751   5.012  11.175 -0.2752  0.0056 -0.9889
 4894TIP3    H136173   2.791   4.936  11.216 -2.9732 -1.7203 -1.2804
 4894TIP3    H236174   2.671   5.027  11.225 -0.8790  1.2958 -2.2724
 4895TIP3   OH236175   1.760   4.643   1.204  0.0667  0.3383  0.3177
 4895TIP3    H136176   1.840   4.696   1.201  0.4436 -0.0344  2.1403
 4895TIP3    H236177   1.791   4.553   1.208 -0.5573 -0.0112 -1.9343
 4896TIP3   OH236178   5.428   3.266   1.166 -0.1579  0.1318  0.0958
 4896TIP3    H136179   5.465   3.350   1.195 -2.0869  2.7186 -4.0235
 4896TIP3    H236180   5.504   3.219   1.131  0.3998  2.4816 -2.1822
 4897TIP3   OH236181   5.988   4.794   5.397 -0.4006 -0.2160 -0.0189
 4897TIP3    H136182   6.018   4.720   5.450 -1.4305  0.3364  1.4309
 4897TIP3    H236183   5.899   4.812   5.430 -0.9455  0.4067 -1.7082
 4898TIP3   OH236184   1.011   1.317  12.710  0.0728 -0.6233  0.7304
 4898TIP3    H136185   0.950   1.300  12.638  0.4420 -0.3801  0.3543
 4898TIP3    H236186   1.047   1.231  12.732  0.3598 -0.6238  0.2615
 4899TIP3   OH236187   0.830   6.210   3.960 -0.1394  0.0694 -0.2489
 4899TIP3    H136188   0.906   6.257   3.995  0.0533  0.3322 -1.0093
 4899TIP3    H236189   0.797   6.265   3.889 -2.5783  1.2211  1.6409
 4900TIP3   OH236190   0.313   2.687  14.032  0.3645 -0.3503  0.3724
 4900TIP3    H136191   0.310   2.712  13.939  0.3003 -1.3186  0.0995
 4900TIP3    H236192   0.395   2.638  14.041 -1.2057 -3.2920 -0.0202
 4901TIP3   OH236193   5.310   2.104   4.190 -0.2334  0.4910  0.5026
 4901TIP3    H136194   5.373   2.159   4.236  0.5070  0.8629 -0.8665
 4901TIP3    H236195   5.240   2.088   4.253  0.2047  1.8525  1.3793
 4902TIP3   OH236196   1.614   2.473   0.243  0.2172 -0.5016 -0.6320
 4902TIP3    H136197   1.662   2.516   0.173 -0.0922  2.2490  0.7013
 4902TIP3    H236198   1.681   2.443   0.304  0.3966 -0.8906 -1.0174
 4903TIP3   OH236199   4.521   2.860   0.560 -0.1719  0.4312 -0.2311
 4903TIP3    H136200   4.431   2.880   0.533 -0.9371 -1.7180  0.5617
 4903TIP3    H236201   4.560   2.817   0.483 -0.6611 -0.9366  0.2696
 4904TIP3   OH236202   4.144   1.056  15.130  0.0806  0.4292  0.0913
 4904TIP3    H136203   4.118   1.063  15.038 -0.4023  2.9058  0.3309
 4904TIP3    H236204   4.240   1.056  15.127  0.0695  0.1298 -0.4262
 4905TIP3   OH236205   3.089   2.583   2.920 -0.0150 -0.1997 -0.1355
 4905TIP3    H136206   3.003   2.540   2.919  0.0040 -0.2300 -0.9476
 4905TIP3    H236207   3.101   2.614   2.830  1.5752 -1.6554 -0.4561
 4906TIP3   OH236208   4.590   1.105   3.857  0.3843 -0.0831  0.0042
 4906TIP3    H136209   4.579   1.179   3.918  1.8228 -0.3271  0.6021
 4906TIP3    H236210   4.545   1.133   3.778  0.0752  1.0385  0.5432
 4907TIP3   OH236211   5.453   0.275   1.767  0.1437 -0.3333 -0.2187
 4907TIP3    H136212   5.508   0.230   1.831  2.1261  1.0252 -0.8714
 4907TIP3    H236213   5.408   0.343   1.817 -1.1544 -1.5639  0.3524
 4908TIP3   OH236214   5.016   2.684  15.027 -0.1801 -0.2210  0.2606
 4908TIP3    H136215   4.955   2.627  15.075  1.2015 -1.1603  0.9810
 4908TIP3    H236216   5.029   2.758  15.086  1.0864 -1.1103  1.1598
 4909TIP3   OH236217   4.868   5.478   4.240  0.0600 -0.0209 -0.3651
 4909TIP3    H136218   4.955   5.483   4.279  0.7374  2.1069 -1.9129
 4909TIP3    H236219   4.881   5.427   4.160  0.0949  0.9055 -0.9721
 4910TIP3   OH236220   5.119   3.283   0.900 -0.0452  0.3996  0.8804
 4910TIP3    H136221   5.076   3.199   0.914 -1.5117  0.9391 -0.1531
 4910TIP3    H236222   5.185   3.288   0.969  2.1522 -2.9005 -0.7187
 4911TIP3   OH236223   1.916   2.356  12.415  0.4732  0.1618 -0.5776
 4911TIP3    H136224   1.966   2.361  12.496  0.7460  0.1294 -0.7437
 4911TIP3    H236225   1.982   2.350  12.346  0.2398 -0.0263 -0.7875
 4912TIP3   OH236226   5.448   4.997   2.447 -0.0601  0.1152 -0.0763
 4912TIP3    H136227   5.520   5.059   2.446  1.4039 -1.4695 -2.0618
 4912TIP3    H236228   5.478   4.924   2.392 -2.1967 -1.7523  1.0414
 4913TIP3   OH236229   1.023   1.226  11.143  0.1395  0.2850 -0.0143
 4913TIP3    H136230   1.050   1.317  11.145 -1.7588  0.8961  2.1665
 4913TIP3    H236231   0.940   1.226  11.095  0.2047 -0.3265 -0.1428
 4914TIP3   OH236232   2.272   2.413   4.012  0.1459  0.0657  0.2712
 4914TIP3    H136233   2.208   2.483   4.026  0.4965  0.1128  1.8880
 4914TIP3    H236234   2.356   2.458   4.009  0.1620 -0.0206 -1.6125
 4915TIP3   OH236235   1.565   4.593  14.643  0.9391 -0.3972  0.3370
 4915TIP3    H136236   1.547   4.684  14.618  1.5647 -0.1714  0.6860
 4915TIP3    H236237   1.481   4.549  14.633  0.3211  0.4950  1.3461
 4916TIP3   OH236238   4.339   4.645   2.513  0.4522 -0.4532  0.3176
 4916TIP3    H136239   4.254   4.616   2.481  0.4285  0.2449 -0.2778
 4916TIP3    H236240   4.327   4.738   2.532  0.6636 -0.6893  1.7072
 4917TIP3   OH236241   3.738   1.073   3.935 -0.0767 -0.0940 -0.1132
 4917TIP3    H136242   3.644   1.078   3.954  0.1139 -0.7668  1.1050
 4917TIP3    H236243   3.781   1.082   4.020  1.0271  1.1198 -0.7531
 4918TIP3   OH236244   2.438   4.201  13.231 -0.4495 -0.0098 -0.1036
 4918TIP3    H136245   2.372   4.137  13.258 -1.4841  1.6733  1.5893
 4918TIP3    H236246   2.469   4.169  13.146  0.0597 -3.4476  1.2236
 4919TIP3   OH236247   6.128   5.346   0.125 -0.3414  0.3128  0.1768
 4919TIP3    H136248   6.051   5.402   0.125 -0.7842 -0.2395  1.4682
 4919TIP3    H236249   6.140   5.321   0.033 -1.0949  1.2041 -0.1797
 4920TIP3   OH236250   6.259   5.031   2.518  0.2550  0.5205 -0.6462
 4920TIP3    H136251   6.172   5.070   2.506 -0.5508 -1.0676 -0.1199
 4920TIP3    H236252   6.319   5.102   2.493 -1.1724  1.0246 -3.0792
 4921TIP3   OH236253   0.301   1.970  11.421 -0.0083 -0.3087  0.0300
 4921TIP3    H136254   0.383   2.014  11.444  0.7411 -1.1263 -0.9642
 4921TIP3    H236255   0.321   1.925  11.338 -1.8028  0.3965 -0.8293
 4922TIP3   OH236256   5.097   0.910   3.246  0.3921  0.2474  0.6985
 4922TIP3    H136257   5.035   0.977   3.218  0.7735  1.7686  3.2123
 4922TIP3    H236258   5.050   0.860   3.314  0.7933 -0.7768  0.2475
 4923TIP3   OH236259   6.205   2.080  11.327 -0.9359 -0.0832 -0.0650
 4923TIP3    H136260   6.112   2.098  11.311 -0.8888 -0.2626 -0.5584
 4923TIP3    H236261   6.249   2.109  11.248 -0.6084 -0.3271  0.0260
 4924TIP3   OH236262   5.288   5.053   3.243 -0.1575 -0.4080  0.3836
 4924TIP3    H136263   5.365   5.005   3.213 -0.3871 -0.6901  0.2385
 4924TIP3    H236264   5.214   5.010   3.199 -0.2267  1.2588 -1.2452
 4925TIP3   OH236265   3.893   5.987  16.958  0.7478 -0.6541 -0.2130
 4925TIP3    H136266   3.953   5.947  17.021  0.2504  0.0188  0.7105
 4925TIP3    H236267   3.942   5.988  16.876  2.7926  1.6191  0.9094
 4926TIP3   OH236268   1.812   2.760  12.867  0.0635 -0.0030 -0.3284
 4926TIP3    H136269   1.782   2.721  12.949 -0.6504  0.8325 -0.1817
 4926TIP3    H236270   1.762   2.841  12.858  0.2601  0.0161 -1.5037
 4927TIP3   OH236271   1.352   4.421   6.014 -0.5844  0.6224 -0.0821
 4927TIP3    H136272   1.313   4.354   6.071 -0.1088  0.0177 -0.4660
 4927TIP3    H236273   1.327   4.396   5.925  0.5118  0.3341 -0.3222
 4928TIP3   OH236274   5.665   0.775  11.268  0.1676  0.1056 -0.1086
 4928TIP3    H136275   5.593   0.726  11.309  1.5711 -0.9918  1.1738
 4928TIP3    H236276   5.646   0.771  11.174 -0.9660 -0.9594  0.1339
 4929TIP3   OH236277   5.777   1.276   1.986  0.4691  0.7471 -0.1021
 4929TIP3    H136278   5.719   1.325   2.045 -1.8813 -1.8653 -0.0281
 4929TIP3    H236279   5.726   1.265   1.906  0.9874 -1.2312 -0.2120
 4930TIP3   OH236280   3.698   4.644  15.000  0.1093  0.2614  0.0894
 4930TIP3    H136281   3.661   4.676  15.083  0.7894  1.2366  0.0348
 4930TIP3    H236282   3.622   4.613  14.951 -0.3441 -0.0281  0.9410
 4931TIP3   OH236283   3.626   2.821  17.017 -0.2078  0.0831 -0.5424
 4931TIP3    H136284   3.700   2.761  17.023 -1.5114 -1.5455  0.1047
 4931TIP3    H236285   3.622   2.846  16.925 -0.4295 -1.9417 -1.1281
 4932TIP3   OH236286   6.651   5.617  12.400 -0.1092 -0.0149  0.1511
 4932TIP3    H136287   6.686   5.632  12.488 -0.3774 -2.1311  0.6648
 4932TIP3    H236288   6.728   5.621  12.343  0.1347  0.8749  0.5216
 4933TIP3   OH236289   3.486   5.021   0.853 -0.2530 -1.0453 -0.3428
 4933TIP3    H136290   3.520   4.935   0.880 -0.2636 -0.8766  0.2151
 4933TIP3    H236291   3.549   5.084   0.889 -1.4268 -0.6923  1.1893
 4934TIP3   OH236292   2.912   6.199   1.443  0.0249 -0.3503  0.5965
 4934TIP3    H136293   2.955   6.183   1.359 -0.4965 -0.3294  0.3222
 4934TIP3    H236294   2.910   6.294   1.451 -0.5679 -0.3342  0.2930
 4935TIP3   OH236295   0.855   0.523  16.301  0.4225 -0.0729 -0.2018
 4935TIP3    H136296   0.923   0.528  16.368  0.0123 -0.6184  0.2623
 4935TIP3    H236297   0.853   0.611  16.262  1.4653 -0.0843 -0.3061
 4936TIP3   OH236298   6.430   0.114   1.000 -0.5099  0.0162  0.0382
 4936TIP3    H136299   6.381   0.193   1.024 -1.0067 -0.4365  0.5385
 4936TIP3    H236300   6.363   0.047   0.987 -0.1166 -0.2351 -0.7691
 4937TIP3   OH236301   4.409   3.291  15.649  0.2605  0.5606 -0.0082
 4937TIP3    H136302   4.412   3.277  15.744  0.4446 -0.1248 -0.1072
 4937TIP3    H236303   4.392   3.204  15.613  1.4410  0.5802 -0.6719
 4938TIP3   OH236304   3.129   6.630   0.517  0.0198 -0.1439  0.3496
 4938TIP3    H136305   3.128   6.698   0.450  0.0723 -0.1287  0.3647
 4938TIP3    H236306   3.092   6.673   0.594  0.2967 -0.0584  0.4334
 4939TIP3   OH236307   3.104   4.394   6.075  0.3178  0.7942 -0.9032
 4939TIP3    H136308   3.109   4.489   6.086  1.0372  0.6893 -0.2857
 4939TIP3    H236309   3.020   4.370   6.115  1.4237  0.8244  1.6320
 4940TIP3   OH236310   0.888   3.299  10.581 -0.4645 -0.0086  0.4331
 4940TIP3    H136311   0.840   3.250  10.648  2.6702 -1.1447  2.0643
 4940TIP3    H236312   0.959   3.240  10.555  0.3871  1.7245 -1.4394
 4941TIP3   OH236313   3.360   6.116  14.560 -0.6686 -0.4153 -0.2462
 4941TIP3    H136314   3.393   6.076  14.640 -2.4799  2.1957  1.9842
 4941TIP3    H236315   3.436   6.157  14.520  0.4416 -2.5499 -0.4692
 4942TIP3   OH236316   3.975   3.528  15.273  0.2555 -0.1894  0.3796
 4942TIP3    H136317   3.979   3.537  15.178  1.3104 -0.8362  0.3426
 4942TIP3    H236318   4.063   3.552  15.303 -0.8508  2.9762  1.5010
 4943TIP3   OH236319   1.660   1.015  14.813 -0.2016 -0.2261  0.0507
 4943TIP3    H136320   1.616   1.047  14.734  1.6322  0.0039 -0.9343
 4943TIP3    H236321   1.750   1.048  14.805  0.5502 -1.8617  1.2715
 4944TIP3   OH236322   3.347   6.156  13.237  0.7812  0.3860 -0.3797
 4944TIP3    H136323   3.404   6.208  13.293  2.9870 -0.6432 -1.5395
 4944TIP3    H236324   3.319   6.216  13.168  0.2902  0.9345  0.2784
 4945TIP3   OH236325   5.730   4.488   4.978 -0.5515 -0.0764 -0.3005
 4945TIP3    H136326   5.814   4.516   5.015 -0.2800  0.0007 -0.9684
 4945TIP3    H236327   5.689   4.569   4.946 -1.2392  0.0026  0.7175
 4946TIP3   OH236328   3.624   0.976  15.400 -0.4198 -0.1953  0.0814
 4946TIP3    H136329   3.536   1.008  15.421 -0.1881  0.3137  0.2762
 4946TIP3    H236330   3.654   0.934  15.481 -0.8577 -1.2253 -0.2767
 4947TIP3   OH236331   3.776   0.526  13.921 -0.2184 -0.1491  0.3215
 4947TIP3    H136332   3.703   0.507  13.981  0.4774  0.8672  1.5509
 4947TIP3    H236333   3.737   0.524  13.834 -1.3679 -1.2356  0.8328
 4948TIP3   OH236334   0.441   2.660   2.336  0.1645 -0.7126 -0.1124
 4948TIP3    H136335   0.489   2.729   2.383  0.6373 -0.5777 -0.7865
 4948TIP3    H236336   0.485   2.653   2.251 -2.2356  0.8140 -1.5863
 4949TIP3   OH236337   5.058   3.020  13.393 -0.0672  0.2048 -0.5337
 4949TIP3    H136338   5.124   3.050  13.331  2.4537 -1.6687  1.0602
 4949TIP3    H236339   5.095   3.040  13.479 -2.1343  0.1228  0.4242
 4950TIP3   OH236340   4.489   4.130   0.652  0.1053 -0.4026  0.6070
 4950TIP3    H136341   4.549   4.077   0.705  0.8760 -0.0093  0.1469
 4950TIP3    H236342   4.531   4.135   0.566 -0.7511 -0.3792  0.1809
 4951TIP3   OH236343   5.388   3.057  10.219  0.2013  0.2625  0.0673
 4951TIP3    H136344   5.323   2.992  10.191  2.9183 -1.3003 -3.3696
 4951TIP3    H236345   5.436   3.014  10.290 -1.3157  0.7662  1.4634
 4952TIP3   OH236346   2.386   4.173  11.547  0.2020 -0.4544 -0.3132
 4952TIP3    H136347   2.369   4.094  11.496 -1.7096  1.0878 -2.2628
 4952TIP3    H236348   2.360   4.150  11.636 -2.4916 -1.4323 -1.2392
 4953TIP3   OH236349   4.533   0.316  12.925  0.2482  0.0226  0.2644
 4953TIP3    H136350   4.620   0.277  12.934 -0.1560 -1.2732 -1.0598
 4953TIP3    H236351   4.476   0.258  12.975  0.0930  0.7089  0.8928
 4954TIP3   OH236352   1.630   0.622   1.069 -0.0679  0.0854  0.4029
 4954TIP3    H136353   1.719   0.602   1.041 -0.5029 -1.3250 -0.0209
 4954TIP3    H236354   1.639   0.704   1.118  1.6109 -0.5399  1.2144
 4955TIP3   OH236355   6.104   5.819   0.072  0.2740  0.5024  0.3311
 4955TIP3    H136356   6.181   5.762   0.074  0.9393  1.3737  0.5515
 4955TIP3    H236357   6.137   5.902   0.036 -0.2682  1.2943  1.6006
 4956TIP3   OH236358   4.868   2.708   1.076 -0.4335 -0.9999 -0.1094
 4956TIP3    H136359   4.799   2.734   1.014 -1.1230 -0.0097  1.0222
 4956TIP3    H236360   4.837   2.627   1.114 -1.0896 -0.4616  0.5299
 4957TIP3   OH236361   3.155   2.366  10.315  0.3186  0.9478  0.8105
 4957TIP3    H136362   3.210   2.318  10.377  0.5233  0.2358  0.0908
 4957TIP3    H236363   3.121   2.440  10.366 -0.2752 -0.1219  2.0456
 4958TIP3   OH236364   2.678   5.428   0.017  0.2566 -0.0347  0.4380
 4958TIP3    H136365   2.766   5.461   0.003 -0.1428  1.0342  0.3815
 4958TIP3    H236366   2.641   5.420  -0.071 -1.1527  3.6458  0.5185
 4959TIP3   OH236367   2.213   6.642  16.563  0.0380 -0.0031 -0.4329
 4959TIP3    H136368   2.298   6.684  16.561  0.1042 -0.0439  0.7511
 4959TIP3    H236369   2.164   6.689  16.631 -0.3508 -0.9311 -0.0451
 4960TIP3   OH236370   0.809   4.593   3.491  0.4678  0.2658 -0.7132
 4960TIP3    H136371   0.880   4.625   3.436 -0.5084  1.2027 -1.4672
 4960TIP3    H236372   0.805   4.499   3.472  1.5270  0.1870 -0.6081
 4961TIP3   OH236373   2.636   5.017   4.168  0.2625 -0.3253  0.1080
 4961TIP3    H136374   2.709   5.078   4.160  0.2288 -0.2201  0.6096
 4961TIP3    H236375   2.560   5.066   4.140  0.4009 -0.4828 -0.5701
 4962TIP3   OH236376   6.373   1.308   5.756  0.4045  0.0064  0.0704
 4962TIP3    H136377   6.317   1.321   5.832 -2.5245  0.4118 -1.9532
 4962TIP3    H236378   6.371   1.392   5.710  0.6496 -0.7105 -1.3171
 4963TIP3   OH236379   1.233   0.189  17.030 -0.1391 -0.2446  0.0578
 4963TIP3    H136380   1.312   0.138  17.046  0.9228  0.9191 -1.2209
 4963TIP3    H236381   1.168   0.153  17.091  1.2414 -1.4951  0.8504
 4964TIP3   OH236382   2.810   4.104  14.839  0.0167  0.2567 -0.7692
 4964TIP3    H136383   2.747   4.047  14.884  0.4351  1.6294  1.7538
 4964TIP3    H236384   2.758   4.151  14.775 -1.6598  1.3648  1.2642
 4965TIP3   OH236385   6.407   1.302   3.505  0.1125 -0.3262 -0.1376
 4965TIP3    H136386   6.360   1.354   3.440 -1.1286 -0.8614  0.3212
 4965TIP3    H236387   6.486   1.354   3.524 -1.4075  1.7447  0.8176
 4966TIP3   OH236388   5.852   6.346   3.314 -0.1345 -0.0108  0.0948
 4966TIP3    H136389   5.860   6.440   3.331 -0.8741  0.5939 -2.3573
 4966TIP3    H236390   5.942   6.317   3.299  0.1662  0.1442  1.5344
 4967TIP3   OH236391   6.674   1.019  10.846 -0.2421  0.7478  0.4361
 4967TIP3    H136392   6.638   1.029  10.758  1.8458  1.1059 -0.4523
 4967TIP3    H236393   6.712   0.931  10.846 -0.9423  0.4330  1.2832
 4968TIP3   OH236394   0.555   2.579  11.613 -0.4450  0.2113  0.8007
 4968TIP3    H136395   0.492   2.567  11.684 -0.6559  0.0366  0.5849
 4968TIP3    H236396   0.581   2.671  11.620 -0.2917  0.1321  1.2471
 4969TIP3   OH236397   3.478   0.209   4.469 -0.0935  0.0191 -0.2484
 4969TIP3    H136398   3.490   0.215   4.564 -0.1495  0.5545 -0.2747
 4969TIP3    H236399   3.419   0.281   4.447  0.6985  0.5098 -0.8262
 4970TIP3   OH236400   1.727   0.682  17.172 -0.0415  0.3760  0.0925
 4970TIP3    H136401   1.638   0.716  17.161 -0.3116 -0.7154 -1.4551
 4970TIP3    H236402   1.728   0.599  17.124  1.6843  0.1190  0.4748
 4971TIP3   OH236403   0.380   3.291  12.501 -0.0984  0.6097 -0.4734
 4971TIP3    H136404   0.431   3.224  12.456 -0.1082  0.5547 -0.4025
 4971TIP3    H236405   0.355   3.251  12.584 -1.1241  0.2740 -0.9340
 4972TIP3   OH236406   1.759   5.494   6.728  0.2203 -0.2985 -0.4298
 4972TIP3    H136407   1.824   5.446   6.677  0.2456 -1.0785  0.3022
 4972TIP3    H236408   1.776   5.586   6.708 -0.3067 -0.5931 -2.4473
 4973TIP3   OH236409   3.672   1.589   0.691 -0.2505  0.9962  0.5018
 4973TIP3    H136410   3.659   1.508   0.642  0.7880  1.1580 -0.0698
 4973TIP3    H236411   3.584   1.621   0.709 -0.6584  0.5013 -0.5404
 4974TIP3   OH236412   5.117   1.494  14.247  0.6476  0.0433 -0.0828
 4974TIP3    H136413   5.170   1.437  14.303  2.4305  1.7345  0.0895
 4974TIP3    H236414   5.117   1.450  14.162  2.0040 -0.2366  0.0299
 4975TIP3   OH236415   3.624   0.979  12.986  0.0399 -0.0532 -0.0061
 4975TIP3    H136416   3.595   0.978  13.078  3.0893  1.0149  1.0798
 4975TIP3    H236417   3.623   1.072  12.962  3.2993  0.1918  0.4551
 4976TIP3   OH236418   3.281   2.640   5.891  0.3224 -0.1055 -0.1713
 4976TIP3    H136419   3.281   2.687   5.974  0.7029 -0.3376 -0.0395
 4976TIP3    H236420   3.231   2.560   5.908  0.2174 -0.0528 -0.2264
 4977TIP3   OH236421   1.101   1.533  12.552  0.4241  0.0633  0.3211
 4977TIP3    H136422   1.165   1.486  12.497 -0.0060  0.7872 -0.8349
 4977TIP3    H236423   1.050   1.464  12.594 -0.8506 -0.5869 -2.1156
 4978TIP3   OH236424   5.174   5.930  16.193  0.3461 -1.2045 -0.1714
 4978TIP3    H136425   5.099   5.989  16.206  0.7431 -0.5362 -0.8274
 4978TIP3    H236426   5.149   5.850  16.239 -1.2905 -1.4291 -1.3460
 4979TIP3   OH236427   5.924   1.026   4.048  0.1235 -0.5872  0.0661
 4979TIP3    H136428   5.914   0.969   4.125  0.3433  0.3247  0.7959
 4979TIP3    H236429   5.837   1.062   4.034 -0.0396 -1.1679 -0.4617
 4980TIP3   OH236430   0.188   4.953  16.017  0.8325  0.4814 -0.0003
 4980TIP3    H136431   0.283   4.963  16.024  1.3073 -2.1841 -1.3287
 4980TIP3    H236432   0.168   4.875  16.068 -0.8605  1.5881  1.1159
 4981TIP3   OH236433   6.528   0.741  14.951 -0.2786 -0.3441  0.4659
 4981TIP3    H136434   6.521   0.837  14.956 -1.0802 -0.4465  1.7273
 4981TIP3    H236435   6.529   0.713  15.042  0.0032 -1.5420  0.1018
 4982TIP3   OH236436   0.026   3.731   3.430  0.1680 -0.3937  0.4392
 4982TIP3    H136437   0.058   3.671   3.496  0.0173 -0.4011  0.5061
 4982TIP3    H236438  -0.069   3.732   3.442  0.0101 -1.3300 -0.5653
 4983TIP3   OH236439   3.999   1.819   5.121  0.0722  0.4218  0.5197
 4983TIP3    H136440   3.956   1.888   5.172  0.8326  1.5803 -0.3597
 4983TIP3    H236441   3.927   1.768   5.084 -0.5746  1.9333 -0.4037
 4984TIP3   OH236442   5.217   6.599   0.410 -0.8272  0.1284 -0.1315
 4984TIP3    H136443   5.307   6.572   0.393  0.1480  3.4711 -1.1510
 4984TIP3    H236444   5.201   6.576   0.502  0.4769 -1.8366 -0.3407
 4985TIP3   OH236445   3.857   0.716   3.336 -0.2530  0.1291 -0.5599
 4985TIP3    H136446   3.811   0.688   3.256  1.9551 -1.1317 -1.4919
 4985TIP3    H236447   3.895   0.635   3.370  0.2610  0.9411  0.8438
 4986TIP3   OH236448   0.577   0.699  10.768 -0.0430  0.3814  0.0411
 4986TIP3    H136449   0.645   0.746  10.816 -0.8339  2.0724 -0.4161
 4986TIP3    H236450   0.623   0.656  10.696  1.0184 -1.4051  1.6885
 4987TIP3   OH236451   0.131   1.228  12.872  0.1734 -0.0870  0.2207
 4987TIP3    H136452   0.090   1.306  12.910 -1.0498 -0.8965  0.6467
 4987TIP3    H236453   0.057   1.177  12.838  0.9442 -1.0746 -0.0137
 4988TIP3   OH236454   6.582   2.096   0.817  0.0262  0.4461  0.2302
 4988TIP3    H136455   6.584   2.189   0.841 -0.2764 -0.1883  3.0750
 4988TIP3    H236456   6.489   2.073   0.821  0.3567 -0.7418  3.2667
 4989TIP3   OH236457   3.513   4.174  10.274  0.1403 -0.2946  0.2157
 4989TIP3    H136458   3.583   4.114  10.299 -0.5884 -1.3200 -0.1439
 4989TIP3    H236459   3.494   4.223  10.355  0.7837 -0.4949  0.4945
 4990TIP3   OH236460   5.069   5.923   0.651  0.1636 -0.2969  0.0615
 4990TIP3    H136461   5.005   5.888   0.589 -0.8677  0.9343  0.3959
 4990TIP3    H236462   5.051   5.877   0.733  0.1355 -0.4045 -0.0047
 4991TIP3   OH236463   2.877   3.103   3.640  0.2923  0.1990  0.6068
 4991TIP3    H136464   2.970   3.083   3.637  0.5089  0.9943  1.5873
 4991TIP3    H236465   2.867   3.180   3.584  0.1675 -0.0629  0.2647
 4992TIP3   OH236466   0.761   6.709   1.558  0.1394  0.0616  0.2017
 4992TIP3    H136467   0.822   6.683   1.489 -0.4960  0.9007 -0.7107
 4992TIP3    H236468   0.759   6.635   1.618  1.6540 -0.1916 -0.0188
 4993TIP3   OH236469   5.651   6.324   2.385 -0.1120 -0.1677 -0.5172
 4993TIP3    H136470   5.588   6.370   2.330 -1.5003 -2.2460 -0.7685
 4993TIP3    H236471   5.712   6.392   2.414 -0.2867  1.2960 -3.2696
 4994TIP3   OH236472   3.629   4.950   5.308  0.9188  0.3720 -0.5187
 4994TIP3    H136473   3.697   4.906   5.257  1.1479 -0.6575  0.6093
 4994TIP3    H236474   3.634   4.908   5.394 -0.9538  0.4788 -0.3271
 4995TIP3   OH236475   1.535   0.019  11.625 -0.0977 -0.2665 -0.3270
 4995TIP3    H136476   1.599   0.090  11.630 -0.0835 -0.1993 -1.1816
 4995TIP3    H236477   1.485   0.038  11.545 -1.0982 -0.3908  0.2603
 4996TIP3   OH236478   4.727   3.200  13.514  0.2670  0.8595  0.4984
 4996TIP3    H136479   4.699   3.270  13.454  0.1299  0.7427  0.4251
 4996TIP3    H236480   4.657   3.193  13.578 -1.8452 -2.0541 -1.8683
 4997TIP3   OH236481   5.778   1.244   0.391  0.0462  0.4100 -0.7899
 4997TIP3    H136482   5.685   1.229   0.377 -0.1270  1.3055 -0.6336
 4997TIP3    H236483   5.787   1.255   0.486  0.2135  0.9057 -0.8575
 4998TIP3   OH236484   5.595   4.994   5.155  0.2307  0.0588 -0.1900
 4998TIP3    H136485   5.504   5.025   5.152 -0.6159 -2.2686 -0.5399
 4998TIP3    H236486   5.645   5.069   5.188 -1.9342  1.1262  0.8484
 4999TIP3   OH236487   1.110   3.238  16.401  0.7869  0.4683 -0.2554
 4999TIP3    H136488   1.202   3.217  16.387  1.3643  2.4187  0.2367
 4999TIP3    H236489   1.105   3.268  16.492 -0.8312 -1.7989  0.5058
 5000TIP3   OH236490   0.998   0.002   1.397  0.3604  0.0926 -0.8722
 5000TIP3    H136491   0.966  -0.063   1.335 -0.4947 -0.5519  0.2252
 5000TIP3    H236492   1.058  -0.046   1.454 -0.0800  0.3010 -0.2171
 5001TIP3   OH236493   5.117   3.007   5.899  0.9540  0.4669  0.3076
 5001TIP3    H136494   5.050   3.015   5.831  0.0884  1.1836  1.2072
 5001TIP3    H236495   5.144   3.098   5.916  0.2636  0.4353  1.7557
 5002TIP3   OH236496   3.419   6.272   1.633  0.1310 -0.5991 -0.1028
 5002TIP3    H136497   3.429   6.351   1.580 -0.5351 -0.7051 -0.3968
 5002TIP3    H236498   3.328   6.245   1.619 -0.6180  0.3442  2.4652
 5003TIP3   OH236499   3.781   4.669  17.134  0.3460 -0.1478  0.8513
 5003TIP3    H136500   3.790   4.709  17.047 -0.1773 -0.4121  0.6691
 5003TIP3    H236501   3.867   4.679  17.175  0.5317  0.1732  0.3845
 5004TIP3   OH236502   4.966   5.532  13.077 -0.4174 -0.0534  0.3718
 5004TIP3    H136503   5.059   5.515  13.093  0.3921  1.5708 -2.0658
 5004TIP3    H236504   4.948   5.490  12.993 -1.5150  0.7893  0.1588
 5005TIP3   OH236505   0.158   1.451   3.481 -0.2680 -0.2882  0.2943
 5005TIP3    H136506   0.085   1.393   3.459  0.1570 -0.9111  0.4975
 5005TIP3    H236507   0.236   1.400   3.459  0.1166  0.0220  0.9221
 5006TIP3   OH236508   5.000   2.800   6.279 -0.4600 -0.1011 -0.0876
 5006TIP3    H136509   5.016   2.886   6.319 -1.1433 -0.6195  1.3690
 5006TIP3    H236510   4.905   2.792   6.277 -0.4008 -0.7786 -0.3208
 5007TIP3   OH236511   1.334   3.979   5.882 -0.3001  0.3963 -0.1632
 5007TIP3    H136512   1.345   3.891   5.846 -1.0896  0.6661 -1.1250
 5007TIP3    H236513   1.274   3.967   5.955 -0.9170  0.2050 -0.6888
 5008TIP3   OH236514   6.463   5.516  12.968 -0.6011 -0.3062 -0.2189
 5008TIP3    H136515   6.422   5.591  13.011  1.1876  0.6689 -0.1431
 5008TIP3    H236516   6.449   5.531  12.874 -0.9781 -0.3362 -0.1706
 5009TIP3   OH236517   6.583   0.240  14.118  0.8529  0.2543 -0.1243
 5009TIP3    H136518   6.566   0.205  14.205 -1.0492  3.2221  0.8576
 5009TIP3    H236519   6.674   0.216  14.101  1.4270 -0.1297  2.8553
 5010TIP3   OH236520   5.018   5.761   0.918 -0.0968  0.4700 -0.1518
 5010TIP3    H136521   4.928   5.776   0.888 -0.0463  0.9040 -0.1013
 5010TIP3    H236522   5.052   5.694   0.859 -1.0483 -1.0628  0.9899
 5011TIP3   OH236523   2.474   2.759  15.369 -0.1987  0.1534  0.0564
 5011TIP3    H136524   2.473   2.795  15.280 -1.4693  2.6071  0.9759
 5011TIP3    H236525   2.387   2.720  15.380 -0.7576  1.5412  0.8040
 5012TIP3   OH236526   4.619   4.124  11.338  0.4170 -0.0554  0.3249
 5012TIP3    H136527   4.579   4.197  11.291  0.9497  0.1135  0.1302
 5012TIP3    H236528   4.556   4.052  11.329 -0.2810  0.4815  0.8376
 5013TIP3   OH236529   6.005   2.100   1.808  0.2408  0.2294  0.3312
 5013TIP3    H136530   6.064   2.041   1.761  0.2554  1.2541 -0.9958
 5013TIP3    H236531   6.062   2.150   1.866  0.6433  0.8952 -0.6128
 5014TIP3   OH236532   6.023   6.133  17.018 -0.8109 -0.3089  0.1479
 5014TIP3    H136533   6.050   6.158  17.106 -0.0136  2.3719 -0.7577
 5014TIP3    H236534   6.089   6.070  16.989 -0.1363  0.0522  0.8779
 5015TIP3   OH236535   2.008   0.016   4.022  0.1874  0.3002  0.3122
 5015TIP3    H136536   2.045   0.091   3.977 -0.5089  0.6542  0.3095
 5015TIP3    H236537   2.040   0.022   4.112  2.0742 -0.7403 -0.2369
 5016TIP3   OH236538   6.268   3.761   1.930 -0.1087  0.6900  0.7337
 5016TIP3    H136539   6.193   3.724   1.978 -1.1239 -0.0515 -1.2955
 5016TIP3    H236540   6.337   3.695   1.939 -1.3262 -1.0291 -1.3410
 5017TIP3   OH236541   1.454   6.036  11.108  0.4237 -0.1076  0.0468
 5017TIP3    H136542   1.458   6.060  11.015 -1.5433 -0.0174 -0.0577
 5017TIP3    H236543   1.546   6.030  11.135  1.0441 -0.1365 -1.8915
 5018TIP3   OH236544   4.207   3.628  14.813  0.3519  0.3114 -0.1750
 5018TIP3    H136545   4.202   3.675  14.896  0.4506  0.8386 -0.4640
 5018TIP3    H236546   4.269   3.557  14.830  1.6598  1.3943 -0.2464
 5019TIP3   OH236547   6.411   0.702   1.614 -0.0192  0.8383  0.5517
 5019TIP3    H136548   6.377   0.792   1.618 -0.9277  0.5187  0.3404
 5019TIP3    H236549   6.341   0.649   1.651  1.6944  0.4827  3.6310
 5020TIP3   OH236550   6.524   4.929  10.661  0.8209 -1.0385  0.1132
 5020TIP3    H136551   6.558   5.014  10.636  0.7805 -1.1652 -0.3806
 5020TIP3    H236552   6.601   4.871  10.663  0.6040 -1.3999 -1.3277
 5021TIP3   OH236553   3.596   3.971   1.759  0.3972 -0.1035  0.5313
 5021TIP3    H136554   3.616   3.947   1.849 -0.1106 -0.1102  0.6439
 5021TIP3    H236555   3.600   4.067   1.758  0.1293 -0.0907  0.6272
 5022TIP3   OH236556   1.907   0.367  13.358 -0.0209 -0.3238 -0.2860
 5022TIP3    H136557   1.819   0.404  13.357  0.3079  0.4744 -0.7672
 5022TIP3    H236558   1.911   0.314  13.278  0.1938  0.2804 -0.6803
 5023TIP3   OH236559   2.406   4.736  10.964  0.1054 -0.9376  0.5027
 5023TIP3    H136560   2.389   4.701  10.877  2.2700 -0.0313 -0.3699
 5023TIP3    H236561   2.363   4.822  10.964  2.4283  0.3303 -0.8201
 5024TIP3   OH236562   3.875   0.793  13.463 -0.1509 -0.1435  0.2550
 5024TIP3    H136563   3.854   0.886  13.455  0.2673 -0.0154  0.6186
 5024TIP3    H236564   3.931   0.774  13.388 -0.0806 -0.0561  0.2849
 5025TIP3   OH236565   6.224   1.798   1.029  0.1230  0.4813  0.2631
 5025TIP3    H136566   6.183   1.863   0.972  1.8615  0.8614 -0.6408
 5025TIP3    H236567   6.250   1.848   1.107  0.0734  0.5449  0.2391
 5026TIP3   OH236568   4.001   6.399  13.181 -0.0562 -0.1005 -0.1716
 5026TIP3    H136569   3.910   6.376  13.200 -1.1773  1.9035 -2.5242
 5026TIP3    H236570   4.002   6.495  13.187  1.5106  0.0060 -1.6196
 5027TIP3   OH236571   0.613   0.972  13.368  0.8793 -0.2378 -0.1748
 5027TIP3    H136572   0.660   0.903  13.321  0.2901 -2.0868  1.7659
 5027TIP3    H236573   0.663   0.983  13.449 -0.5529 -0.3498  0.7484
 5028TIP3   OH236574   6.121   0.250   4.389  0.2855 -0.0888 -0.0706
 5028TIP3    H136575   6.200   0.226   4.340 -1.2176 -1.2332 -2.1123
 5028TIP3    H236576   6.118   0.187   4.461  0.8274 -0.5688 -0.4521
 5029TIP3   OH236577   5.364   2.754  16.328 -0.0892 -0.4968 -0.2870
 5029TIP3    H136578   5.440   2.697  16.310  0.3740 -0.1706  0.6010
 5029TIP3    H236579   5.396   2.842  16.313 -0.4453 -0.3837 -0.3957
 5030TIP3   OH236580   2.419   6.416   6.053  0.0946 -0.0127 -0.7497
 5030TIP3    H136581   2.379   6.341   6.097  0.2737  0.7196  0.7213
 5030TIP3    H236582   2.478   6.377   5.989 -0.3181 -1.1210 -0.4831
 5031TIP3   OH236583   3.078   0.838  13.534 -0.2590 -0.1803  0.4600
 5031TIP3    H136584   3.079   0.770  13.602  1.1129 -0.5109  0.1351
 5031TIP3    H236585   2.998   0.820  13.484  0.2625 -1.8235  0.1528
 5032TIP3   OH236586   1.314   4.365   5.734 -0.0676  0.0642  0.2632
 5032TIP3    H136587   1.295   4.436   5.673  1.3584 -2.1077 -3.0211
 5032TIP3    H236588   1.231   4.317   5.741 -0.2475  0.3363  0.0340
 5033TIP3   OH236589   0.912   3.048  16.556  0.3269  0.3246 -0.5926
 5033TIP3    H136590   0.923   2.968  16.505 -0.0239  0.3434 -0.7040
 5033TIP3    H236591   0.955   3.116  16.504  0.9779  0.1419 -0.3022
 5034TIP3   OH236592   0.217   3.146   5.389  0.3084  0.3928 -0.1057
 5034TIP3    H136593   0.222   3.232   5.430 -0.8811 -0.2523  1.4886
 5034TIP3    H236594   0.302   3.106   5.404  0.1364  0.4630  1.0862
 5035TIP3   OH236595   2.932   0.953   3.890 -0.0853  0.1033 -0.9332
 5035TIP3    H136596   2.857   0.997   3.850  0.9039  2.3511 -0.4573
 5035TIP3    H236597   2.931   0.983   3.981  1.7778  0.7887 -1.0919
 5036TIP3   OH236598   2.063   5.232  12.132 -0.2578 -0.5945  0.8011
 5036TIP3    H136599   1.977   5.273  12.125 -0.1767 -0.3062  1.4468
 5036TIP3    H236600   2.123   5.296  12.094 -0.4210 -1.1621 -0.4634
 5037TIP3   OH236601   0.931   0.524  14.031 -0.1753  0.3559 -0.0477
 5037TIP3    H136602   1.023   0.544  14.043 -0.1275  0.4196 -0.5077
 5037TIP3    H236603   0.923   0.498  13.939 -0.7087  0.8605 -0.1539
 5038TIP3   OH236604   0.511   6.610  16.959  0.0262 -0.0633 -0.3643
 5038TIP3    H136605   0.533   6.641  17.047  1.3715  0.0525 -0.7237
 5038TIP3    H236606   0.451   6.537  16.974  0.1129  0.0611  0.6496
 5039TIP3   OH236607   3.256   4.068  13.195 -0.1406 -0.4090 -0.3856
 5039TIP3    H136608   3.220   3.992  13.241 -1.0825  0.6303  0.6732
 5039TIP3    H236609   3.236   4.053  13.103  2.1666 -2.7668 -0.6236
 5040TIP3   OH236610   5.280   4.969   1.182 -0.7072  0.0078  0.1149
 5040TIP3    H136611   5.314   5.052   1.148 -0.6406  0.0355  0.2496
 5040TIP3    H236612   5.238   4.993   1.265  1.6232 -0.4868  1.5297
 5041TIP3   OH236613   3.228   5.220  12.806 -0.3075  0.0903  0.0158
 5041TIP3    H136614   3.193   5.219  12.717 -1.1894 -0.1276  0.3601
 5041TIP3    H236615   3.192   5.298  12.846  0.2170  0.2746  0.1425
 5042TIP3   OH236616   1.433   5.745   0.730 -0.3580  0.2519 -0.3889
 5042TIP3    H136617   1.397   5.658   0.715  1.4268 -0.6251  0.1085
 5042TIP3    H236618   1.374   5.785   0.793 -1.3994 -0.4534 -0.8811
 5043TIP3   OH236619   5.130   3.091  13.650 -0.3210  0.4779 -0.8971
 5043TIP3    H136620   5.073   3.067  13.723  2.4362 -1.3391  0.8273
 5043TIP3    H236621   5.127   3.187  13.648  0.1764  0.6566  2.2413
 5044TIP3   OH236622   6.298   2.486   1.936  0.5146  0.6033 -0.6639
 5044TIP3    H136623   6.262   2.488   2.024  0.2884  1.9496 -0.7637
 5044TIP3    H236624   6.382   2.441   1.945 -0.1939 -0.6387 -0.0514
 5045TIP3   OH236625   4.170   1.984  16.046  0.3707  0.6727  0.4365
 5045TIP3    H136626   4.224   2.003  15.969 -1.9795 -0.5898 -1.6705
 5045TIP3    H236627   4.195   1.896  16.073  0.3273  0.6151  0.2927
 5046TIP3   OH236628   2.023   4.821  12.387  0.2887  0.3901 -0.1601
 5046TIP3    H136629   2.068   4.884  12.331  0.1022  0.3128 -0.3988
 5046TIP3    H236630   2.093   4.778  12.436  0.3302  1.6700  0.9539
 5047TIP3   OH236631   3.512   5.419  13.730 -0.0236  0.2462 -0.6878
 5047TIP3    H136632   3.473   5.374  13.655  1.3906 -0.3229 -1.1135
 5047TIP3    H236633   3.437   5.442  13.786 -1.3148  2.1418 -3.0112
 5048TIP3   OH236634   4.910   2.058  11.106 -0.2046 -0.4752 -0.0407
 5048TIP3    H136635   4.898   2.152  11.113  0.0543 -0.5717  2.4199
 5048TIP3    H236636   4.964   2.046  11.028  1.4790  1.5852  0.7485
 5049TIP3   OH236637   2.458   5.587  14.452  0.0799  0.1632  0.2198
 5049TIP3    H136638   2.393   5.650  14.484 -0.5978  0.5437 -1.7491
 5049TIP3    H236639   2.526   5.642  14.412 -0.7470 -0.2644 -1.9459
 5050TIP3   OH236640   0.225   5.686  14.138  0.5545  0.2081  0.4016
 5050TIP3    H136641   0.200   5.776  14.159 -1.3810  0.5550 -2.8520
 5050TIP3    H236642   0.159   5.632  14.181  1.4514  0.2932  1.9678
 5051TIP3   OH236643   5.976   0.824   6.554 -0.0947 -0.2153  0.2835
 5051TIP3    H136644   5.897   0.780   6.522 -0.4792  0.8658 -0.2732
 5051TIP3    H236645   5.960   0.917   6.539  2.3387 -0.1028 -2.3224
 5052TIP3   OH236646   0.405   2.856   0.495 -0.3229 -0.4443 -0.0188
 5052TIP3    H136647   0.388   2.840   0.588 -0.2191 -0.9549 -0.0805
 5052TIP3    H236648   0.458   2.936   0.494  1.7488 -1.7257  0.5540
 5053TIP3   OH236649   5.849   3.314  12.695 -0.5486  0.3555  0.6616
 5053TIP3    H136650   5.912   3.383  12.675 -0.5408 -0.0763 -0.9748
 5053TIP3    H236651   5.842   3.264  12.614 -3.9861  1.1514  0.3276
 5054TIP3   OH236652   2.765   3.483   5.319  0.0914 -0.6100 -0.3657
 5054TIP3    H136653   2.778   3.508   5.228 -0.6865 -0.0540 -0.3338
 5054TIP3    H236654   2.673   3.501   5.336 -0.0422 -1.7415  0.2172
 5055TIP3   OH236655   5.380   0.860   3.526  0.0318  0.2077 -0.9330
 5055TIP3    H136656   5.473   0.839   3.518  0.3673  0.3425  1.7495
 5055TIP3    H236657   5.372   0.949   3.492  1.0025  0.4019 -0.6727
 5056TIP3   OH236658   3.125   3.780   5.195  0.0379 -0.7354 -0.0896
 5056TIP3    H136659   3.083   3.858   5.159 -1.3475 -1.0499  0.8002
 5056TIP3    H236660   3.109   3.785   5.289  0.7404 -1.6302  0.0924
 5057TIP3   OH236661   4.792   3.353  16.329 -0.1848  0.3980 -0.3106
 5057TIP3    H136662   4.821   3.393  16.247 -0.4280 -0.2202 -0.7044
 5057TIP3    H236663   4.853   3.280  16.343  1.2058  1.7576  1.1867
 5058TIP3   OH236664   6.230   5.406   3.563  0.2762 -0.5251 -0.6823
 5058TIP3    H136665   6.286   5.364   3.628 -2.3964 -0.2064  2.0571
 5058TIP3    H236666   6.256   5.499   3.566 -0.5840 -0.2981  0.9002
 5059TIP3   OH236667   2.402   1.905   1.493 -0.2491  0.1127 -0.2460
 5059TIP3    H136668   2.372   1.960   1.565  1.3931  1.0833 -0.2523
 5059TIP3    H236669   2.440   1.828   1.536  2.8428  1.7223  0.1660
 5060TIP3   OH236670   1.587   2.921   0.934 -0.5188  0.6601  0.5632
 5060TIP3    H136671   1.521   2.978   0.895 -0.6898 -0.2299 -0.4852
 5060TIP3    H236672   1.607   2.962   1.018 -1.5161  1.6006  0.3643
 5061TIP3   OH236673   4.288   3.077   3.451  0.0304 -0.2018 -0.0129
 5061TIP3    H136674   4.298   3.160   3.497 -2.5319 -1.7385  3.8720
 5061TIP3    H236675   4.216   3.092   3.390 -0.4580  0.4770  0.7057
 5062TIP3   OH236676   3.901   5.300  17.040 -0.0523  0.0112 -0.3173
 5062TIP3    H136677   3.848   5.379  17.044  0.0776  0.0697  0.3937
 5062TIP3    H236678   3.985   5.328  17.003 -1.2044 -0.4890 -3.6784
 5063TIP3   OH236679   2.349   5.178   1.564 -0.4784 -0.6954 -0.1714
 5063TIP3    H136680   2.315   5.131   1.641 -1.0206  0.9975  0.6582
 5063TIP3    H236681   2.371   5.265   1.596 -4.0742  1.3544 -2.5041
 5064TIP3   OH236682   5.413   0.772   5.277 -0.0067  0.7366  0.2190
 5064TIP3    H136683   5.359   0.698   5.305  0.8762  0.8144  2.2735
 5064TIP3    H236684   5.360   0.816   5.211 -1.3051 -0.7019  0.2401
 5065TIP3   OH236685   2.238   1.744   1.210 -0.0128 -0.0987  0.6497
 5065TIP3    H136686   2.206   1.662   1.247 -0.3966  0.5987  1.9226
 5065TIP3    H236687   2.333   1.740   1.223  0.1475 -0.9142 -0.5456
 5066TIP3   OH236688   0.759   4.344  16.786  0.3375 -0.3213  0.4808
 5066TIP3    H136689   0.704   4.267  16.797  1.9780 -1.4681  1.0560
 5066TIP3    H236690   0.835   4.314  16.737  0.0558  1.4377 -1.1487
 5067TIP3   OH236691   2.254   5.104   2.344  0.1465  0.0708 -0.3819
 5067TIP3    H136692   2.331   5.102   2.401  0.6621  0.8881 -1.0188
 5067TIP3    H236693   2.202   5.028   2.370  0.2825  0.5091  1.2756
 5068TIP3   OH236694   1.376   5.150  10.619  0.4059  0.1637 -0.0873
 5068TIP3    H136695   1.290   5.162  10.659  0.8808  1.2909  0.6105
 5068TIP3    H236696   1.411   5.238  10.607  0.9880 -0.2149 -1.4565
 5069TIP3   OH236697   5.989   6.023   4.934  0.3643  0.0413  0.2156
 5069TIP3    H136698   5.945   6.101   4.969 -2.2007 -1.2965  0.1656
 5069TIP3    H236699   5.955   6.014   4.845 -1.2798 -2.3813  0.9794
 5070TIP3   OH236700   4.870   3.066   0.414  0.1399 -0.6748 -0.5815
 5070TIP3    H136701   4.917   3.062   0.498  1.9340 -1.8148 -1.5733
 5070TIP3    H236702   4.902   2.991   0.365 -0.6019  0.1587 -2.4423
 5071TIP3   OH236703   0.608   3.884   5.214  0.4011 -0.0398 -0.3480
 5071TIP3    H136704   0.631   3.799   5.178  1.5515  0.0775  0.0632
 5071TIP3    H236705   0.656   3.889   5.297 -1.5935 -0.0024  0.8633
 5072TIP3   OH236706   1.280   2.626   2.405  0.3864 -0.1240  0.5100
 5072TIP3    H136707   1.252   2.670   2.324  0.1312 -1.1533  0.0237
 5072TIP3    H236708   1.209   2.566   2.425  2.0552 -2.6548 -0.6372
 5073TIP3   OH236709   2.112   6.343  11.389 -0.0453  0.0100 -0.3573
 5073TIP3    H136710   2.084   6.323  11.478 -0.1633  0.3586 -0.3150
 5073TIP3    H236711   2.205   6.320  11.388  0.6464  2.3794  0.6307
 5074TIP3   OH236712   5.952   6.320   3.036  0.0515  0.0597  0.1453
 5074TIP3    H136713   5.909   6.251   3.087 -1.2010  0.1061 -0.7927
 5074TIP3    H236714   5.891   6.393   3.038  0.7318  0.6446 -0.0486
 5075TIP3   OH236715   4.194   3.277   3.291 -0.1076  0.4286  0.2156
 5075TIP3    H136716   4.288   3.293   3.276 -0.1892  1.2094  0.4866
 5075TIP3    H236717   4.157   3.269   3.203  0.1724  0.3325  0.1016
 5076TIP3   OH236718   2.664   3.679  16.306  0.0545 -0.3689 -0.6535
 5076TIP3    H136719   2.702   3.766  16.296  1.2889 -1.1173 -3.1549
 5076TIP3    H236720   2.708   3.642  16.383  0.7771  0.5658 -0.6050
 5077TIP3   OH236721   0.045   0.040   2.014  0.1371 -0.3457  0.1551
 5077TIP3    H136722  -0.005   0.009   1.939  2.5359 -0.8672 -1.3513
 5077TIP3    H236723  -0.018   0.088   2.067 -1.8280 -0.6203 -1.7806
 5078TIP3   OH236724   4.747   1.047  13.423 -0.3006  0.4156  0.8802
 5078TIP3    H136725   4.751   1.042  13.518 -1.7274  1.1953  1.0156
 5078TIP3    H236726   4.762   0.957  13.393 -1.7110 -0.2083  1.9387
 5079TIP3   OH236727   3.509   0.837  12.553  0.3280 -0.1531  0.3735
 5079TIP3    H136728   3.543   0.761  12.504 -0.2581  0.7565 -1.5654
 5079TIP3    H236729   3.416   0.840  12.531  0.6293  2.0017 -0.8967
 5080TIP3   OH236730   5.379   5.216   1.082 -0.5185 -0.2925 -0.0736
 5080TIP3    H136731   5.412   5.209   1.171  1.1728 -0.6424 -0.6884
 5080TIP3    H236732   5.452   5.252   1.032 -0.9493 -1.3582 -1.5542
 5081TIP3   OH236733   0.904   2.170  15.260 -0.1727  0.2511  0.1421
 5081TIP3    H136734   0.957   2.245  15.288  2.1779 -0.2647 -2.5147
 5081TIP3    H236735   0.835   2.208  15.206 -0.8665  0.6996  1.3111
 5082TIP3   OH236736   3.999   0.102   2.826 -0.2946  0.4639 -0.7722
 5082TIP3    H136737   4.017   0.191   2.795  1.0839  1.1117  1.6407
 5082TIP3    H236738   3.979   0.053   2.746  0.1772  2.6318 -2.3264
 5083TIP3   OH236739   3.224   4.900  17.134 -0.1026 -0.7832 -0.9123
 5083TIP3    H136740   3.145   4.930  17.089  0.2881  2.0943  0.1194
 5083TIP3    H236741   3.191   4.854  17.212 -0.9067  2.1180  0.5917
 5084TIP3   OH236742   5.718   6.684   5.606 -0.1729  0.5675  0.1697
 5084TIP3    H136743   5.760   6.615   5.553  0.2580  1.3109 -0.4884
 5084TIP3    H236744   5.789   6.745   5.625 -0.6206  1.0004  0.4670
 5085TIP3   OH236745   4.327   3.342   3.560 -0.2839 -0.2694 -0.1259
 5085TIP3    H136746   4.334   3.375   3.470  0.4744  1.1615  0.4161
 5085TIP3    H236747   4.336   3.420   3.614 -0.1562 -1.1862  1.2114
 5086TIP3   OH236748   4.834   0.300  15.506 -0.4028 -0.0211 -0.5107
 5086TIP3    H136749   4.885   0.282  15.427  0.1733 -0.6526 -0.0076
 5086TIP3    H236750   4.837   0.395  15.516  0.3174 -0.0155 -0.7322
 5087TIP3   OH236751   4.899   6.214  12.690  0.0001  0.3246  0.0260
 5087TIP3    H136752   4.924   6.253  12.606 -0.3609 -1.4637 -0.9825
 5087TIP3    H236753   4.981   6.182  12.727 -0.0742 -0.7784 -0.7069
 5088TIP3   OH236754   2.921   4.143   5.970  0.1247  0.1642  0.1166
 5088TIP3    H136755   2.934   4.213   5.906 -0.8072  0.6636  0.4620
 5088TIP3    H236756   2.831   4.113   5.956  0.8395 -1.7819 -0.8079
 5089TIP3   OH236757   1.544   2.702   3.098 -0.2185  0.4543 -0.3994
 5089TIP3    H136758   1.606   2.633   3.120 -2.4730 -1.3134  0.7918
 5089TIP3    H236759   1.496   2.719   3.179 -4.8232 -2.0757 -2.2093
 5090TIP3   OH236760   0.356   1.693  14.547  0.2471  0.0820  0.5606
 5090TIP3    H136761   0.263   1.671  14.560 -0.3159  2.3841  0.8289
 5090TIP3    H236762   0.403   1.618  14.583 -1.4775 -1.6876 -0.6031
 5091TIP3   OH236763   5.588   3.828   5.686 -0.3533  0.1418 -0.1772
 5091TIP3    H136764   5.645   3.897   5.719 -1.1420 -0.3300  2.3262
 5091TIP3    H236765   5.648   3.765   5.646  0.7189  0.5798  0.6941
 5092TIP3   OH236766   4.147   2.373  13.406 -0.0112 -0.2384 -0.2646
 5092TIP3    H136767   4.235   2.408  13.421 -0.7972  1.5238  0.6047
 5092TIP3    H236768   4.160   2.280  13.390  1.9789 -0.0615  0.0917
 5093TIP3   OH236769   6.137   1.121  13.375  0.2638 -0.1511 -0.5344
 5093TIP3    H136770   6.070   1.055  13.358 -0.5652  0.9373 -1.6635
 5093TIP3    H236771   6.095   1.182  13.436  0.7164 -0.1718 -0.1929
 5094TIP3   OH236772   0.517   0.229   2.983  0.1414 -0.2182  0.4704
 5094TIP3    H136773   0.487   0.144   3.016 -1.6329  0.5185  0.8860
 5094TIP3    H236774   0.464   0.244   2.905 -0.1913  0.8852  0.8969
 5095TIP3   OH236775   4.772   3.834   4.779 -0.0321  0.2431  0.0452
 5095TIP3    H136776   4.833   3.907   4.773 -0.5033  0.6030 -0.4862
 5095TIP3    H236777   4.787   3.783   4.699 -1.3274  1.0608 -0.7459
 5096TIP3   OH236778   2.207   1.276   4.152  0.2007 -0.0166 -0.1858
 5096TIP3    H136779   2.168   1.243   4.071  1.8062 -1.2201 -0.5027
 5096TIP3    H236780   2.147   1.246   4.221 -0.3754 -0.2960 -0.7953
 5097TIP3   OH236781   0.404   4.929  14.646 -0.0885 -0.6191 -0.4727
 5097TIP3    H136782   0.498   4.926  14.628  0.3292 -0.7299  1.4860
 5097TIP3    H236783   0.381   4.838  14.666 -0.6616 -0.6271 -1.1535
 5098TIP3   OH236784   0.200   6.446  14.178 -0.0366  0.3337 -0.1900
 5098TIP3    H136785   0.271   6.471  14.236  0.7370 -1.7992 -0.1530
 5098TIP3    H236786   0.161   6.529  14.151 -0.0073  1.4416  2.8045
 5099TIP3   OH236787   6.441   5.588  16.026  0.3510  0.6347 -0.2972
 5099TIP3    H136788   6.527   5.601  16.066  0.4028  0.3219 -0.3040
 5099TIP3    H236789   6.379   5.602  16.098  0.4373  0.2456 -0.1428
 5100TIP3   OH236790   5.455   3.357   4.620 -0.2179  0.4593  0.3809
 5100TIP3    H136791   5.489   3.369   4.709 -0.6155 -1.9988  0.9154
 5100TIP3    H236792   5.409   3.273   4.622  1.8929 -0.9669 -2.7358
 5101TIP3   OH236793   4.126   2.810  15.005 -0.9525 -0.3808  0.1073
 5101TIP3    H136794   4.196   2.745  15.011  1.0858  1.5245 -1.2131
 5101TIP3    H236795   4.057   2.767  14.956 -0.5043 -2.1533  0.9357
 5102TIP3   OH236796   2.741   1.740   1.455 -0.0518 -0.3758  0.3151
 5102TIP3    H136797   2.757   1.721   1.547 -0.6840 -0.8682  0.3265
 5102TIP3    H236798   2.666   1.685   1.431 -0.3616  0.2980 -0.2972
 5103TIP3   OH236799   6.333   6.006   2.721  0.5497 -0.0771  0.5484
 5103TIP3    H136800   6.332   6.018   2.626  3.2748  0.2313  0.4780
 5103TIP3    H236801   6.245   6.031   2.750 -0.1853  0.2893 -1.8204
 5104TIP3   OH236802   2.259   6.426   4.755 -0.2249 -0.2426  0.2186
 5104TIP3    H136803   2.248   6.502   4.812  1.8013  0.1650  0.1553
 5104TIP3    H236804   2.177   6.420   4.706 -1.2775  0.5348  1.8027
 5105TIP3   OH236805   1.601   0.003  11.300  0.2275 -0.0145  0.1221
 5105TIP3    H136806   1.654   0.010  11.221 -0.3273  2.7808 -0.1263
 5105TIP3    H236807   1.664  -0.006  11.371  0.8157 -0.8260 -0.4950
 5106TIP3   OH236808   3.514   0.659  13.331 -0.4499 -0.2022 -0.0468
 5106TIP3    H136809   3.516   0.583  13.272  1.2503  1.3804 -2.1937
 5106TIP3    H236810   3.424   0.691  13.325 -1.5975 -2.7091  1.9528
 5107TIP3   OH236811   4.018   5.905  12.960 -0.3328 -0.1083  0.0477
 5107TIP3    H136812   4.040   5.977  12.902  1.5545 -0.4783  0.2650
 5107TIP3    H236813   4.036   5.938  13.048  0.1924 -0.7156  0.1748
 5108TIP3   OH236814   4.221   3.107   1.997 -0.4195 -0.2276 -0.7770
 5108TIP3    H136815   4.271   3.120   1.917 -0.1229 -0.2442 -0.5959
 5108TIP3    H236816   4.246   3.020   2.028  0.9761  0.5345  0.3734
 5109TIP3   OH236817   6.354   2.079  15.617  0.1965  0.1381 -0.1439
 5109TIP3    H136818   6.266   2.073  15.655  1.3935 -2.4502  2.5866
 5109TIP3    H236819   6.347   2.034  15.533 -1.2111  0.5801 -0.2904
 5110TIP3   OH236820   3.862   0.782  13.782  0.1374 -0.1754  0.5591
 5110TIP3    H136821   3.767   0.766  13.784  0.0810  0.2142  1.7566
 5110TIP3    H236822   3.901   0.695  13.788 -0.1560 -0.2619  1.3769
 5111TIP3   OH236823   2.171   6.425   1.914  0.0643 -0.0292  0.2374
 5111TIP3    H136824   2.211   6.436   1.827 -0.0121 -0.2950  0.1686
 5111TIP3    H236825   2.080   6.403   1.896  0.0016  0.1021  0.3895
 5112TIP3   OH236826   2.324   6.656   5.155  0.1666  0.2141 -0.2701
 5112TIP3    H136827   2.283   6.714   5.219 -0.4525 -2.4314  1.8975
 5112TIP3    H236828   2.418   6.669   5.168  0.1084  2.2886 -1.4321
 5113TIP3   OH236829   1.324   3.333   0.427 -0.4911 -0.1660 -0.5527
 5113TIP3    H136830   1.281   3.248   0.431  0.1944 -0.5005 -0.0818
 5113TIP3    H236831   1.283   3.378   0.353 -3.2399  0.4306  1.2113
 5114TIP3   OH236832   0.391   2.510   4.508 -0.0131  0.2400 -0.1864
 5114TIP3    H136833   0.392   2.603   4.483 -1.4196  0.3190  0.0249
 5114TIP3    H236834   0.319   2.472   4.458  2.3327 -1.4432 -2.6040
 5115TIP3   OH236835   4.898   0.777   0.134  0.0398  0.3558  0.1217
 5115TIP3    H136836   4.983   0.747   0.102 -0.4754  0.4606 -1.4390
 5115TIP3    H236837   4.914   0.865   0.168  0.7417 -0.0244  0.8014
 5116TIP3   OH236838   1.213   2.313   2.157  0.6135  0.0333 -0.1562
 5116TIP3    H136839   1.189   2.232   2.201 -0.4767  0.9152  0.9450
 5116TIP3    H236840   1.306   2.325   2.177 -0.1133  1.1007  3.2063
 5117TIP3   OH236841   1.244   4.703  13.457 -0.1556 -0.7093  0.4413
 5117TIP3    H136842   1.240   4.715  13.552 -0.5256  1.4858  0.2041
 5117TIP3    H236843   1.330   4.664  13.441  0.9502  1.1682  1.5040
 5118TIP3   OH236844   2.901   0.112  15.142  0.0796 -0.2826  0.7199
 5118TIP3    H136845   2.952   0.192  15.156  0.0037 -0.3408  1.3282
 5118TIP3    H236846   2.966   0.046  15.116  0.0057  0.2613 -0.9979
 5119TIP3   OH236847   6.305   4.139  15.470 -0.0507 -0.0308  0.1757
 5119TIP3    H136848   6.280   4.076  15.403 -1.9295 -2.1602  2.6485
 5119TIP3    H236849   6.344   4.085  15.540 -2.3397  1.3187  2.7011
 5120TIP3   OH236850   4.866   0.977  13.722 -0.2446 -0.1297 -0.0566
 5120TIP3    H136851   4.922   0.899  13.717  1.5711  1.1237 -0.2044
 5120TIP3    H236852   4.922   1.045  13.759 -2.6342  0.4036  3.0747
 5121TIP3   OH236853   3.003   2.824  12.933 -0.5150 -0.0960  0.1901
 5121TIP3    H136854   3.082   2.825  12.879 -0.5024 -0.0978  0.2086
 5121TIP3    H236855   2.986   2.731  12.949 -0.3717 -0.0858  0.4060
 5122TIP3   OH236856   6.341   6.316   1.579 -0.3398 -0.2364  0.1497
 5122TIP3    H136857   6.269   6.332   1.517  0.2944  1.6788 -0.1503
 5122TIP3    H236858   6.389   6.243   1.541  0.4702  1.3560 -2.1174
 5123TIP3   OH236859   1.623   1.385   1.725  0.4381  0.6985  0.6061
 5123TIP3    H136860   1.620   1.290   1.729 -0.3733  0.7595  1.7578
 5123TIP3    H236861   1.630   1.404   1.631 -0.5033 -0.4676  0.2701
 5124TIP3   OH236862   0.971   5.345  14.798  0.8846 -0.5052  0.0486
 5124TIP3    H136863   1.021   5.319  14.720  1.2315 -0.6636  0.3197
 5124TIP3    H236864   1.035   5.390  14.853  0.2373  1.1776 -0.5250
 5125TIP3   OH236865   5.792   2.500  12.071 -0.5063 -0.3615  0.5352
 5125TIP3    H136866   5.815   2.556  11.997 -0.7639 -0.6627  0.2212
 5125TIP3    H236867   5.727   2.551  12.120  2.5016  1.5786  2.8207
 5126TIP3   OH236868   3.185   2.923   4.005 -0.0786  0.0991 -0.3511
 5126TIP3    H136869   3.135   3.005   4.008 -0.7347 -0.2410  3.5292
 5126TIP3    H236870   3.133   2.866   3.949 -2.7243  0.6738  1.2967
 5127TIP3   OH236871   2.908   3.830  16.571 -0.2295 -0.1200  0.1375
 5127TIP3    H136872   2.918   3.861  16.481 -2.2507 -1.3185 -0.5842
 5127TIP3    H236873   2.921   3.908  16.625 -0.9253  1.0604 -1.3204
 5128TIP3   OH236874   1.012   0.809   0.273 -0.6612  0.0003  0.1148
 5128TIP3    H136875   1.039   0.894   0.309  1.3151 -0.3423 -0.4004
 5128TIP3    H236876   1.030   0.746   0.343  1.0491 -0.3746 -0.6078
 5129TIP3   OH236877   4.291   4.718   5.132 -0.0946  0.2374  0.3696
 5129TIP3    H136878   4.315   4.629   5.107  1.2617  0.9107 -0.9245
 5129TIP3    H236879   4.266   4.712   5.225 -0.1241 -1.4861  0.2688
 5130TIP3   OH236880   2.518   0.624  11.021  0.7337  0.5336  0.2549
 5130TIP3    H136881   2.450   0.646  11.085  0.7283  0.8945  0.1274
 5130TIP3    H236882   2.514   0.529  11.014  1.4143  0.3982  1.5452
 5131TIP3   OH236883   6.684   5.101  15.336 -0.2123  0.0585 -0.2355
 5131TIP3    H136884   6.666   5.061  15.251  1.3483  1.6124 -1.3629
 5131TIP3    H236885   6.665   5.194  15.322 -0.5121  0.2499  1.3189
 5132TIP3   OH236886   0.784   2.282   0.672 -0.6364  0.3293  0.2269
 5132TIP3    H136887   0.731   2.232   0.611  0.2747 -1.1823  0.6261
 5132TIP3    H236888   0.807   2.220   0.741 -0.5558  1.6534  1.4476
 5133TIP3   OH236889   0.711   1.502  13.875  0.5238 -0.2886  0.3316
 5133TIP3    H136890   0.800   1.536  13.881  0.2850  0.1121  2.1750
 5133TIP3    H236891   0.662   1.571  13.830  0.5161  0.9152  2.0899
 5134TIP3   OH236892   4.441   0.273  11.474 -0.2923  0.4239 -0.9295
 5134TIP3    H136893   4.394   0.218  11.411  0.2823  1.8096 -2.6441
 5134TIP3    H236894   4.410   0.362  11.457 -0.5806  0.7736  1.2094
 5135TIP3   OH236895   2.160   3.551   3.783  0.6507  0.5839 -0.2487
 5135TIP3    H136896   2.235   3.492   3.777  0.5240  0.4568 -0.6491
 5135TIP3    H236897   2.197   3.638   3.773  0.7806  0.5403 -0.1496
 5136TIP3   OH236898   0.760   4.524  13.266  0.0648  0.1042 -0.3201
 5136TIP3    H136899   0.757   4.431  13.284 -2.8858  0.2709  0.5499
 5136TIP3    H236900   0.762   4.530  13.170 -1.8007 -0.8993 -0.4543
 5137TIP3   OH236901   5.941   3.184   3.578  0.3039 -0.1793 -0.2622
 5137TIP3    H136902   6.027   3.220   3.559  0.4521 -0.6630 -0.5101
 5137TIP3    H236903   5.955   3.126   3.652  0.2301 -0.4245 -0.4398
 5138TIP3   OH236904   2.602   3.259   2.012  0.2973 -0.1655  0.0202
 5138TIP3    H136905   2.581   3.172   1.978  2.0164 -1.4673  2.0193
 5138TIP3    H236906   2.628   3.309   1.935 -1.2918 -1.1812 -1.2603
 5139TIP3   OH236907   1.826   6.145   3.903  0.0492  0.0685  0.3645
 5139TIP3    H136908   1.888   6.079   3.935  0.5725  0.0816 -0.5889
 5139TIP3    H236909   1.768   6.096   3.845 -0.1658  0.2706  0.4081
 5140TIP3   OH236910   2.901   2.334   5.390  0.3877 -0.0601  0.3959
 5140TIP3    H136911   2.897   2.392   5.313  0.7220  1.1813  1.2886
 5140TIP3    H236912   2.811   2.303   5.401  0.2588  0.0712 -0.2518
 5141TIP3   OH236913   0.862   0.322  11.586 -0.5607  0.1574  0.2220
 5141TIP3    H136914   0.770   0.299  11.601 -1.6208  2.0682 -2.6125
 5141TIP3    H236915   0.883   0.383  11.656 -1.5289 -0.1526  0.8031
 5142TIP3   OH236916   6.299   4.387   4.544 -0.0931  0.5298  0.2067
 5142TIP3    H136917   6.217   4.377   4.495 -1.1689 -1.2569  2.2290
 5142TIP3    H236918   6.367   4.368   4.479 -1.3303  0.5459 -1.1602
 5143TIP3   OH236919   3.418   5.712   3.141  0.1728 -0.4139  0.5543
 5143TIP3    H136920   3.437   5.622   3.115 -0.6675 -0.8024  1.2479
 5143TIP3    H236921   3.503   5.748   3.165  0.4013 -1.3074  1.1225
 5144TIP3   OH236922   5.045   6.522  10.798 -0.1954 -0.2940  0.1144
 5144TIP3    H136923   4.972   6.504  10.739  0.3213 -1.6347 -0.1609
 5144TIP3    H236924   5.109   6.568  10.744 -0.4057 -0.0559  0.0693
 5145TIP3   OH236925   0.521   4.291  12.395  0.0277 -0.5074 -0.1160
 5145TIP3    H136926   0.571   4.345  12.333 -1.7131  1.7990  0.3326
 5145TIP3    H236927   0.549   4.323  12.481 -0.3931 -0.9612  0.1951
 5146TIP3   OH236928   0.396   2.135  10.650 -0.0524  0.1372  0.0042
 5146TIP3    H136929   0.390   2.229  10.631 -1.1008 -0.1452 -1.1901
 5146TIP3    H236930   0.307   2.109  10.673  0.2244 -0.5807  0.2879
 5147TIP3   OH236931   0.098   2.968  16.851  0.0064 -0.3991  0.3304
 5147TIP3    H136932   0.030   2.968  16.919  0.8277  0.0604  1.1792
 5147TIP3    H236933   0.138   3.055  16.858 -0.2653 -0.1259 -1.1423
 5148TIP3   OH236934   2.030   6.462   3.203 -0.1482  0.5353 -0.3761
 5148TIP3    H136935   2.101   6.525   3.193  0.0798  0.1978 -0.9267
 5148TIP3    H236936   2.047   6.420   3.287 -0.2815  1.1797 -0.0229
 5149TIP3   OH236937   4.436   4.970  13.405  0.0363  0.5726  0.2332
 5149TIP3    H136938   4.493   5.031  13.453  0.5789 -0.3664  0.8304
 5149TIP3    H236939   4.399   5.022  13.334  1.8003  1.1787 -0.2930
 5150TIP3   OH236940   4.342   1.328  16.538  0.0931  0.0759  0.4558
 5150TIP3    H136941   4.333   1.279  16.620  3.0729 -1.3064  0.1239
 5150TIP3    H236942   4.343   1.260  16.470  3.2430  0.5178 -0.1217
 5151TIP3   OH236943   1.978   2.972   0.846 -0.0069  0.4997 -0.3911
 5151TIP3    H136944   1.949   3.062   0.832 -1.6772  0.5239  2.4664
 5151TIP3    H236945   2.073   2.979   0.859  0.1382  1.5735 -1.7813
 5152TIP3   OH236946   6.431   0.737  15.207  0.0739  0.0318  0.0480
 5152TIP3    H136947   6.408   0.796  15.279  2.9447 -1.2840  2.2281
 5152TIP3    H236948   6.355   0.680  15.198  0.0383 -0.5260  2.9142
 5153TIP3   OH236949   3.609   6.228  11.489  0.1304 -0.1099  0.1211
 5153TIP3    H136950   3.556   6.195  11.417 -0.2469 -1.2205  0.8908
 5153TIP3    H236951   3.669   6.157  11.509  0.7482  0.4825  0.4155
 5154TIP3   OH236952   2.358   2.944   2.507  0.3131  0.0106 -0.4607
 5154TIP3    H136953   2.389   2.858   2.477  0.3859 -0.2407  0.3172
 5154TIP3    H236954   2.266   2.946   2.479  0.6745  0.2536 -1.6860
 5155TIP3   OH236955   1.965   0.138  11.995 -0.1945 -0.4134  0.3767
 5155TIP3    H136956   1.948   0.230  12.016  1.9544 -0.1457  1.1733
 5155TIP3    H236957   1.916   0.088  12.061 -0.7971  0.1540  0.3718
 5156TIP3   OH236958   5.884   3.420   4.965  0.8302 -0.3500  0.1562
 5156TIP3    H136959   5.876   3.380   4.878 -0.0572  0.4495 -0.1542
 5156TIP3    H236960   5.854   3.510   4.952  1.7031  0.0811  1.0776
 5157TIP3   OH236961   1.146   4.387   3.931  0.2629 -0.1652  0.0589
 5157TIP3    H136962   1.060   4.411   3.966  0.0947 -1.0050  0.2292
 5157TIP3    H236963   1.180   4.321   3.992  0.7934 -0.2466 -0.3154
 5158TIP3   OH236964   3.250   4.819   5.555 -0.3667  0.4461 -0.7035
 5158TIP3    H136965   3.222   4.823   5.646  1.0258 -1.8586 -0.0716
 5158TIP3    H236966   3.170   4.805   5.505 -1.2688  2.7326  0.0044
 5159TIP3   OH236967   0.922   0.621   3.816  0.3160  0.1559  0.1584
 5159TIP3    H136968   0.996   0.569   3.784  0.0804  0.2623 -0.5866
 5159TIP3    H236969   0.899   0.677   3.742 -0.7330 -0.1233  0.2597
 5160TIP3   OH236970   0.653   2.524   5.791 -0.4700 -0.2637 -0.5117
 5160TIP3    H136971   0.631   2.577   5.868 -1.0097  0.3688 -1.0859
 5160TIP3    H236972   0.587   2.548   5.726 -1.2803 -2.3281 -0.5071
 5161TIP3   OH236973   4.680   1.127  12.065  0.2601  0.1811  0.5237
 5161TIP3    H136974   4.725   1.192  12.120  1.0095 -0.0339  0.1806
 5161TIP3    H236975   4.666   1.172  11.982  0.8176 -0.1018  0.2712
 5162TIP3   OH236976   2.309   5.672  12.293 -0.5735 -0.4670 -0.4125
 5162TIP3    H136977   2.324   5.582  12.321  0.5382 -0.5871 -1.3190
 5162TIP3    H236978   2.396   5.712  12.294 -0.7353 -0.0118 -1.9966
 5163TIP3   OH236979   3.804   2.097   0.387 -0.0667  0.1026 -0.1284
 5163TIP3    H136980   3.852   2.121   0.308  1.3007 -0.6611  0.4181
 5163TIP3    H236981   3.851   2.020   0.420 -1.8709 -0.8832  0.2988
 5164TIP3   OH236982   3.665   4.235   4.080 -0.1029 -0.0298  0.8360
 5164TIP3    H136983   3.726   4.209   4.011 -3.0156 -0.8260 -1.6594
 5164TIP3    H236984   3.647   4.327   4.062 -2.9756 -0.8820 -1.4660
 5165TIP3   OH236985   3.407   0.131   1.363  0.1958 -1.1398  0.3799
 5165TIP3    H136986   3.428   0.039   1.381  1.8660 -1.0394 -0.7851
 5165TIP3    H236987   3.312   0.134   1.361  0.0427 -3.4420 -2.1082
 5166TIP3   OH236988   3.028   5.386   4.549  0.4802  0.1211  0.5055
 5166TIP3    H136989   3.097   5.389   4.615  0.1664 -0.7940  0.8995
 5166TIP3    H236990   3.023   5.475   4.514  2.1219  0.1112  0.1942
 5167TIP3   OH236991   5.696   3.679  11.641 -0.5558  0.6393 -0.6296
 5167TIP3    H136992   5.690   3.767  11.678 -0.9365  0.3157  0.0947
 5167TIP3    H236993   5.781   3.647  11.669 -0.1752  0.9801 -1.3685
 5168TIP3   OH236994   1.862   4.777  15.052  0.2728  0.4073  0.0064
 5168TIP3    H136995   1.834   4.745  14.966  1.0339 -0.1307 -0.0622
 5168TIP3    H236996   1.861   4.872  15.045  1.5154  0.3740 -1.0237
 5169TIP3   OH236997   3.493   4.592   4.837  0.1793  0.2058 -0.2916
 5169TIP3    H136998   3.578   4.549   4.837 -0.0955 -0.3457 -0.5332
 5169TIP3    H236999   3.471   4.602   4.744  0.3497  1.1061 -0.2495
 5170TIP3   OH237000   5.343   3.825   5.828 -0.0451  0.1798  0.0179
 5170TIP3    H137001   5.365   3.814   5.920 -0.9826 -0.1025  0.2183
 5170TIP3    H237002   5.428   3.837   5.784  0.4451 -0.2566  0.8293
 5171TIP3   OH237003   0.671   5.624  16.125  0.1022  0.2998  0.4630
 5171TIP3    H137004   0.581   5.649  16.144 -0.5149  0.0698 -1.9220
 5171TIP3    H237005   0.710   5.704  16.088  0.4409 -0.0038  0.1603
 5172TIP3   OH237006   4.334   1.500   2.480 -0.1074 -0.7582 -0.2086
 5172TIP3    H137007   4.284   1.418   2.487  0.4377 -1.0846 -0.0729
 5172TIP3    H237008   4.289   1.561   2.538 -3.1763  0.4290 -3.4065
 5173TIP3   OH237009   4.988   4.889  12.193  0.6671 -0.4557  0.2857
 5173TIP3    H137010   4.985   4.906  12.287  1.2952 -0.2860  0.2756
 5173TIP3    H237011   4.918   4.825  12.178 -0.2962  0.4845  0.6565
 5174TIP3   OH237012   6.082   4.372   4.373 -0.0626 -0.2377 -0.1783
 5174TIP3    H137013   6.043   4.304   4.318 -2.3865 -0.1658  1.2560
 5174TIP3    H237014   6.010   4.403   4.429  1.1522  2.6533 -0.0097
 5175TIP3   OH237015   3.837   2.328   3.676  0.3445  0.4515  0.3212
 5175TIP3    H137016   3.826   2.326   3.581 -0.5213 -1.0950  0.4107
 5175TIP3    H237017   3.850   2.236   3.700 -0.9968  0.6175  1.8352
 5176TIP3   OH237018   5.785   1.500  15.810 -0.3102  0.3084  0.0358
 5176TIP3    H137019   5.795   1.413  15.848  0.8293  0.8697  1.1114
 5176TIP3    H237020   5.863   1.548  15.840 -0.2616  1.3187 -1.5767
 5177TIP3   OH237021   0.440   3.153   6.667  0.3572 -0.0101  0.1696
 5177TIP3    H137022   0.487   3.236   6.666 -0.1751  0.3131  0.7198
 5177TIP3    H237023   0.454   3.116   6.580  0.9592  0.4490  0.0618
 5178TIP3   OH237024   6.674   3.387   1.233 -0.1816 -0.7156  0.1364
 5178TIP3    H137025   6.693   3.336   1.311 -0.6247 -1.2954 -0.1313
 5178TIP3    H237026   6.615   3.456   1.262  2.4768  1.3498  1.0744
 5179TIP3   OH237027   1.707   2.695  11.348 -0.5313 -0.3367  0.2280
 5179TIP3    H137028   1.740   2.654  11.268 -0.7005 -0.8196  0.4025
 5179TIP3    H237029   1.615   2.712  11.329  0.3116  3.7110 -1.3891
 5180TIP3   OH237030   5.252   2.802   3.658 -0.4908  0.1480  0.4986
 5180TIP3    H137031   5.345   2.825   3.658  0.0850 -1.5398 -2.7340
 5180TIP3    H237032   5.242   2.742   3.732  1.4732 -0.9869 -0.0773
 5181TIP3   OH237033   6.636   6.129  16.935  0.0493 -0.0210 -0.0386
 5181TIP3    H137034   6.694   6.102  17.005 -0.9235 -0.9060  0.4515
 5181TIP3    H237035   6.548   6.123  16.973 -0.7049 -2.6946 -1.9416
 5182TIP3   OH237036   0.122   1.412  15.059  0.5592  0.4493 -0.0198
 5182TIP3    H137037   0.178   1.354  15.110  0.0121  0.5745  0.7399
 5182TIP3    H237038   0.178   1.487  15.039  1.5745 -0.7102 -1.8323
 5183TIP3   OH237039   6.824   0.906  11.092 -0.2390  0.1730  0.3166
 5183TIP3    H137040   6.808   0.851  11.015  1.4381  0.7327 -0.4654
 5183TIP3    H237041   6.911   0.882  11.122 -0.7689  0.1279  1.9437
 5184TIP3   OH237042   5.726   3.280   5.190 -0.3162 -0.8703 -0.5853
 5184TIP3    H137043   5.790   3.330   5.241 -0.7348 -0.8081 -0.1114
 5184TIP3    H237044   5.750   3.296   5.099 -3.1148  3.9568 -0.8090
 5185TIP3   OH237045   5.388   1.799  14.916 -0.1948 -0.0294 -0.0641
 5185TIP3    H137046   5.471   1.832  14.883  0.7393  0.3061  2.4488
 5185TIP3    H237047   5.405   1.707  14.938 -0.7542 -0.2065 -0.3349
 5186TIP3   OH237048   0.168   2.500   3.898  0.1777 -0.3293  0.2508
 5186TIP3    H137049   0.240   2.564   3.904  1.0301 -0.9994 -1.8395
 5186TIP3    H237050   0.120   2.511   3.980  1.5092  1.5248  0.8720
 5187TIP3   OH237051   4.061   0.868  13.191  0.5030  0.2987  0.4140
 5187TIP3    H137052   4.145   0.901  13.157 -0.4656  0.2836 -2.1860
 5187TIP3    H237053   3.996   0.897  13.128 -0.9632 -3.1059  0.1410
 5188TIP3   OH237054   0.407   3.335   4.492  0.2470 -0.3480  0.6290
 5188TIP3    H137055   0.316   3.346   4.520 -0.2162 -0.6367 -0.6555
 5188TIP3    H237056   0.417   3.395   4.418  0.2088 -2.2863 -1.0594
 5189TIP3   OH237057   1.049   2.766   4.005  0.2357  0.1176 -0.2993
 5189TIP3    H137058   1.057   2.682   3.959 -0.5444  0.0669 -0.3488
 5189TIP3    H237059   1.046   2.742   4.097  0.0768  0.0959 -0.3102
 5190TIP3   OH237060   2.447   2.393  12.607  0.0216 -0.3039  0.2689
 5190TIP3    H137061   2.382   2.323  12.604 -1.1361  0.7649 -0.9053
 5190TIP3    H237062   2.486   2.394  12.520  0.3988  0.1618  0.4375
 5191TIP3   OH237063   6.598   1.987  15.275  0.3135 -0.0296 -0.0682
 5191TIP3    H137064   6.563   2.075  15.289  1.9671  0.9634 -1.7524
 5191TIP3    H237065   6.686   1.990  15.314  0.4862 -0.8606 -0.3674
 5192TIP3   OH237066   3.161   3.579   2.231  0.4489 -0.1066 -0.0325
 5192TIP3    H137067   3.071   3.572   2.263  0.0459  0.1149 -1.0740
 5192TIP3    H237068   3.159   3.537   2.145  1.2146  0.3878 -0.3004
 5193TIP3   OH237069   2.128   5.680  11.243 -0.6744  0.2278  0.2094
 5193TIP3    H137070   2.055   5.618  11.240  0.6170 -1.3223 -0.5454
 5193TIP3    H237071   2.199   5.636  11.198  0.7086  1.7578  0.7929
 5194TIP3   OH237072   1.028   3.367  14.277 -0.1630  0.1993  0.1636
 5194TIP3    H137073   0.995   3.300  14.217  0.5884 -1.2737  1.3308
 5194TIP3    H237074   1.091   3.417  14.226 -1.8614  1.0918 -1.1932
 5195TIP3   OH237075   4.863   4.164  13.762 -0.6658 -0.5916  0.3050
 5195TIP3    H137076   4.880   4.134  13.851 -0.1335 -1.9553 -0.2311
 5195TIP3    H237077   4.775   4.201  13.766 -1.0991 -1.6578  1.1596
 5196TIP3   OH237078   6.786   3.920  12.351 -0.6116  0.2895  0.5245
 5196TIP3    H137079   6.745   3.892  12.432  0.1607 -2.9994 -0.0939
 5196TIP3    H237080   6.873   3.881  12.352  0.4327  2.4011 -0.7221
 5197TIP3   OH237081   1.166   5.884  15.526 -0.8470  0.1855  0.0775
 5197TIP3    H137082   1.088   5.930  15.559 -0.4318  0.2265  1.0522
 5197TIP3    H237083   1.194   5.830  15.600 -0.4389 -0.4758 -0.5484
 5198TIP3   OH237084   0.965   5.726   4.249  0.2259 -0.1631 -0.6966
 5198TIP3    H137085   1.057   5.702   4.258  0.8294  1.6161 -1.5511
 5198TIP3    H237086   0.948   5.723   4.155 -0.8534 -1.3111 -0.4845
 5199TIP3   OH237087   6.164   0.846  17.064  0.0341  0.3514 -0.0967
 5199TIP3    H137088   6.080   0.858  17.109  0.0660 -0.2484  0.1298
 5199TIP3    H237089   6.228   0.885  17.122  0.0295 -0.0834  0.2016
 5200TIP3   OH237090   0.016   1.075  15.095  0.1796  0.4615 -0.1819
 5200TIP3    H137091   0.072   1.134  15.145  1.0094 -0.8956  0.5321
 5200TIP3    H237092  -0.006   1.004  15.156  1.4037 -1.3653 -1.7365
 5201TIP3   OH237093   1.483   3.634  12.581  0.3391  0.5201 -0.4776
 5201TIP3    H137094   1.575   3.662  12.578  0.2290  1.7099  2.6829
 5201TIP3    H237095   1.440   3.701  12.634 -1.5455 -1.9015  1.2862
 5202TIP3   OH237096   1.432   2.981   6.283  0.8232  0.8001 -0.6915
 5202TIP3    H137097   1.434   2.896   6.328  1.1243  1.7303  1.1336
 5202TIP3    H237098   1.344   3.015   6.300 -0.2355 -0.1916 -3.5910
 5203TIP3   OH237099   5.960   4.306   4.849  0.8778  0.4041  0.1409
 5203TIP3    H137100   5.943   4.247   4.775  1.0289 -0.7277  0.9885
 5203TIP3    H237101   5.951   4.394   4.812  0.4924 -0.1446 -1.1148
 5204TIP3   OH237102   4.186   3.814   2.352 -0.0753  0.6211  0.0354
 5204TIP3    H137103   4.226   3.833   2.436 -0.0871 -2.1426  0.7347
 5204TIP3    H237104   4.102   3.774   2.373 -1.0171  1.7382 -1.3612
 5205TIP3   OH237105   0.417   2.008   0.126  0.4677 -0.3053  0.1205
 5205TIP3    H137106   0.360   1.931   0.118  1.9530 -1.3478 -0.9144
 5205TIP3    H237107   0.359   2.082   0.107 -0.7837 -1.2242  0.1829
 5206TIP3   OH237108   1.054   3.769  14.904  0.4653  0.5604 -0.5992
 5206TIP3    H137109   0.966   3.808  14.901 -0.1535 -0.8031 -2.0979
 5206TIP3    H237110   1.105   3.822  14.843  0.6918  1.3514  0.2674
 5207TIP3   OH237111   5.935   2.167   1.365 -0.1473 -0.3806  0.2021
 5207TIP3    H137112   5.871   2.217   1.313  1.7082  1.9842  0.0362
 5207TIP3    H237113   6.017   2.216   1.356  0.9603 -1.5235  3.0004
 5208TIP3   OH237114   5.110   4.766  12.751  0.1893  0.0821 -0.6606
 5208TIP3    H137115   5.105   4.782  12.657 -0.3557 -0.3975 -0.7142
 5208TIP3    H237116   5.020   4.774  12.782  0.5643  1.9454  0.1088
 5209TIP3   OH237117   4.486   5.020  11.971 -0.5083  0.4125 -0.5092
 5209TIP3    H137118   4.411   5.067  11.936  0.2875  0.6899 -1.9400
 5209TIP3    H237119   4.507   4.955  11.904  0.8890  0.7465 -0.4315
 5210TIP3   OH237120   5.343   0.379  10.655  0.4032  0.6030 -0.0567
 5210TIP3    H137121   5.275   0.392  10.721 -0.9556 -1.2758 -0.9789
 5210TIP3    H237122   5.399   0.456  10.662 -2.1112  2.5329  0.4075
 5211TIP3   OH237123   5.754   4.668   1.577 -0.7488  0.3969 -0.5139
 5211TIP3    H137124   5.847   4.678   1.554 -0.7864 -0.6929 -1.2283
 5211TIP3    H237125   5.754   4.655   1.671  0.0049 -1.2061 -0.6923
 5212TIP3   OH237126   3.197   3.400  12.879 -0.2959 -0.6381  0.4890
 5212TIP3    H137127   3.274   3.348  12.856 -0.7266 -2.1334  2.1880
 5212TIP3    H237128   3.232   3.476  12.927  0.2187 -0.2781 -0.4311
 5213TIP3   OH237129   5.945   6.707   2.758 -0.6037  0.4611  0.1126
 5213TIP3    H137130   5.896   6.788   2.741  1.0216  1.8210  1.5705
 5213TIP3    H237131   5.908   6.673   2.839 -1.2790 -0.2980 -0.4951
 5214TIP3   OH237132   3.931   6.716  14.322 -1.4932 -0.6678  0.1153
 5214TIP3    H137133   3.994   6.771  14.369  0.0265 -0.1317 -2.3783
 5214TIP3    H237134   3.861   6.701  14.386 -1.4858  3.2100  1.3421
 5215TIP3   OH237135   3.266   6.548  11.826 -0.4078  0.1260 -0.2510
 5215TIP3    H137136   3.278   6.478  11.761 -1.2538  0.3208 -0.6309
 5215TIP3    H237137   3.349   6.551  11.874  0.7770  0.9260 -2.2428
 5216TIP3   OH237138   4.614   0.164   5.655  0.1055  0.8229  0.2575
 5216TIP3    H137139   4.585   0.238   5.708 -0.7404  0.4479  0.3381
 5216TIP3    H237140   4.647   0.101   5.719 -2.4571 -0.3319  0.5581
 5217TIP3   OH237141   4.207   0.383  12.679 -0.0926  0.0331 -0.5379
 5217TIP3    H137142   4.147   0.452  12.707  0.9522  1.0587 -0.7214
 5217TIP3    H237143   4.199   0.382  12.583 -0.1472 -0.1326 -0.5311
 5218TIP3   OH237144   6.478   6.502  14.433 -0.3767 -0.0252 -0.4126
 5218TIP3    H137145   6.397   6.545  14.406 -0.1029  0.1782 -0.9329
 5218TIP3    H237146   6.473   6.414  14.396 -0.1202  0.1658 -0.9061
 5219TIP3   OH237147   6.820   2.835   2.277 -0.0135 -0.2023 -0.3542
 5219TIP3    H137148   6.832   2.850   2.371  0.7657 -1.5848 -0.2163
 5219TIP3    H237149   6.816   2.923   2.240 -0.5113  0.3779  0.9814
 5220TIP3   OH237150   3.411   0.402   1.353 -0.3594 -0.0725 -0.0787
 5220TIP3    H137151   3.453   0.317   1.337  1.2705  0.8895 -1.1948
 5220TIP3    H237152   3.348   0.411   1.282  0.1404  0.0411 -0.5184
 5221TIP3   OH237153   2.833   3.383   2.372 -1.2107 -0.0243  0.0461
 5221TIP3    H137154   2.861   3.400   2.462 -2.6773  0.3895  0.4435
 5221TIP3    H237155   2.911   3.347   2.330 -0.4625 -0.1373  1.4486
 5222TIP3   OH237156   4.200   5.677   6.291  0.3806  0.4979  0.0936
 5222TIP3    H137157   4.189   5.731   6.213  1.5858  2.3189  1.1015
 5222TIP3    H237158   4.112   5.674   6.330 -0.2816 -0.6107 -1.3741
 5223TIP3   OH237159   0.390   5.873   1.471 -0.9542 -0.5696  0.0389
 5223TIP3    H137160   0.334   5.798   1.452 -0.9983 -0.0928 -1.8731
 5223TIP3    H237161   0.334   5.949   1.457 -0.5959 -0.1433  0.8751
 5224TIP3   OH237162   2.329   3.406   0.278 -0.6590 -0.2211  1.2498
 5224TIP3    H137163   2.314   3.347   0.204  1.2573  0.2255  0.4353
 5224TIP3    H237164   2.410   3.375   0.317 -0.0511  1.3431  1.3030
 5225TIP3   OH237165   6.481   0.940  11.019 -0.2059 -0.4764  0.5900
 5225TIP3    H137166   6.556   0.965  10.965 -0.4060 -0.8232  0.1512
 5225TIP3    H237167   6.420   1.013  11.010 -0.3065 -0.6063  0.2217
 5226TIP3   OH237168   0.887   6.048  12.994  0.8756 -0.1188  0.5967
 5226TIP3    H137169   0.873   6.142  13.005  0.5736 -0.1397  0.4094
 5226TIP3    H237170   0.949   6.025  13.062  1.4159  0.3333  0.2673
 5227TIP3   OH237171   0.751   1.390  12.959 -0.0997  1.2118  0.3173
 5227TIP3    H137172   0.813   1.317  12.974 -0.8584  0.7970  1.6450
 5227TIP3    H237173   0.730   1.384  12.866  0.2992  0.0866  0.2731
 5228TIP3   OH237174   5.603   5.492   2.006 -0.5795  0.0193 -0.3117
 5228TIP3    H137175   5.688   5.528   2.031 -1.9264  2.1176  1.6180
 5228TIP3    H237176   5.588   5.420   2.067 -0.8270  0.6171  0.3372
 5229TIP3   OH237177   5.907   3.132   0.008  0.1716  0.1868 -0.4074
 5229TIP3    H137178   5.818   3.123   0.043  0.1080 -1.0152 -0.8564
 5229TIP3    H237179   5.936   3.217   0.041 -0.6165 -0.0306  0.9393
 5230TIP3   OH237180   3.293   5.972  11.031 -0.1543 -0.3828  0.3834
 5230TIP3    H137181   3.347   5.896  11.054 -0.3807 -0.2288  1.4732
 5230TIP3    H237182   3.203   5.942  11.043 -0.7653 -1.9148 -5.0370
 5231TIP3   OH237183   1.778   0.654  10.587 -0.1262  0.2265  0.5345
 5231TIP3    H137184   1.794   0.566  10.621 -0.0874  0.5480  1.3591
 5231TIP3    H237185   1.866   0.690  10.572 -0.1328  0.3592  0.8116
 5232TIP3   OH237186   4.091   1.001   3.837 -0.9091 -0.2742 -0.0679
 5232TIP3    H137187   4.044   1.009   3.920 -1.9037  0.9347 -0.7320
 5232TIP3    H237188   4.025   1.016   3.770  0.1202 -0.0568 -1.0574
 5233TIP3   OH237189   4.222   6.616  15.127 -0.2392  0.3276 -0.2251
 5233TIP3    H137190   4.132   6.602  15.095 -0.4749  1.5259 -0.1168
 5233TIP3    H237191   4.212   6.672  15.204  0.4365 -1.3817  1.1685
 5234TIP3   OH237192   6.063   1.068   4.448  0.2016 -0.1584 -0.7929
 5234TIP3    H137193   6.014   1.126   4.508  0.0072  0.9363 -1.9659
 5234TIP3    H237194   6.082   1.123   4.372  1.8207 -1.0622 -1.0810
 5235TIP3   OH237195   2.688   3.615  13.948  0.0908 -0.0964 -0.4265
 5235TIP3    H137196   2.602   3.648  13.921 -0.1276  1.7297  2.1344
 5235TIP3    H237197   2.673   3.579  14.035  2.3136  2.5682  1.1977
 5236TIP3   OH237198   3.892   0.221   4.112  0.6691 -0.2482  0.1610
 5236TIP3    H137199   3.890   0.281   4.037 -1.1779 -1.9267 -1.2167
 5236TIP3    H237200   3.873   0.277   4.187  0.5429  1.1418 -0.8573
 5237TIP3   OH237201   0.221   4.858   2.701  0.3268 -0.0983 -0.5166
 5237TIP3    H137202   0.276   4.841   2.777  3.1865  0.4871 -2.2976
 5237TIP3    H237203   0.249   4.792   2.636 -1.1679  0.1734 -1.5035
 5238TIP3   OH237204   2.547   1.985  14.366  0.3065 -0.6658 -0.0589
 5238TIP3    H137205   2.579   1.901  14.400  2.3670  0.0736 -0.0331
 5238TIP3    H237206   2.534   2.039  14.444 -0.7640 -0.8482 -0.0948
 5239TIP3   OH237207   4.281   1.455  16.871  0.0843  0.8794  0.0088
 5239TIP3    H137208   4.255   1.363  16.880  2.1697  0.2650  0.2064
 5239TIP3    H237209   4.239   1.483  16.789 -0.8099 -0.1520  0.0791
 5240TIP3   OH237210   2.046   2.924  15.792 -0.1263 -0.1036 -0.1551
 5240TIP3    H137211   2.037   2.994  15.728 -1.0054 -1.3126 -1.3997
 5240TIP3    H237212   2.140   2.907  15.796  0.1846  1.5966  0.7087
 5241TIP3   OH237213   2.258   2.002  12.190  0.5338  0.7137 -0.1455
 5241TIP3    H137214   2.194   2.008  12.261  0.4467 -0.0862 -0.1521
 5241TIP3    H237215   2.331   2.058  12.218  1.4847 -1.2968  1.6263
 5242TIP3   OH237216   1.296   4.764  13.731  0.1306  0.0082  0.0147
 5242TIP3    H137217   1.387   4.792  13.718  0.3756 -1.0800 -0.7288
 5242TIP3    H237218   1.254   4.839  13.773  1.5086  0.3208  0.9126
 5243TIP3   OH237219   1.845   1.159   1.054 -0.1779  0.1243  0.0348
 5243TIP3    H137220   1.772   1.154   1.115  0.6070 -0.4415  0.9709
 5243TIP3    H237221   1.853   1.071   1.018 -0.6799  0.4750 -0.9462
 5244TIP3   OH237222   4.671   5.883  14.059  0.2110 -0.1310 -0.3564
 5244TIP3    H137223   4.718   5.908  13.979  2.4459  3.3207  1.7782
 5244TIP3    H237224   4.603   5.950  14.069  0.9414  0.4152  1.3276
 5245TIP3   OH237225   4.684   4.261  11.574 -0.5956  0.1276  0.4252
 5245TIP3    H137226   4.642   4.203  11.510  1.4112  1.0628 -1.9188
 5245TIP3    H237227   4.628   4.338  11.578 -0.7188  0.0735 -0.2284
 5246TIP3   OH237228   5.091   2.248  11.497  0.2469 -0.5863 -0.3557
 5246TIP3    H137229   5.122   2.339  11.495 -0.9151 -0.1901 -1.0712
 5246TIP3    H237230   5.172   2.196  11.496  0.9317  0.4173 -2.1371
 5247TIP3   OH237231   2.732   5.013  14.812 -0.9351  0.5341  0.7429
 5247TIP3    H137232   2.809   4.960  14.833 -0.8403  0.3956  0.0652
 5247TIP3    H237233   2.687   4.963  14.744 -0.8875  1.2811  0.1470
 5248TIP3   OH237234   1.215   1.616  13.118 -0.2404  0.4930 -0.1269
 5248TIP3    H137235   1.293   1.672  13.121 -1.0655  1.6457  0.7233
 5248TIP3    H237236   1.212   1.584  13.028  1.1308  0.5247 -0.2118
 5249TIP3   OH237237   6.676   0.878  15.207 -0.1577 -0.8166 -0.1721
 5249TIP3    H137238   6.697   0.864  15.299  0.6514  0.6961 -0.0846
 5249TIP3    H237239   6.587   0.846  15.197 -0.8658  0.4528  1.5278
 5250TIP3   OH237240   2.196   0.151   1.954  0.0151  0.4538  0.3266
 5250TIP3    H137241   2.181   0.244   1.965 -1.7188  0.1228  1.1183
 5250TIP3    H237242   2.270   0.131   2.012  0.0525  1.2352  0.5607
 5251TIP3   OH237243   0.440   6.350   3.973  0.3146  0.5138 -0.0038
 5251TIP3    H137244   0.405   6.262   3.988  1.1716 -0.1044 -1.4464
 5251TIP3    H237245   0.429   6.395   4.057 -0.6349 -0.7904  0.6002
 5252TIP3   OH237246   0.761   6.568   3.251  0.0738 -0.5799 -0.0980
 5252TIP3    H137247   0.816   6.638   3.287  2.2946 -1.6294 -1.2612
 5252TIP3    H237248   0.776   6.494   3.310 -1.2688 -0.5091  0.3827
 5253TIP3   OH237249   6.245   2.338  11.965 -0.0241 -0.4428  0.0847
 5253TIP3    H137250   6.251   2.390  11.885  0.4464 -0.1418  0.3160
 5253TIP3    H237251   6.185   2.386  12.021 -1.8903 -1.5921 -0.7906
 5254TIP3   OH237252   3.989   3.715  12.429 -0.0444 -0.6776 -0.6185
 5254TIP3    H137253   3.961   3.803  12.455  1.7140  0.3150 -1.8816
 5254TIP3    H237254   4.085   3.718  12.436  0.1243 -2.0274 -2.0804
 5255TIP3   OH237255   1.750   0.709  13.323  0.0975 -0.6898 -0.2466
 5255TIP3    H137256   1.787   0.750  13.402 -0.4441 -0.5633 -0.0500
 5255TIP3    H237257   1.701   0.779  13.281 -1.6894 -1.3339  0.6219
 5256TIP3   OH237258   5.252   4.203   5.973 -0.5770  0.0225  0.4114
 5256TIP3    H137259   5.316   4.147   5.928 -0.7559 -0.1553  0.3817
 5256TIP3    H237260   5.305   4.256   6.032 -0.5658 -1.2695  1.5871
 5257TIP3   OH237261   5.085   0.421  15.510  0.4781 -0.2840  0.3865
 5257TIP3    H137262   5.016   0.487  15.503 -0.8758 -1.7342 -0.4477
 5257TIP3    H237263   5.095   0.407  15.604 -1.6011 -1.2439  0.5193
 5258TIP3   OH237264   1.885   1.312   2.311 -0.3168 -0.4691 -0.0867
 5258TIP3    H137265   1.974   1.292   2.281 -0.1327  0.6091 -0.3052
 5258TIP3    H237266   1.836   1.328   2.231 -0.4095  0.1002  0.0795
 5259TIP3   OH237267   5.127   4.234   5.056  0.3870 -0.3938  0.2624
 5259TIP3    H137268   5.201   4.195   5.102  0.2543 -0.6233  0.2837
 5259TIP3    H237269   5.144   4.216   4.964 -0.0060 -1.0772  0.3227
 5260TIP3   OH237270   2.352   1.260   6.422  0.0375 -0.3581  0.2562
 5260TIP3    H137271   2.267   1.290   6.453 -0.8520 -0.9290 -1.4710
 5260TIP3    H237272   2.413   1.329   6.448 -0.5626 -0.7906  3.1660
 5261TIP3   OH237273   4.452   0.075  12.353 -0.6933  0.2124  0.7470
 5261TIP3    H137274   4.358   0.073  12.373 -0.4442 -0.6739  1.8813
 5261TIP3    H237275   4.492   0.014  12.415  0.6439  0.5786  0.2838
 5262TIP3   OH237276   0.929   2.989  11.542 -0.1530 -0.6405  0.3498
 5262TIP3    H137277   1.014   3.011  11.504 -0.5958 -0.3424 -0.4895
 5262TIP3    H237278   0.920   2.895  11.531  0.3099 -0.7682  0.9702
 5263TIP3   OH237279   3.034   6.617  15.848  0.3088  0.0867  0.0340
 5263TIP3    H137280   2.945   6.634  15.876  0.8235 -0.2581  2.0314
 5263TIP3    H237281   3.041   6.521  15.847  0.9396  0.1106  0.9444
 5264TIP3   OH237282   5.573   1.527   1.948 -0.2749 -0.5927  0.3938
 5264TIP3    H137283   5.481   1.517   1.974 -0.5711  0.9303  0.0491
 5264TIP3    H237284   5.573   1.605   1.892  1.1452 -0.9151 -0.0941
 5265TIP3   OH237285   4.781   1.051  14.396 -0.1023  0.0845 -0.1005
 5265TIP3    H137286   4.859   1.062  14.450 -0.4478  0.5176  0.3250
 5265TIP3    H237287   4.795   1.110  14.321 -0.0514  0.2135  0.0099
 5266TIP3   OH237288   4.857   4.445   0.674  0.5020 -0.2872 -0.0873
 5266TIP3    H137289   4.927   4.489   0.626 -0.0540 -0.7454 -1.3579
 5266TIP3    H237290   4.785   4.509   0.676 -0.2281 -0.9955 -1.7448
 5267TIP3   OH237291   0.873   1.891  17.065 -0.4154 -0.5097  0.4870
 5267TIP3    H137292   0.834   1.899  16.978  2.0444  0.2575 -0.6271
 5267TIP3    H237293   0.799   1.899  17.126 -2.0785 -0.1567 -1.4958
 5268TIP3   OH237294   4.156   2.628   0.508 -0.5883  0.3472 -0.1615
 5268TIP3    H137295   4.081   2.597   0.560 -1.3961  0.1119 -1.4270
 5268TIP3    H237296   4.118   2.653   0.424  0.9219 -0.9299 -1.2781
 5269TIP3   OH237297   6.545   2.403   1.897 -0.5161 -0.4538 -0.3009
 5269TIP3    H137298   6.582   2.332   1.950 -0.6974 -0.3635 -0.0566
 5269TIP3    H237299   6.544   2.367   1.808 -0.0543 -0.5412 -0.2733
 5270TIP3   OH237300   3.155   2.642   1.888  0.4695  0.2789  0.1385
 5270TIP3    H137301   3.121   2.678   1.970  2.6489  1.2055  0.7259
 5270TIP3    H237302   3.139   2.548   1.895 -0.1467  0.4467  1.2389
 5271TIP3   OH237303   5.543   5.519  12.418 -0.9535 -0.6541 -0.0531
 5271TIP3    H137304   5.530   5.608  12.385 -0.0547 -0.1189  0.9815
 5271TIP3    H237305   5.616   5.485  12.367 -1.5471 -0.9525 -0.7185
 5272TIP3   OH237306   1.826   5.312   0.298 -0.0476 -0.3919  1.0103
 5272TIP3    H137307   1.916   5.285   0.313  1.1459  1.0204 -2.4680
 5272TIP3    H237308   1.830   5.408   0.293 -1.9134 -0.2370  1.5252
 5273TIP3   OH237309   0.301   1.519  10.409  0.3277 -0.1376  0.0660
 5273TIP3    H137310   0.339   1.486  10.327 -1.8960 -1.3176 -0.5505
 5273TIP3    H237311   0.262   1.603  10.386 -0.5633 -0.6119 -0.1656
 5274TIP3   OH237312   6.795   2.833  10.981  0.4748  0.2862  0.6603
 5274TIP3    H137313   6.767   2.769  10.915  0.9643  1.6907 -0.9653
 5274TIP3    H237314   6.887   2.810  10.998  0.4876  0.2085  0.4973
 5275TIP3   OH237315   0.256   3.385   5.516  0.4039  0.1043  0.2534
 5275TIP3    H137316   0.171   3.427   5.499  0.6558  0.7333  0.5316
 5275TIP3    H237317   0.318   3.458   5.519  1.0943 -0.4141 -0.7773
 5276TIP3   OH237318   3.758   1.205  13.264 -0.5166 -0.5234 -0.2583
 5276TIP3    H137319   3.755   1.191  13.359  0.0149  2.4423  0.3013
 5276TIP3    H237320   3.844   1.172  13.237  1.7183  3.2765  1.3670
 5277TIP3   OH237321   5.643   3.108   0.113  0.5336  0.2770 -0.2904
 5277TIP3    H137322   5.648   3.095   0.207  2.1254 -0.3113 -0.4169
 5277TIP3    H237323   5.597   3.191   0.102  1.7241  1.1559  1.0699
 5278TIP3   OH237324   1.795   2.007  11.567 -1.0987  0.4359 -0.4996
 5278TIP3    H137325   1.766   1.918  11.588 -1.1543  1.0110  2.2091
 5278TIP3    H237326   1.738   2.034  11.495 -0.2017 -2.1392 -2.2997
 5279TIP3   OH237327   0.764   4.157   3.577 -0.7581  0.1867  0.2791
 5279TIP3    H137328   0.714   4.077   3.567  3.0510 -2.5609  1.1249
 5279TIP3    H237329   0.834   4.135   3.638 -0.5241  4.7817  2.1408
 5280TIP3   OH237330   1.055   1.976   5.047  0.0113 -0.8820 -0.0925
 5280TIP3    H137331   1.120   1.932   5.102  1.3873 -1.3836 -2.0146
 5280TIP3    H237332   1.058   1.930   4.963  1.0815  2.3490 -2.0460
 5281TIP3   OH237333   2.507   4.395  13.634 -0.1544  0.2906  0.1754
 5281TIP3    H137334   2.459   4.362  13.710  0.0979  0.7497  0.5388
 5281TIP3    H237335   2.446   4.455  13.592  0.5670  1.9933  1.4457
 5282TIP3   OH237336   3.158   3.146  11.082  0.0255 -0.4022 -0.3808
 5282TIP3    H137337   3.184   3.059  11.114  2.6320  0.1989 -0.6467
 5282TIP3    H237338   3.082   3.169  11.136  1.6268 -1.2370  2.4872
 5283TIP3   OH237339   5.329   4.178   1.085 -0.3131 -0.2443 -0.1467
 5283TIP3    H137340   5.412   4.138   1.057 -0.2823  1.0239 -2.0971
 5283TIP3    H237341   5.308   4.134   1.167  2.5150 -0.2893  0.6664
 5284TIP3   OH237342   1.802   0.437  16.969 -0.4362  0.0786 -0.3962
 5284TIP3    H137343   1.741   0.363  16.959  0.1538 -0.2946 -1.3584
 5284TIP3    H237344   1.860   0.430  16.893 -1.2273  2.3542 -1.2882
 5285TIP3   OH237345   1.934   1.312   4.412 -0.5299  0.3252  0.2251
 5285TIP3    H137346   2.009   1.253   4.419 -0.8290 -0.0294  0.5188
 5285TIP3    H237347   1.870   1.264   4.359 -0.9218  0.2241  0.7809
 5286TIP3   OH237348   6.651   0.732   4.046  0.2091 -0.1422 -0.9108
 5286TIP3    H137349   6.658   0.657   4.104 -0.3368  0.3004 -0.2493
 5286TIP3    H237350   6.611   0.697   3.966 -1.1908 -0.3422 -0.1549
 5287TIP3   OH237351   3.238   2.641  16.194  0.0873  0.3365 -0.0269
 5287TIP3    H137352   3.202   2.561  16.155 -1.8220 -0.0960  2.3913
 5287TIP3    H237353   3.331   2.621  16.208  0.1442 -0.5731 -1.5083
 5288TIP3   OH237354   3.750   5.739  15.913 -0.0224  0.0158 -0.4474
 5288TIP3    H137355   3.792   5.697  15.988 -1.6838 -1.5614 -0.3341
 5288TIP3    H237356   3.780   5.830  15.918  0.2186 -0.1070  1.9185
 5289TIP3   OH237357   6.532   1.240   3.171  0.0649 -0.4480 -0.0976
 5289TIP3    H137358   6.625   1.223   3.154 -0.0585 -0.5088 -0.7164
 5289TIP3    H237359   6.493   1.251   3.084 -0.0686  1.9231  0.1939
 5290TIP3   OH237360   0.734   5.635  16.719  0.7327  0.2780  0.1092
 5290TIP3    H137361   0.702   5.609  16.806 -1.2599 -0.8726 -0.9128
 5290TIP3    H237362   0.792   5.563  16.693 -1.1404 -0.9972 -0.7680
 5291TIP3   OH237363   1.794   0.574   6.476 -0.2200 -0.0585  0.3685
 5291TIP3    H137364   1.817   0.665   6.455 -1.3129  0.1246 -0.0741
 5291TIP3    H237365   1.700   0.575   6.491 -0.2782 -1.1584  0.1838
 5292TIP3   OH237366   0.837   1.945  10.311 -0.5058 -0.4148 -0.4498
 5292TIP3    H137367   0.866   2.033  10.335 -1.5503 -0.5465  1.5210
 5292TIP3    H237368   0.867   1.889  10.383  1.1182 -1.9323 -2.1741
 5293TIP3   OH237369   0.312   0.044   0.845  0.2889 -0.1391 -0.5270
 5293TIP3    H137370   0.234   0.013   0.891  0.7695 -1.0182 -0.2723
 5293TIP3    H237371   0.319  -0.012   0.768  0.9453 -0.4146 -0.2779
 5294TIP3   OH237372   0.740   3.822   0.162 -0.0471 -0.1208 -0.5217
 5294TIP3    H137373   0.829   3.808   0.195 -0.2137 -0.5411 -0.2339
 5294TIP3    H237374   0.703   3.890   0.217 -0.1077 -0.3743 -0.2468
 5295TIP3   OH237375   5.334   5.811  10.718  0.5103  0.0376 -0.4222
 5295TIP3    H137376   5.314   5.815  10.625  0.1993 -1.3155 -0.4369
 5295TIP3    H237377   5.388   5.888  10.735 -1.4856  1.6839 -1.1897
 5296TIP3   OH237378   3.458   2.909  13.372  0.8872  0.3013  0.4634
 5296TIP3    H137379   3.453   2.951  13.458  1.7645 -1.0620  1.2197
 5296TIP3    H237380   3.543   2.937  13.337  0.1304  1.6211 -0.4199
 5297TIP3   OH237381   6.223   1.969   2.380 -0.3460  0.0635 -0.5271
 5297TIP3    H137382   6.220   1.928   2.294 -0.8169 -0.3802 -0.3111
 5297TIP3    H237383   6.308   1.945   2.415 -0.3092 -0.0871 -0.7163
 5298TIP3   OH237384   4.696   0.512  13.918  0.9010  0.5683 -0.2899
 5298TIP3    H137385   4.636   0.519  13.992  2.7349 -0.7296  1.4058
 5298TIP3    H237386   4.774   0.559  13.945  0.9562  1.6913 -2.2041
 5299TIP3   OH237387   4.727   4.964   0.315  0.3371  0.5642 -0.4418
 5299TIP3    H137388   4.777   4.893   0.356 -0.4015 -1.3883 -2.7215
 5299TIP3    H237389   4.637   4.933   0.316  0.4439 -0.5596 -5.0081
 5300TIP3   OH237390   6.772   1.750  16.899  0.0711 -0.0208 -0.6509
 5300TIP3    H137391   6.802   1.840  16.890 -0.2099  0.0531 -0.8656
 5300TIP3    H237392   6.850   1.696  16.886  0.4961  0.2235  0.6791
 5301TIP3   OH237393   1.341   4.341   0.025  0.0150  0.4621  0.4205
 5301TIP3    H137394   1.351   4.252  -0.008  1.5105  1.2029 -1.3333
 5301TIP3    H237395   1.253   4.343   0.063 -0.0062 -1.7656  0.6453
 5302TIP3   OH237396   6.774   3.683  12.027 -0.4939 -0.1363 -0.1317
 5302TIP3    H137397   6.864   3.711  12.011 -0.1092 -1.1170  0.2320
 5302TIP3    H237398   6.773   3.656  12.119 -0.1680 -3.5809 -1.0038
 5303TIP3   OH237399   5.097   5.055  14.394 -0.8104 -0.0774 -0.1543
 5303TIP3    H137400   5.036   5.006  14.450 -1.2040  0.6313  0.0410
 5303TIP3    H237401   5.131   5.124  14.451 -1.0801  0.5446 -0.7418
 5304TIP3   OH237402   4.851   6.309  15.965 -0.1335 -0.1865  0.7717
 5304TIP3    H137403   4.843   6.361  15.886  0.2396 -1.7130 -0.3275
 5304TIP3    H237404   4.761   6.285  15.987 -0.2130 -0.0624  0.5876
 5305TIP3   OH237405   6.568   1.985  16.863  0.3155  0.8074 -0.1088
 5305TIP3    H137406   6.480   1.969  16.899  0.5646  0.4898  0.3705
 5305TIP3    H237407   6.586   1.909  16.809  0.5324  0.5843  0.2704
 5306TIP3   OH237408   4.153   1.757   5.463 -0.2272 -0.0119 -0.1531
 5306TIP3    H137409   4.133   1.664   5.468 -0.7367  0.1439  1.2319
 5306TIP3    H237410   4.108   1.787   5.384 -1.3450 -0.6596  0.2042
 5307TIP3   OH237411   2.642   6.446   2.518 -0.3646 -0.6519  0.5400
 5307TIP3    H137412   2.550   6.461   2.499  0.1212  2.6216  0.1407
 5307TIP3    H237413   2.665   6.513   2.582  1.9061 -0.7772 -0.0343
 5308TIP3   OH237414   5.217   1.244   2.732  0.1437 -0.3543  0.1585
 5308TIP3    H137415   5.284   1.185   2.698 -0.1377 -0.3405 -0.4415
 5308TIP3    H237416   5.264   1.322   2.760  0.2720  0.1449 -1.3645
 5309TIP3   OH237417   4.111   1.039  13.408 -0.3734  0.3145 -0.1231
 5309TIP3    H137418   4.207   1.049  13.406 -0.4558  1.1335 -2.2118
 5309TIP3    H237419   4.092   0.979  13.337 -1.3921 -0.4786  0.7898
 5310TIP3   OH237420   4.400   3.794   3.061 -0.4041 -0.5966 -0.0048
 5310TIP3    H137421   4.427   3.742   2.986 -1.4093  0.6919 -1.3312
 5310TIP3    H237422   4.343   3.736   3.111  1.0065 -1.7714  0.2905
 5311TIP3   OH237423   0.446   4.530   5.645 -0.4423 -0.0974 -0.0237
 5311TIP3    H137424   0.481   4.449   5.682  0.0984  0.1079 -0.0708
 5311TIP3    H237425   0.524   4.579   5.618 -0.7543  0.5390  0.2149
 5312TIP3   OH237426   1.433   1.574  15.488  0.0583 -0.4249  0.0213
 5312TIP3    H137427   1.338   1.580  15.491  0.0747  0.0038 -0.1421
 5312TIP3    H237428   1.451   1.505  15.423 -0.1527  3.5271 -4.8729
 5313TIP3   OH237429   0.769   0.011  16.645 -0.4550 -0.5743  0.2761
 5313TIP3    H137430   0.678   0.016  16.674  0.2228 -0.2492  2.4869
 5313TIP3    H237431   0.800  -0.073  16.677  0.0711 -0.6472 -0.3994
 5314TIP3   OH237432   2.765   5.036  13.590  0.1645  0.0685 -0.2116
 5314TIP3    H137433   2.692   5.091  13.619  0.5480 -0.0525  1.0096
 5314TIP3    H237434   2.824   5.097  13.545 -1.5273 -0.1285 -2.9247
 5315TIP3   OH237435   0.109   0.645   2.993  0.2521  0.1109  0.8260
 5315TIP3    H137436   0.019   0.674   2.982  0.8985  2.2040  0.4822
 5315TIP3    H237437   0.117   0.568   2.937 -1.2401  0.0415  0.6699
 5316TIP3   OH237438   5.012   0.371  12.614  0.2350  0.2903 -0.1168
 5316TIP3    H137439   5.092   0.374  12.562 -0.4270  1.0613 -1.1513
 5316TIP3    H237440   5.023   0.296  12.672  2.2985  1.2231  0.7728
 5317TIP3   OH237441   0.291   2.164  12.299 -0.4720 -0.2199 -0.4729
 5317TIP3    H137442   0.348   2.131  12.229 -1.2114 -0.6095 -0.9003
 5317TIP3    H237443   0.335   2.139  12.380 -0.0253 -0.5020 -0.7978
 5318TIP3   OH237444   4.391   6.610   3.094 -0.1677  0.3916  0.3139
 5318TIP3    H137445   4.360   6.574   3.011  1.9369  0.4585 -0.5559
 5318TIP3    H237446   4.370   6.703   3.090 -0.1231  0.3841 -0.1257
 5319TIP3   OH237447   2.364   4.008   3.426  0.0518  0.0305 -0.0887
 5319TIP3    H137448   2.435   3.994   3.363 -0.6323  2.5349 -1.5863
 5319TIP3    H237449   2.296   3.946   3.399  0.2644  0.1864 -1.0292
 5320TIP3   OH237450   3.643   0.253   2.477 -0.4918 -1.0168  0.2159
 5320TIP3    H137451   3.706   0.197   2.432 -0.5980 -0.6832 -0.3595
 5320TIP3    H237452   3.566   0.254   2.420  0.0657  0.9501 -0.6023
 5321TIP3   OH237453   3.370   4.671  16.135  0.1351  0.3263  0.4243
 5321TIP3    H137454   3.317   4.653  16.213 -2.5863 -1.3116 -1.5979
 5321TIP3    H237455   3.308   4.663  16.062  2.7568  0.6656 -2.0138
 5322TIP3   OH237456   6.742   5.591   0.043 -0.4620 -0.2115 -0.4292
 5322TIP3    H137457   6.718   5.506   0.004 -2.7975  0.7946 -1.3824
 5322TIP3    H237458   6.724   5.580   0.136 -0.5397 -0.8444 -0.5111
 5323TIP3   OH237459   5.492   2.876   1.705  0.6916  0.9977 -0.4302
 5323TIP3    H137460   5.524   2.966   1.700 -2.2849  2.1537 -0.8976
 5323TIP3    H237461   5.421   2.880   1.769  0.2737 -0.9654 -0.7167
 5324TIP3   OH237462   3.031   0.183   3.227  0.0340 -0.3492 -0.2753
 5324TIP3    H137463   3.107   0.229   3.192 -0.0352  1.1268  1.3529
 5324TIP3    H237464   3.052   0.090   3.217  1.0346  0.0211 -1.9012
 5325TIP3   OH237465   0.011   0.353   1.033 -0.0860 -0.2507 -0.4988
 5325TIP3    H137466  -0.057   0.297   0.996 -1.1005  0.8112 -0.2920
 5325TIP3    H237467   0.025   0.420   0.967  0.0378  0.1053 -0.1108
 5326TIP3   OH237468   2.885   1.739  11.503  0.2980 -0.3392  0.4620
 5326TIP3    H137469   2.941   1.712  11.577  1.2189 -0.6688 -0.3343
 5326TIP3    H237470   2.944   1.739  11.428 -0.6867 -0.2274 -0.3232
 5327TIP3   OH237471   2.540   5.897   6.102 -0.2906 -0.0808 -0.3483
 5327TIP3    H137472   2.533   5.983   6.060  1.3326  0.6596  0.8153
 5327TIP3    H237473   2.507   5.911   6.191 -0.7772 -0.8741 -0.3943
 5328TIP3   OH237474   2.182   4.822   0.718  0.0180  0.8325 -0.2171
 5328TIP3    H137475   2.134   4.755   0.669  1.3329  1.1075 -1.9786
 5328TIP3    H237476   2.270   4.786   0.728  0.2970  1.6188  0.2502
 5329TIP3   OH237477   1.134   2.625   1.137 -0.4108 -0.0631  0.0624
 5329TIP3    H137478   1.167   2.582   1.215 -0.1792 -0.7969 -0.4304
 5329TIP3    H237479   1.133   2.557   1.070 -0.7733  0.5079 -0.5324
 5330TIP3   OH237480   4.587   4.137   0.384 -0.0069  0.1236 -0.0417
 5330TIP3    H137481   4.673   4.178   0.399 -0.1823  1.1798 -1.6318
 5330TIP3    H237482   4.534   4.207   0.345 -0.6917 -1.2694 -1.7772
 5331TIP3   OH237483   5.654   1.437   2.211  0.1158 -0.0109 -0.2466
 5331TIP3    H137484   5.625   1.498   2.279  0.8210  0.5211 -0.4160
 5331TIP3    H237485   5.621   1.474   2.130  0.1908 -0.0743 -0.3056
 5332TIP3   OH237486   4.481   0.500   2.196 -0.1027  0.2665  0.1726
 5332TIP3    H137487   4.475   0.497   2.292  1.1025 -0.5487  0.2373
 5332TIP3    H237488   4.400   0.457   2.167 -0.3883  0.3392  0.8202
 5333TIP3   OH237489   2.283   1.481  13.802 -0.6379 -0.3793  0.1792
 5333TIP3    H137490   2.202   1.458  13.848 -0.7782 -0.2392  0.0041
 5333TIP3    H237491   2.254   1.537  13.730 -0.5209 -1.3532 -0.6440
 5334TIP3   OH237492   6.749   2.390  15.723  0.6122 -0.5742 -0.3576
 5334TIP3    H137493   6.821   2.336  15.690  0.9495 -0.4571  0.1696
 5334TIP3    H237494   6.706   2.424  15.644  2.3677  0.9958 -0.7030
 5335TIP3   OH237495   0.487   1.075  12.606 -0.4689 -0.2883  0.0094
 5335TIP3    H137496   0.486   1.164  12.572  0.5600 -0.3507 -0.2211
 5335TIP3    H237497   0.443   1.023  12.539  0.6661 -0.2525 -0.7921
 5336TIP3   OH237498   1.690   2.530   2.546 -0.5355 -0.2907  0.1785
 5336TIP3    H137499   1.679   2.611   2.595 -2.9161 -1.3887  1.6335
 5336TIP3    H237500   1.677   2.460   2.610  0.8807 -1.8537 -1.1359
 5337TIP3   OH237501   0.779   3.470  13.132  0.3391  0.6474 -0.2534
 5337TIP3    H137502   0.702   3.518  13.104  0.6638  1.7124  0.5902
 5337TIP3    H237503   0.820   3.526  13.197  0.3702 -1.0888  1.3149
 5338TIP3   OH237504   1.599   5.275  16.129 -0.3079  0.3563  0.0324
 5338TIP3    H137505   1.655   5.233  16.195 -0.1074 -0.4853 -0.6379
 5338TIP3    H237506   1.539   5.205  16.102 -1.7552  1.2620  0.7836
 5339TIP3   OH237507   5.405   4.393  10.758  0.4741 -0.4857  0.0649
 5339TIP3    H137508   5.368   4.373  10.672 -1.4280 -0.5043  0.8361
 5339TIP3    H237509   5.413   4.308  10.801  0.9466 -0.4287  0.0912
 5340TIP3   OH237510   4.736   6.546   1.101  0.1764  0.0136  0.0350
 5340TIP3    H137511   4.825   6.581   1.102 -0.3189  1.4666 -1.4785
 5340TIP3    H237512   4.707   6.560   1.011 -2.1218  0.9718  0.8765
 5341TIP3   OH237513   2.966   2.787   1.184  0.0893 -0.3839 -0.5482
 5341TIP3    H137514   2.935   2.716   1.128 -2.7414  0.0721  0.2582
 5341TIP3    H237515   2.997   2.854   1.123  0.8002 -1.4524 -1.3898
 5342TIP3   OH237516   5.452   5.792  11.247 -0.3784 -0.3375  0.3329
 5342TIP3    H137517   5.541   5.773  11.276 -0.7997 -3.2171  0.0281
 5342TIP3    H237518   5.462   5.817  11.155  0.3644  2.9516  1.1731
 5343TIP3   OH237519   2.542   1.257  16.697 -0.3033  0.8997  0.2564
 5343TIP3    H137520   2.530   1.162  16.690 -0.5374  0.8560  1.0943
 5343TIP3    H237521   2.488   1.293  16.627 -1.5376  0.4691  0.9365
 5344TIP3   OH237522   4.219   0.613   6.580  0.1107  0.4297 -0.1720
 5344TIP3    H137523   4.155   0.542   6.573 -0.1642  0.5455  1.0722
 5344TIP3    H237524   4.293   0.583   6.526  0.2840 -1.1286  0.8488
 5345TIP3   OH237525   6.431   1.499  11.348  0.6513 -0.3083 -0.1091
 5345TIP3    H137526   6.382   1.580  11.362  0.9859 -0.1733  0.3042
 5345TIP3    H237527   6.508   1.526  11.298  0.7103 -0.3884 -0.0618
 5346TIP3   OH237528   5.452   0.168   0.097  0.8846  0.2384 -0.3075
 5346TIP3    H137529   5.419   0.101   0.157 -0.7948  0.7879 -0.5580
 5346TIP3    H237530   5.396   0.161   0.019  1.7368  0.8470 -0.9969
 5347TIP3   OH237531   4.647   0.034  13.128  0.6051 -0.4617 -0.0498
 5347TIP3    H137532   4.667   0.072  13.214  2.1592  0.2698 -0.7036
 5347TIP3    H237533   4.692  -0.050  13.128 -0.2423 -0.9268  0.2151
 5348TIP3   OH237534   4.649   4.340  10.829  0.8566  0.3782 -0.3596
 5348TIP3    H137535   4.604   4.267  10.786  1.4128  0.0014 -0.3038
 5348TIP3    H237536   4.584   4.411  10.829 -0.2555 -0.5727  0.9832
 5349TIP3   OH237537   3.265   1.699  16.122  0.2412 -0.1808  0.0044
 5349TIP3    H137538   3.169   1.709  16.118  0.0436 -1.8201 -0.0424
 5349TIP3    H237539   3.281   1.654  16.205  0.9385 -0.2943 -0.1847
 5350TIP3   OH237540   1.002   5.950   4.598 -0.5318  0.3594  0.4073
 5350TIP3    H137541   1.014   5.939   4.692  1.0243 -0.4313  0.1586
 5350TIP3    H237542   0.939   5.881   4.574 -0.5239  0.2150  0.7920
 5351TIP3   OH237543   3.749   4.246  16.019 -0.3006  0.9184  0.0308
 5351TIP3    H137544   3.823   4.213  16.071 -1.0603  1.0984  1.2690
 5351TIP3    H237545   3.713   4.318  16.072 -1.3277  0.8682 -0.5810
 5352TIP3   OH237546   4.957   5.954   5.087 -0.7083  0.3782  0.4092
 5352TIP3    H137547   4.870   5.940   5.050 -0.9543 -0.4167  1.2496
 5352TIP3    H237548   4.998   6.017   5.029 -1.1573 -0.6702 -1.0923
 5353TIP3   OH237549   1.772   2.978   3.660  0.5703  0.2587 -0.1939
 5353TIP3    H137550   1.687   2.952   3.697  0.2039 -0.7455 -1.6655
 5353TIP3    H237551   1.752   3.053   3.604  0.8551  0.7325  0.3277
 5354TIP3   OH237552   0.260   6.607   5.170  0.1416 -0.2910  0.4749
 5354TIP3    H137553   0.236   6.515   5.181  0.4014 -0.2364  1.5305
 5354TIP3    H237554   0.184   6.656   5.202  0.4705 -0.1356  1.0328
 5355TIP3   OH237555   5.408   0.137  14.198  0.3553  0.7624 -0.2601
 5355TIP3    H137556   5.455   0.179  14.126  1.4000  1.5148  0.8133
 5355TIP3    H237557   5.320   0.176  14.195  0.2029  0.3587 -1.4542
 5356TIP3   OH237558   5.872   3.090  14.810 -0.3108 -0.5113  0.1440
 5356TIP3    H137559   5.941   3.154  14.790  0.4885 -0.4386  2.8005
 5356TIP3    H237560   5.919   3.014  14.845 -1.5217 -0.6340  1.5971
 5357TIP3   OH237561   5.235   4.519   4.956  0.1957  0.4080  0.4109
 5357TIP3    H137562   5.306   4.457   4.974 -0.2771  0.4325  2.7345
 5357TIP3    H237563   5.157   4.465   4.949  0.2604  0.4746 -1.1116
 5358TIP3   OH237564   4.538   6.048   4.760  0.3822 -0.0153  0.2207
 5358TIP3    H137565   4.471   6.004   4.708 -0.3480 -0.9682  1.8682
 5358TIP3    H237566   4.567   6.121   4.706 -2.1634  0.5700 -0.4804
 5359TIP3   OH237567   3.805   0.782   1.731 -0.2766  0.0956  0.5213
 5359TIP3    H137568   3.746   0.743   1.667  0.2712  1.8469 -1.1343
 5359TIP3    H237569   3.781   0.874   1.733  0.5672  0.3125  1.9258
 5360TIP3   OH237570   1.886   0.824   3.656 -0.0271  0.0969  0.0773
 5360TIP3    H137571   1.831   0.886   3.609  0.1748 -0.1409 -0.4831
 5360TIP3    H237572   1.832   0.794   3.729 -0.2111  0.7441  0.2088
 5361TIP3   OH237573   2.650   4.931   3.341 -0.4445 -0.1692 -0.5380
 5361TIP3    H137574   2.623   4.996   3.276 -1.4339  0.7365  0.7255
 5361TIP3    H237575   2.589   4.858   3.330  0.6307 -0.9170 -1.9171
 5362TIP3   OH237576   4.803   5.916   3.784 -0.5347 -0.5162  0.2486
 5362TIP3    H137577   4.745   5.960   3.721 -0.6352 -1.8967 -0.6662
 5362TIP3    H237578   4.872   5.979   3.802 -0.0486 -0.3736 -1.9148
 5363TIP3   OH237579   6.239   3.194   4.292 -0.5013  0.0221  0.2870
 5363TIP3    H137580   6.265   3.286   4.295  0.6656 -0.2069 -1.3908
 5363TIP3    H237581   6.321   3.146   4.280 -1.1268 -1.2214  0.7904
 5364TIP3   OH237582   6.336   3.156  13.878  0.3562  0.8523 -0.4048
 5364TIP3    H137583   6.285   3.136  13.957 -0.2762 -1.2157 -1.2640
 5364TIP3    H237584   6.427   3.141  13.903  0.1750  0.3745 -0.0146
 5365TIP3   OH237585   2.247   4.947  15.102 -0.3844 -0.5457 -0.5798
 5365TIP3    H137586   2.174   4.926  15.161 -1.8508  0.7826 -1.8535
 5365TIP3    H237587   2.205   4.973  15.020  1.5742 -0.9191 -1.7599
 5366TIP3   OH237588   2.756   3.136   4.333  0.0201  0.6644 -0.1089
 5366TIP3    H137589   2.778   3.044   4.322  0.4129  0.7251  0.1551
 5366TIP3    H237590   2.812   3.182   4.270 -0.3967  0.6991 -0.4583
 5367TIP3   OH237591   6.787   5.816   4.047  0.3646  0.1232  0.4653
 5367TIP3    H137592   6.836   5.839   3.968 -0.0732 -0.9847 -0.1534
 5367TIP3    H237593   6.777   5.899   4.094  0.3886  0.8531 -0.7749
 5368TIP3   OH237594   0.439   2.618   1.058  0.2002  0.1914  0.1290
 5368TIP3    H137595   0.385   2.680   1.106  1.1429  0.6366  0.6273
 5368TIP3    H237596   0.376   2.567   1.007 -0.8646 -0.4877  2.0276
 5369TIP3   OH237597   2.876   0.455   3.605 -0.4506  0.9157 -0.8796
 5369TIP3    H137598   2.828   0.460   3.688 -1.0170  0.1340 -1.1421
 5369TIP3    H237599   2.939   0.526   3.609  0.7232 -0.1349  0.9870
 5370TIP3   OH237600   6.117   2.523  10.299 -0.3174 -0.1468 -0.9233
 5370TIP3    H137601   6.025   2.543  10.282 -0.2611 -0.9200 -2.3011
 5370TIP3    H237602   6.115   2.444  10.354 -0.5018 -1.4898 -2.7828
 5371TIP3   OH237603   0.372   4.476   4.030 -0.2625  0.4548 -0.3219
 5371TIP3    H137604   0.325   4.448   3.951 -0.2565 -0.5929  0.0339
 5371TIP3    H237605   0.385   4.570   4.018 -2.1199  0.7007 -0.5984
 5372TIP3   OH237606   5.385   6.352   5.576  0.6386 -0.1266  0.3594
 5372TIP3    H137607   5.431   6.397   5.647  0.7044  0.9561 -0.3419
 5372TIP3    H237608   5.293   6.353   5.603  0.8394 -1.1273  1.1482
 5373TIP3   OH237609   1.575   5.870   3.490  0.1154 -0.0456  0.1411
 5373TIP3    H137610   1.598   5.855   3.582 -0.9099 -1.7877  0.1432
 5373TIP3    H237611   1.508   5.805   3.471  1.4906 -0.8714 -2.3307
 5374TIP3   OH237612   5.359   6.492   3.103  0.7256  0.2201 -0.1778
 5374TIP3    H137613   5.351   6.544   3.023  0.0220  1.0734  0.4325
 5374TIP3    H237614   5.282   6.435   3.103  1.1780 -0.4101 -0.5333
 5375TIP3   OH237615   2.462   5.928  15.346  0.5688 -0.0681  0.0392
 5375TIP3    H137616   2.414   5.965  15.420 -1.2474 -1.1217 -0.5223
 5375TIP3    H237617   2.513   5.857  15.384  0.1197 -0.2120  0.3921
 5376TIP3   OH237618   2.707   5.953  16.131 -0.7023  0.3588  0.7139
 5376TIP3    H137619   2.739   5.989  16.213  1.0227 -1.0414  0.6999
 5376TIP3    H237620   2.699   5.859  16.147  1.9243 -0.3429 -1.3019
 5377TIP3   OH237621   4.565   0.064  15.006  0.2259 -0.5319  0.1764
 5377TIP3    H137622   4.568   0.160  15.003 -0.8433 -0.4975 -0.4320
 5377TIP3    H237623   4.487   0.041  14.955 -1.5193 -1.5636  3.1019
 5378TIP3   OH237624   4.120   5.734  11.576  0.2229 -0.4479  0.2574
 5378TIP3    H137625   4.209   5.698  11.575  1.8073  3.0320 -0.5865
 5378TIP3    H237626   4.105   5.758  11.668  1.0504  0.7095  0.1266
 5379TIP3   OH237627   3.812   4.024   3.247 -0.9687 -0.1443 -0.7476
 5379TIP3    H137628   3.742   4.075   3.287 -0.7185  0.4898 -1.0928
 5379TIP3    H237629   3.880   4.089   3.227 -0.4703 -0.6786 -0.8245
 5380TIP3   OH237630   5.634   1.752   2.214 -0.0030  0.1862 -0.1294
 5380TIP3    H137631   5.543   1.725   2.202 -0.5141  1.6857  0.1775
 5380TIP3    H237632   5.659   1.714   2.299 -0.1451 -0.6667 -0.4526
 5381TIP3   OH237633   0.319   0.917  14.037 -0.9480  0.1968  0.6071
 5381TIP3    H137634   0.224   0.906  14.033 -0.9335  0.1952  0.1751
 5381TIP3    H237635   0.353   0.829  14.056 -0.9139 -0.3180 -1.5055
 5382TIP3   OH237636   4.914   1.241   5.418  0.1075  0.0795 -0.1782
 5382TIP3    H137637   4.931   1.333   5.395 -1.8606  0.5413  0.0463
 5382TIP3    H237638   4.969   1.225   5.495 -0.0193  1.2746  0.1844
 5383TIP3   OH237639   4.916   2.894   4.955  0.1295 -0.2741  0.2382
 5383TIP3    H137640   4.828   2.857   4.962  0.6139 -1.2451  1.6341
 5383TIP3    H237641   4.963   2.859   5.031  1.8280 -0.0603 -0.6641
 5384TIP3   OH237642   3.689   1.354   2.179  0.6176 -0.3784 -0.3814
 5384TIP3    H137643   3.719   1.440   2.151 -0.8609  0.5438  0.7212
 5384TIP3    H237644   3.616   1.333   2.120  0.6982 -0.6975 -0.3740
 5385TIP3   OH237645   0.438   2.340   4.033 -0.7829 -0.7322 -0.3281
 5385TIP3    H137646   0.349   2.339   3.996 -0.7714 -0.2909 -0.3702
 5385TIP3    H237647   0.453   2.250   4.060 -1.0673 -0.9112 -0.7489
 5386TIP3   OH237648   3.703   1.433   4.439 -0.2544 -0.0393 -0.4079
 5386TIP3    H137649   3.625   1.471   4.479  0.1225  0.9573 -0.5869
 5386TIP3    H237650   3.672   1.397   4.355 -0.2074  2.1455 -1.4487
 5387TIP3   OH237651   0.350   3.415  16.622 -0.1265 -0.0513 -0.5138
 5387TIP3    H137652   0.374   3.497  16.663 -0.2740  0.0372 -0.6043
 5387TIP3    H237653   0.330   3.438  16.531  0.0302 -0.2176 -0.5931
 5388TIP3   OH237654   6.289   0.316   1.094 -0.2979 -0.2626  0.0527
 5388TIP3    H137655   6.215   0.320   1.153 -1.5892  1.9388 -1.5374
 5388TIP3    H237656   6.325   0.405   1.095  0.5570 -0.5626 -1.3214
 5389TIP3   OH237657   4.588   2.040  16.570  0.9745 -0.2900 -0.5311
 5389TIP3    H137658   4.564   1.985  16.645  0.8401  1.3963  0.7087
 5389TIP3    H237659   4.632   2.115  16.609 -0.1615  1.2269 -2.0450
 5390TIP3   OH237660   3.891   0.774   4.867  0.5163 -0.1274  0.5818
 5390TIP3    H137661   3.888   0.868   4.848  0.5908 -0.2764 -0.1994
 5390TIP3    H237662   3.809   0.756   4.913  0.2478  0.2140  0.2380
 5391TIP3   OH237663   0.878   4.290   0.307 -0.1371 -0.4792 -0.2516
 5391TIP3    H137664   0.938   4.280   0.381 -3.2274 -1.7552  2.3686
 5391TIP3    H237665   0.861   4.384   0.302  1.4045 -0.2007 -0.5081
 5392TIP3   OH237666   4.695   5.966  12.086  0.2062 -0.6578 -0.3010
 5392TIP3    H137667   4.784   5.997  12.070  0.4521 -1.7167 -1.1260
 5392TIP3    H237668   4.702   5.871  12.084 -0.6647 -0.8029  1.2894
 5393TIP3   OH237669   1.267   5.318   4.749  0.7623 -0.1547 -0.0460
 5393TIP3    H137670   1.299   5.402   4.783 -2.1820 -0.0591  2.9722
 5393TIP3    H237671   1.283   5.256   4.820  0.0543 -1.4490 -0.9858
 5394TIP3   OH237672   1.053   4.351  11.922  0.4311  0.2276  0.0911
 5394TIP3    H137673   1.128   4.338  11.864  0.3250  1.1775 -0.2773
 5394TIP3    H237674   1.030   4.263  11.952  2.5086 -0.0105  1.2439
 5395TIP3   OH237675   2.585   1.645   3.299 -0.4911  0.2451  0.3587
 5395TIP3    H137676   2.657   1.683   3.249  0.1823 -0.8628  0.4544
 5395TIP3    H237677   2.595   1.551   3.287 -2.2623  0.0836 -0.0784
 5396TIP3   OH237678   0.340   5.916  11.049 -0.5308  0.1889 -0.0001
 5396TIP3    H137679   0.306   5.987  11.104  0.1702 -0.3910  1.2269
 5396TIP3    H237680   0.358   5.958  10.965 -0.0226  1.5059  0.7312
 5397TIP3   OH237681   5.313   2.589  15.310  0.5074 -0.0834 -0.5319
 5397TIP3    H137682   5.220   2.583  15.334  0.6489 -0.3403 -0.0425
 5397TIP3    H237683   5.312   2.603  15.215 -0.0780  1.2852 -0.3532
 5398TIP3   OH237684   4.213   4.672   3.235  0.2787 -0.2511  0.5530
 5398TIP3    H137685   4.284   4.661   3.172  0.8938 -0.7387  1.3157
 5398TIP3    H237686   4.209   4.766   3.252 -0.0662 -0.0852 -0.4012
 5399TIP3   OH237687   5.386   6.818   2.301 -0.4406 -0.1238 -0.4615
 5399TIP3    H137688   5.335   6.820   2.382  1.1771 -0.8452  0.6322
 5399TIP3    H237689   5.476   6.806   2.329  0.0328 -1.8150 -2.4171
 5400TIP3   OH237690   0.400   0.047  15.098  0.3355 -0.1880  0.1813
 5400TIP3    H137691   0.373   0.131  15.135  1.8201  1.0565 -1.3820
 5400TIP3    H237692   0.463   0.013  15.161  0.1564  0.1545  0.5541
 5401TIP3   OH237693   2.576   0.539  13.783 -0.1723  0.0835 -0.1223
 5401TIP3    H137694   2.587   0.536  13.878 -0.4568  0.8101 -0.0602
 5401TIP3    H237695   2.665   0.546  13.748  0.2735 -3.6337 -0.1145
 5402TIP3   OH237696   4.817   4.403   2.301 -0.7235 -0.2008 -0.2001
 5402TIP3    H137697   4.785   4.466   2.237 -1.0054 -0.2749 -0.1347
 5402TIP3    H237698   4.751   4.405   2.371 -1.9278 -2.2030 -1.2047
 5403TIP3   OH237699   5.880   4.586  16.926  0.2199 -0.6069 -0.3741
 5403TIP3    H137700   5.840   4.553  17.006 -0.5456  0.5951 -0.2275
 5403TIP3    H237701   5.947   4.648  16.957 -0.6837  0.5360 -0.6493
 5404TIP3   OH237702   4.467   4.725  15.590  0.6960 -0.1223  0.0139
 5404TIP3    H137703   4.515   4.784  15.533  0.8416 -0.0527  0.2064
 5404TIP3    H237704   4.473   4.766  15.677  0.8626 -0.4600  0.1626
 5405TIP3   OH237705   1.644   0.856  15.234 -0.0082  0.0515 -0.5562
 5405TIP3    H137706   1.638   0.793  15.306 -1.4544  0.1684 -0.5585
 5405TIP3    H237707   1.737   0.879  15.231  0.0878  0.0560  1.2869
 5406TIP3   OH237708   4.269   0.112   0.211 -0.0699  0.3485  0.0296
 5406TIP3    H137709   4.231   0.026   0.194  1.6839 -0.2239 -1.3643
 5406TIP3    H237710   4.316   0.102   0.293 -0.0291  0.0166 -0.0318
 5407TIP3   OH237711   3.781   6.421   3.092 -0.5360 -0.2247 -0.6006
 5407TIP3    H137712   3.778   6.329   3.119  1.7283 -0.1487  0.0983
 5407TIP3    H237713   3.797   6.418   2.997  1.0870 -0.6210 -0.3505
 5408TIP3   OH237714   6.332   0.448  15.516 -0.1472 -0.2637 -0.1311
 5408TIP3    H137715   6.257   0.507  15.522 -1.2071 -1.5467 -0.3095
 5408TIP3    H237716   6.408   0.505  15.523 -1.1123  0.8951  2.0530
 5409TIP3   OH237717   0.247   2.092   2.674 -0.1404 -0.6529 -0.1347
 5409TIP3    H137718   0.318   2.066   2.732  0.6244  1.7490  0.1086
 5409TIP3    H237719   0.292   2.130   2.598 -1.1437 -0.0258 -0.4287
 5410TIP3   OH237720   4.889   5.772   2.133  0.2024  0.2236 -0.3442
 5410TIP3    H137721   4.832   5.839   2.093  0.6842  0.3881 -0.7738
 5410TIP3    H237722   4.938   5.736   2.059 -1.3637 -1.9441 -0.4156
 5411TIP3   OH237723   0.685   0.255   3.305 -0.2388 -0.4397  0.3915
 5411TIP3    H137724   0.595   0.229   3.323  0.0018 -1.3866  0.2935
 5411TIP3    H237725   0.721   0.279   3.390 -1.0043  1.3824  0.2343
 5412TIP3   OH237726   5.783   5.232  16.853 -0.1983 -0.2901  0.0750
 5412TIP3    H137727   5.819   5.209  16.768  2.8021 -1.7139  1.5673
 5412TIP3    H237728   5.817   5.320  16.871 -0.6449 -0.0796 -0.1131
 5413TIP3   OH237729   1.758   6.406   4.618 -0.0556  0.3224  0.0376
 5413TIP3    H137730   1.738   6.499   4.629 -1.2240  0.3469 -1.8082
 5413TIP3    H237731   1.677   6.361   4.640  0.4308 -0.2700  0.6760
 5414TIP3   OH237732   2.569   0.357  11.077  0.4529  0.0520  0.1416
 5414TIP3    H137733   2.618   0.388  11.154  1.0662 -0.8538  0.1369
 5414TIP3    H237734   2.629   0.296  11.034  0.8498  1.8686 -2.0822
 5415TIP3   OH237735   3.513   3.331   4.719 -0.2048 -0.6445 -0.1690
 5415TIP3    H137736   3.502   3.254   4.775 -0.2772 -0.1638  0.4837
 5415TIP3    H237737   3.483   3.301   4.633  0.0676 -1.4397 -0.0009
 5416TIP3   OH237738   1.926   0.348   3.291 -0.2047  0.0954  0.7332
 5416TIP3    H137739   2.003   0.403   3.282  0.0776 -0.1110  1.7777
 5416TIP3    H237740   1.958   0.267   3.332 -0.6708 -0.7251 -0.4524
 5417TIP3   OH237741   5.556   0.944   6.104  0.4902  0.1350  0.2321
 5417TIP3    H137742   5.574   0.884   6.176  1.3358  0.7014  0.5028
 5417TIP3    H237743   5.639   0.954   6.059 -0.4013 -1.6787 -2.0220
 5418TIP3   OH237744   5.631   4.388  16.319  0.1471  0.1902  0.2982
 5418TIP3    H137745   5.683   4.461  16.352  1.6368 -0.7772  0.1726
 5418TIP3    H237746   5.648   4.316  16.379  0.5035 -0.7073 -0.8386
 5419TIP3   OH237747   4.750   3.868  10.007 -0.0536 -0.2422  0.1911
 5419TIP3    H137748   4.818   3.926   9.972 -0.1495  1.7584  3.0107
 5419TIP3    H237749   4.682   3.927  10.038 -1.7828 -2.0857  0.1069
 5420TIP3   OH237750   3.425   4.010   3.953 -0.0591 -0.2461  0.1586
 5420TIP3    H137751   3.443   3.918   3.969 -4.0078 -1.2466 -0.0389
 5420TIP3    H237752   3.471   4.057   4.023  1.6770 -2.3467  0.5152
 5421TIP3   OH237753   5.492   3.536  13.404  0.3129 -0.1511  0.1431
 5421TIP3    H137754   5.571   3.567  13.448 -0.0983  0.9871  0.1141
 5421TIP3    H237755   5.523   3.471  13.341  1.2630  0.5028 -0.0810
 5422TIP3   OH237756   6.129   0.197   1.318 -0.3061  0.3024 -0.0087
 5422TIP3    H137757   6.039   0.167   1.303 -0.2132  1.3549 -3.7855
 5422TIP3    H237758   6.183   0.120   1.299 -0.3174 -0.1035  1.4679
 5423TIP3   OH237759   0.243   1.916  16.986 -0.3623  0.8041  0.0750
 5423TIP3    H137760   0.166   1.968  17.006  0.8016  1.8567  2.2245
 5423TIP3    H237761   0.263   1.871  17.068  1.4869  0.8472 -0.3081
 5424TIP3   OH237762   2.502   0.778   3.952 -0.2246  0.0812 -0.2017
 5424TIP3    H137763   2.573   0.760   3.889  2.0891  2.1446  1.5869
 5424TIP3    H237764   2.464   0.860   3.921  0.0162  0.3910  0.3067
 5425TIP3   OH237765   2.435   2.194  14.755  0.3194  0.1913  0.1246
 5425TIP3    H137766   2.493   2.140  14.702  0.3471 -0.3582  0.6912
 5425TIP3    H237767   2.355   2.202  14.703  0.1606 -0.7584  0.1933
 5426TIP3   OH237768   1.843   4.292  14.606  0.0846 -0.0067 -0.7467
 5426TIP3    H137769   1.756   4.319  14.634  0.2305 -0.0893 -0.1974
 5426TIP3    H237770   1.879   4.245  14.682  0.6061  0.0290 -0.9675
 5427TIP3   OH237771   4.284   5.047  14.049  0.1667 -0.2097 -0.4627
 5427TIP3    H137772   4.378   5.031  14.034  0.0751 -1.0597 -0.1778
 5427TIP3    H237773   4.275   5.046  14.144 -0.2313 -0.7271 -0.5063
 5428TIP3   OH237774   2.168   1.184  16.803 -0.0219 -0.2068  0.0444
 5428TIP3    H137775   2.223   1.179  16.725  0.3920 -1.5380  0.3912
 5428TIP3    H237776   2.220   1.233  16.867  0.1737 -0.2353 -0.0947
 5429TIP3   OH237777   1.080   6.558   3.382  0.1625  1.4074 -0.1637
 5429TIP3    H137778   1.003   6.615   3.382  0.7278  2.2298  1.2101
 5429TIP3    H237779   1.125   6.579   3.464  1.6295  0.6392 -0.7343
 5430TIP3   OH237780   3.801   3.145  14.951  0.6800 -0.4898  0.9372
 5430TIP3    H137781   3.715   3.185  14.957  1.0837  0.6160 -0.2504
 5430TIP3    H237782   3.784   3.051  14.957 -0.4386 -0.2289  2.2259
 5431TIP3   OH237783   0.529   1.037  14.808 -0.0208 -0.3993 -0.3792
 5431TIP3    H137784   0.545   0.973  14.739 -0.8428 -0.6962 -0.3063
 5431TIP3    H237785   0.514   0.984  14.886 -0.4270 -0.1127 -0.2577
 5432TIP3   OH237786   5.759   0.476   4.545  0.6090 -0.3239 -0.0018
 5432TIP3    H137787   5.778   0.452   4.454 -1.8189  0.0832 -0.6875
 5432TIP3    H237788   5.755   0.571   4.545  1.2010 -0.2869  0.6958
 5433TIP3   OH237789   2.212   1.895  15.257 -0.3893 -0.1490 -0.3639
 5433TIP3    H137790   2.286   1.836  15.268 -0.4837 -0.2225 -0.1206
 5433TIP3    H237791   2.166   1.892  15.341 -0.0275  0.7741 -0.1210
 5434TIP3   OH237792   3.306   1.415   1.355  0.0626 -0.2329 -0.0121
 5434TIP3    H137793   3.246   1.379   1.290 -0.0733 -1.0932  0.5721
 5434TIP3    H237794   3.278   1.375   1.438  0.5717  0.4238  0.4886
 5435TIP3   OH237795   4.414   1.084  12.094  0.5613 -0.6590 -0.6307
 5435TIP3    H137796   4.438   1.131  12.173  2.2040 -0.1542 -1.3864
 5435TIP3    H237797   4.489   1.095  12.035 -1.5892  1.2881 -3.3076
 5436TIP3   OH237798   2.883   2.718  11.865  0.2284  0.2589 -0.2115
 5436TIP3    H137799   2.881   2.796  11.810  0.8737 -0.2910 -1.0310
 5436TIP3    H237800   2.888   2.644  11.804 -0.2222 -0.4291  0.5483
 5437TIP3   OH237801   2.455   5.120  15.175 -0.0941 -0.2199 -0.2666
 5437TIP3    H137802   2.406   5.052  15.127 -0.3810 -0.4577  0.3484
 5437TIP3    H237803   2.504   5.167  15.107 -1.8311  0.5832 -1.0258
 5438TIP3   OH237804   3.127   5.618   2.876  0.3994 -0.3513 -0.0252
 5438TIP3    H137805   3.189   5.561   2.830 -0.3866  0.2580 -1.9187
 5438TIP3    H237806   3.048   5.564   2.886  0.2483 -0.1741 -0.2544
 5439TIP3   OH237807   6.068   6.059   2.780  0.4221 -0.5662  0.8534
 5439TIP3    H137808   6.055   6.154   2.774  0.0360 -0.6458  0.2818
 5439TIP3    H237809   5.988   6.022   2.742  0.1792 -1.1328  1.8930
 5440TIP3   OH237810   0.897   1.657  11.230  0.1260  0.2261 -0.1112
 5440TIP3    H137811   0.839   1.589  11.262 -1.8021  1.8720  0.1301
 5440TIP3    H237812   0.983   1.636  11.268 -0.6618 -1.3778  0.8822
 5441TIP3   OH237813   3.327   1.813   4.100 -0.8875  0.2565  0.6402
 5441TIP3    H137814   3.305   1.799   4.008  1.6426 -2.1538  0.2711
 5441TIP3    H237815   3.406   1.867   4.098  1.8479 -3.3044  0.9280
 5442TIP3   OH237816   1.859   0.237  15.452  0.5629  0.4571 -0.2496
 5442TIP3    H137817   1.881   0.160  15.401  0.1544  0.3650 -0.2902
 5442TIP3    H237818   1.767   0.224  15.477  0.7094  0.5770  0.3664
 5443TIP3   OH237819   6.476   4.825  15.759  0.2226 -0.5571 -0.2915
 5443TIP3    H137820   6.452   4.875  15.681 -1.2752  0.6578  0.8846
 5443TIP3    H237821   6.572   4.829  15.761  0.2058  1.4455 -0.8218
 5444TIP3   OH237822   4.468   0.614  12.119  0.3671 -0.7898  0.6157
 5444TIP3    H137823   4.532   0.652  12.059 -0.7110 -1.4233 -0.9912
 5444TIP3    H237824   4.437   0.688  12.171  0.5647 -0.0189 -0.3291
 5445TIP3   OH237825   4.485   4.642  14.976  0.1759  0.6191 -0.0044
 5445TIP3    H137826   4.472   4.706  15.046  0.0775  0.0927  0.4673
 5445TIP3    H237827   4.504   4.560  15.022 -3.0577 -0.5203 -0.4439
 5446TIP3   OH237828   2.232   6.017   1.576 -0.2168 -0.0522 -0.1026
 5446TIP3    H137829   2.275   6.044   1.657 -1.5804 -1.1036  1.0170
 5446TIP3    H237830   2.269   5.930   1.557 -1.3662 -0.7009  0.5410
 5447TIP3   OH237831   4.555   0.733   4.731  0.0260  0.2882  0.1657
 5447TIP3    H137832   4.567   0.639   4.744 -0.0223  0.3709  0.8447
 5447TIP3    H237833   4.614   0.755   4.660 -0.2177 -0.3198 -0.2358
 5448TIP3   OH237834   1.217   5.949  14.935 -0.1142 -0.3682 -0.0372
 5448TIP3    H137835   1.166   5.885  14.985 -0.3747 -0.2942 -0.2105
 5448TIP3    H237836   1.154   6.015  14.907 -0.0173 -0.5356 -0.6690
 5449TIP3   OH237837   3.186   5.095  16.037  0.5586 -0.6701  0.1752
 5449TIP3    H137838   3.202   5.011  15.994  1.9075 -0.2018 -0.2881
 5449TIP3    H237839   3.153   5.152  15.967  0.6823 -0.5052  0.2519
 5450TIP3   OH237840   5.637   5.587   3.613  0.3102  0.0412  0.6625
 5450TIP3    H137841   5.720   5.560   3.652  0.3587 -0.9862 -0.1148
 5450TIP3    H237842   5.639   5.683   3.618  1.2947  0.0161  1.1363
 5451TIP3   OH237843   1.027   3.922   5.243  0.0286  0.3691  0.5286
 5451TIP3    H137844   1.090   3.878   5.187  0.4068 -0.1871  1.3777
 5451TIP3    H237845   0.947   3.926   5.191 -0.8150 -3.5658  1.2315
 5452TIP3   OH237846   6.206   4.045   1.364  0.8657  0.2919  0.2973
 5452TIP3    H137847   6.266   4.031   1.290 -0.7190  1.6450 -1.3101
 5452TIP3    H237848   6.260   4.090   1.429  1.8631  0.6038 -0.7031
 5453TIP3   OH237849   6.762   6.470  10.703  0.2153 -0.3168  0.0255
 5453TIP3    H137850   6.789   6.509  10.620  0.9382  0.4504  0.6134
 5453TIP3    H237851   6.842   6.465  10.755 -0.2183 -0.8546  0.6621
 5454TIP3   OH237852   6.171   6.831  13.296  0.1490 -0.3697  0.3177
 5454TIP3    H137853   6.227   6.908  13.310  0.3790 -0.3826 -0.4967
 5454TIP3    H237854   6.205   6.790  13.217 -0.2370 -1.0837  0.5120
 5455TIP3   OH237855   0.387   2.140  16.951  0.0155  0.6402  0.0756
 5455TIP3    H137856   0.325   2.077  16.988  1.5604 -0.8058  0.3460
 5455TIP3    H237857   0.347   2.226  16.965 -1.5785 -0.2011  0.8490
 5456TIP3   OH237858   0.975   5.795  14.876 -0.4087 -0.1108 -0.1640
 5456TIP3    H137859   0.942   5.755  14.795  0.3209 -0.6970 -0.1855
 5456TIP3    H237860   0.976   5.722  14.939  3.1709 -0.8015 -0.8319
 5457TIP3   OH237861   2.646   2.490   5.116 -0.5964  0.1188 -0.2364
 5457TIP3    H137862   2.654   2.394   5.110  1.9320  0.2107  0.3078
 5457TIP3    H237863   2.646   2.508   5.210  1.0904  0.7234 -0.3223
 5458TIP3   OH237864   5.919   3.480  14.664 -0.1902 -0.0216  0.1546
 5458TIP3    H137865   5.987   3.467  14.598 -1.9855 -1.6672 -1.4879
 5458TIP3    H237866   5.915   3.575  14.676  0.1998  0.3432 -2.1224
 5459TIP3   OH237867   1.177   0.863  11.544  0.0726 -0.2797 -0.3807
 5459TIP3    H137868   1.252   0.835  11.597  0.0114  0.9501  0.4043
 5459TIP3    H237869   1.106   0.874  11.607  0.2639  2.1988 -0.4650
 5460TIP3   OH237870   1.286   4.920  11.989 -0.0078  0.3869  0.0800
 5460TIP3    H137871   1.272   4.877  12.074 -0.0671 -0.7177 -0.4716
 5460TIP3    H237872   1.229   4.873  11.929  1.7805 -0.4486 -1.0613
 5461TIP3   OH237873   0.014   3.373   3.796 -0.0770 -0.1256 -0.3664
 5461TIP3    H137874  -0.031   3.457   3.791  1.5623  0.7588 -1.2460
 5461TIP3    H237875   0.017   3.352   3.889 -0.9456  0.5322 -0.1789
 5462TIP3   OH237876   5.093   5.064   4.073  0.4140 -0.5402 -0.5047
 5462TIP3    H137877   5.124   5.138   4.125  1.4054 -1.6317  0.5485
 5462TIP3    H237878   5.004   5.048   4.103  0.5247 -0.3376 -0.0677
 5463TIP3   OH237879   0.514   4.469   2.693 -0.6186 -0.1138 -0.1518
 5463TIP3    H137880   0.432   4.481   2.742 -0.9298  0.0313 -0.7031
 5463TIP3    H237881   0.557   4.554   2.699 -1.0447  0.1569 -0.8254
 5464TIP3   OH237882   3.547   1.236  16.084  0.1617  0.4738  0.1049
 5464TIP3    H137883   3.586   1.311  16.039 -0.0202 -0.0191 -0.8982
 5464TIP3    H237884   3.521   1.176  16.014  2.6828 -1.7517  0.9265
 5465TIP3   OH237885   2.629   1.749  13.437  0.3110 -0.1260  0.0649
 5465TIP3    H137886   2.625   1.802  13.358  1.1969  1.1912  0.8575
 5465TIP3    H237887   2.675   1.670  13.411  1.6516  0.8071 -0.4799
 5466TIP3   OH237888   3.589   3.130   5.385 -0.7636  0.3112  0.1041
 5466TIP3    H137889   3.616   3.106   5.297  0.9609 -1.5569  1.0764
 5466TIP3    H237890   3.507   3.081   5.399  0.4562 -1.7205  0.5086
 5467TIP3   OH237891   6.208   5.048   0.752  0.3934  0.5285 -0.4204
 5467TIP3    H137892   6.175   5.021   0.667 -1.1137  0.2970  0.2126
 5467TIP3    H237893   6.229   4.966   0.797 -4.3268  0.0586  1.5604
 5468TIP3   OH237894   0.986   0.252   1.695  0.0621 -0.1329 -0.0690
 5468TIP3    H137895   0.898   0.231   1.725  0.2355 -0.0078  0.5584
 5468TIP3    H237896   0.981   0.249   1.600 -0.7105  0.2477 -0.0488
 5469TIP3   OH237897   1.342   3.230  13.191 -0.2137 -0.2548 -0.2579
 5469TIP3    H137898   1.262   3.197  13.233  0.1676 -2.1434 -0.9139
 5469TIP3    H237899   1.316   3.247  13.100 -0.1003  0.0879 -0.2282
 5470TIP3   OH237900   3.448   4.268   3.175  0.2762 -0.2555  0.3906
 5470TIP3    H137901   3.474   4.176   3.166  0.3255 -0.2925  0.8865
 5470TIP3    H237902   3.353   4.265   3.182  0.3186 -0.3151  0.9599
 5471TIP3   OH237903   4.066   3.297  11.261  0.0871  0.6611 -0.6265
 5471TIP3    H137904   4.162   3.300  11.261  0.1049  0.2098 -0.7434
 5471TIP3    H237905   4.041   3.339  11.180  0.2601 -0.8353 -1.4999
 5472TIP3   OH237906   3.235   1.954  15.576 -0.0072 -0.1841 -0.3150
 5472TIP3    H137907   3.276   1.875  15.612  0.9293  0.5345  0.2543
 5472TIP3    H237908   3.295   1.984  15.508  0.6607  1.1084  0.8000
 5473TIP3   OH237909   1.719   2.216  16.842  0.1672  0.2830 -0.1107
 5473TIP3    H137910   1.725   2.301  16.798  0.3114  0.8223  0.9302
 5473TIP3    H237911   1.746   2.153  16.775 -0.1472  1.0289 -0.9614
 5474TIP3   OH237912   6.357   3.414   6.369  0.6355 -0.3132 -0.1060
 5474TIP3    H137913   6.318   3.490   6.413  1.6753  0.1642  0.0498
 5474TIP3    H237914   6.415   3.453   6.304 -0.8157 -1.0119 -1.8743
 5475TIP3   OH237915   2.346   0.963  14.693 -0.3244 -0.3421  0.2847
 5475TIP3    H137916   2.315   0.918  14.772 -0.4007  2.5406  2.0353
 5475TIP3    H237917   2.436   0.932  14.682 -0.5938 -1.4284  0.9771
 5476TIP3   OH237918   3.557   3.405  14.877  0.1319  0.3672  0.4121
 5476TIP3    H137919   3.542   3.373  14.788  0.7387  1.6681 -0.1762
 5476TIP3    H237920   3.585   3.495  14.866  1.6362  0.1202  1.8405
 5477TIP3   OH237921   5.989   0.348   3.101  0.3475 -0.3280 -0.1694
 5477TIP3    H137922   5.924   0.315   3.163  0.6963  0.9227  0.9129
 5477TIP3    H237923   5.944   0.348   3.017 -0.9296  0.1328  0.4897
 5478TIP3   OH237924   6.201   5.369  13.261  0.3757 -0.2046  0.6564
 5478TIP3    H137925   6.207   5.464  13.247 -0.4402 -0.3973 -1.4355
 5478TIP3    H237926   6.290   5.337  13.245  0.6365  0.1782  1.2901
 5479TIP3   OH237927   2.161   2.160  12.410  0.0124 -0.3611 -0.1117
 5479TIP3    H137928   2.113   2.078  12.399 -1.1499  0.3061 -0.3274
 5479TIP3    H237929   2.200   2.155  12.497 -0.4206 -0.9605  0.0513
 5480TIP3   OH237930   2.119   2.321  13.895 -0.1061  0.1968 -0.5322
 5480TIP3    H137931   2.146   2.410  13.914 -0.9925  1.1226 -3.2232
 5480TIP3    H237932   2.023   2.325  13.891 -0.2310 -1.1180  0.2672
 5481TIP3   OH237933   4.012   2.607   0.266  0.0635  0.2778  0.0164
 5481TIP3    H137934   3.964   2.593   0.184  1.2599 -0.3936 -0.6014
 5481TIP3    H237935   4.060   2.526   0.280 -0.4731  0.1995  1.6642
 5482TIP3   OH237936   0.939   0.842  16.073 -0.1514  0.0716 -0.3084
 5482TIP3    H137937   0.892   0.771  16.028 -1.9938  1.0710 -0.0497
 5482TIP3    H237938   0.881   0.867  16.144  1.4229  0.4732  0.8791
 5483TIP3   OH237939   5.757   4.984  11.063  0.0458 -0.5171  0.3124
 5483TIP3    H137940   5.678   4.938  11.034  1.2408 -1.7372 -1.1794
 5483TIP3    H237941   5.828   4.944  11.012  1.7390  0.0449  2.1051
 5484TIP3   OH237942   6.543   5.296   5.726 -0.0020  0.0289  0.3550
 5484TIP3    H137943   6.453   5.313   5.754 -0.1753  0.2451 -0.3074
 5484TIP3    H237944   6.535   5.221   5.666  0.3258 -0.2640  0.6739
 5485TIP3   OH237945   2.396   4.844   2.859  0.7998 -0.5875 -0.0638
 5485TIP3    H137946   2.327   4.835   2.924 -0.3672  2.5411 -0.6863
 5485TIP3    H237947   2.362   4.799   2.781 -0.3476  0.4505 -0.1929
 5486TIP3   OH237948   0.360   3.088  14.190 -1.0890 -0.6551 -0.3891
 5486TIP3    H137949   0.382   3.064  14.100 -1.3168  0.5998 -0.8025
 5486TIP3    H237950   0.264   3.095  14.189 -1.0224  0.3362 -0.3192
 5487TIP3   OH237951   5.023   3.413   5.209  0.0648 -0.0305  0.1925
 5487TIP3    H137952   5.094   3.425   5.272 -0.0833  0.3996  0.2763
 5487TIP3    H237953   4.948   3.390   5.262  0.3246 -1.2950  0.0441
 5488TIP3   OH237954   6.508   5.867   1.964  0.5366  0.2506 -0.5541
 5488TIP3    H137955   6.548   5.819   2.036 -3.4548 -1.9379  0.5290
 5488TIP3    H237956   6.456   5.935   2.007  0.8527  1.2392 -1.6819
 5489TIP3   OH237957   2.336   5.319   5.190 -0.6465 -0.2054  0.1518
 5489TIP3    H137958   2.332   5.292   5.282  0.5520 -2.1032 -0.3059
 5489TIP3    H237959   2.416   5.371   5.184 -0.8415  0.1056  0.2148
 5490TIP3   OH237960   1.324   0.305  15.579  0.2981  0.5048 -0.2211
 5490TIP3    H137961   1.282   0.270  15.500  0.1735  0.8707 -0.3209
 5490TIP3    H237962   1.418   0.294  15.563  0.2354 -0.9968  0.3239
 5491TIP3   OH237963   6.362   4.818  11.677 -0.1216 -0.6278  0.6188
 5491TIP3    H137964   6.285   4.821  11.620  1.9348  1.8312 -2.3549
 5491TIP3    H237965   6.405   4.735  11.655 -0.3347 -0.5810  0.0047
 5492TIP3   OH237966   1.790   6.250  11.425  0.2280  0.3254  0.0201
 5492TIP3    H137967   1.830   6.188  11.486  1.1778 -1.2332 -2.0785
 5492TIP3    H237968   1.824   6.335  11.452  3.5079 -0.7148 -0.4145
 5493TIP3   OH237969   5.033   6.649  13.960  0.5687 -0.9136 -0.5558
 5493TIP3    H137970   5.089   6.691  14.026 -1.0857  1.8262 -0.7289
 5493TIP3    H237971   5.073   6.672  13.876 -0.4995  0.7449 -0.6637
 5494TIP3   OH237972   5.614   6.334  10.912  0.2891 -0.0883 -0.1907
 5494TIP3    H137973   5.656   6.267  10.857  0.8694  0.3363 -0.2678
 5494TIP3    H237974   5.550   6.285  10.964  0.7917 -0.7346 -0.1590
 5495TIP3   OH237975   4.852   5.558   0.159 -0.5823 -0.5510 -0.1869
 5495TIP3    H137976   4.840   5.488   0.095  0.4386 -1.3370  0.4449
 5495TIP3    H237977   4.945   5.581   0.153 -0.7188  0.1579  0.2241
 5496TIP3   OH237978   4.506   0.861  15.842  0.1564  0.3061  0.2676
 5496TIP3    H137979   4.560   0.939  15.842 -0.1001  0.4906 -0.5840
 5496TIP3    H237980   4.443   0.876  15.912 -0.3073  1.1676 -0.3098
 5497TIP3   OH237981   1.620   1.166  10.733 -0.2654 -0.2055  0.1417
 5497TIP3    H137982   1.527   1.182  10.747 -0.8747 -1.7327 -1.7506
 5497TIP3    H237983   1.651   1.240  10.681 -0.6801 -0.1965 -0.0936
 5498TIP3   OH237984   2.384   6.543   5.725 -0.1258  0.3669 -0.0075
 5498TIP3    H137985   2.332   6.600   5.668  0.5234  3.1561  1.9538
 5498TIP3    H237986   2.336   6.543   5.809  1.2014  0.1295  0.7779
 5499TIP3   OH237987   1.905   2.516   0.919  1.3668 -0.1188  0.0101
 5499TIP3    H137988   1.845   2.464   0.973  0.9734 -0.6029 -0.8749
 5499TIP3    H237989   1.875   2.606   0.930  1.1791 -0.2334  0.4589
 5500TIP3   OH237990   2.195   5.476  15.255 -0.3166  0.6792 -0.5912
 5500TIP3    H137991   2.134   5.489  15.183 -1.2557  0.0678  0.0693
 5500TIP3    H237992   2.176   5.548  15.316  0.0752  0.8657 -0.6884
 5501TIP3   OH237993   6.113   1.099   5.993 -0.4130  0.1988  0.3494
 5501TIP3    H137994   6.145   1.189   5.987 -0.8495  0.4114  1.1275
 5501TIP3    H237995   6.088   1.088   6.085 -1.5680 -0.3115 -0.0172
 5502TIP3   OH237996   1.853   2.751  15.941 -0.1490 -0.0927  0.2241
 5502TIP3    H137997   1.788   2.688  15.910 -0.9179  0.8670 -0.1684
 5502TIP3    H237998   1.884   2.793  15.861  0.8045 -0.3775  0.4294
 5503TIP3   OH237999   1.474   0.364   2.895  0.1579 -0.3271 -0.5484
 5503TIP3    H138000   1.400   0.418   2.924 -0.5693 -0.2192 -2.4969
 5503TIP3    H238001   1.497   0.313   2.972 -1.4327  0.2129  0.3404
 5504TIP3   OH238002   2.883   0.390   4.321 -0.0631  0.0236 -0.4633
 5504TIP3    H138003   2.907   0.439   4.400  0.8514 -0.0548 -0.6813
 5504TIP3    H238004   2.877   0.457   4.253 -0.7679  0.0807 -0.3439
 5505TIP3   OH238005   1.775   2.889  11.550 -0.0584  0.2245 -0.4733
 5505TIP3    H138006   1.741   2.823  11.489 -2.0477  1.5041 -0.8578
 5505TIP3    H238007   1.709   2.893  11.619  0.7408  0.8285  0.2711
 5506TIP3   OH238008   1.598   4.131   1.112  0.0426  0.1348  0.3854
 5506TIP3    H138009   1.605   4.124   1.017 -0.7387  0.2579  0.3144
 5506TIP3    H238010   1.506   4.113   1.131  0.2991 -0.4145  1.1712
 5507TIP3   OH238011   0.268   5.407  12.005  0.3243  0.1039 -0.1431
 5507TIP3    H138012   0.195   5.357  11.968  0.9297  0.0198 -1.2916
 5507TIP3    H238013   0.327   5.340  12.040  0.4031  0.1031 -0.2766
 5508TIP3   OH238014   3.469   6.509  13.652  0.2285 -0.3331 -0.0952
 5508TIP3    H138015   3.387   6.459  13.653  1.5811 -2.7241  1.5152
 5508TIP3    H238016   3.466   6.557  13.570 -1.5497 -2.5760 -1.4867
 5509TIP3   OH238017   5.215   1.877   5.597  0.3590  0.0076  0.5924
 5509TIP3    H138018   5.224   1.910   5.687  1.4428  0.0993  0.4597
 5509TIP3    H238019   5.303   1.884   5.560 -0.4545  2.0820 -1.2115
 5510TIP3   OH238020   3.497   0.824   1.068  0.0118 -0.0169  0.1073
 5510TIP3    H138021   3.493   0.821   1.163 -0.4461 -2.1825  0.0703
 5510TIP3    H238022   3.416   0.866   1.041  0.7210  1.8015  0.6614
 5511TIP3   OH238023   4.925   3.163   3.767 -0.0783  0.0205 -0.0730
 5511TIP3    H138024   4.855   3.105   3.797 -1.8951  1.3514 -1.5021
 5511TIP3    H238025   4.889   3.207   3.690  2.4630  0.5611 -1.0702
 5512TIP3   OH238026   2.546   6.256  15.257  0.0578 -0.2380  0.3350
 5512TIP3    H138027   2.467   6.203  15.242  0.0589  0.0313 -0.7551
 5512TIP3    H238028   2.519   6.345  15.237  0.8972 -0.2875 -1.1963
 5513TIP3   OH238029   6.517   5.573   1.089 -0.1501 -0.0131 -0.2011
 5513TIP3    H138030   6.545   5.484   1.066 -1.1502  0.0399 -1.7688
 5513TIP3    H238031   6.423   5.574   1.069 -0.4233  1.0466  0.9794
 5514TIP3   OH238032   3.740   5.724  12.653 -0.0606 -0.0069  0.5403
 5514TIP3    H138033   3.645   5.733  12.664 -0.0953  0.2345  0.0725
 5514TIP3    H238034   3.751   5.694  12.563  0.1280 -3.4898  1.5651
 5515TIP3   OH238035   5.350   6.412   0.837 -0.4997  0.0319 -0.4032
 5515TIP3    H138036   5.318   6.439   0.924 -0.6940 -2.3287  0.3306
 5515TIP3    H238037   5.425   6.356   0.855  0.1271  0.3611 -1.8436
 5516TIP3   OH238038   5.795   6.150  13.771 -0.4584 -0.2459  0.4100
 5516TIP3    H138039   5.855   6.085  13.734 -0.5200 -0.2584  0.3323
 5516TIP3    H238040   5.836   6.176  13.854  0.1369  0.4565 -0.0946
 5517TIP3   OH238041   4.360   2.828  13.419  0.2526 -0.3892 -1.3073
 5517TIP3    H138042   4.425   2.892  13.389 -0.5554  1.4073  0.5138
 5517TIP3    H238043   4.281   2.848  13.369 -0.1068  0.3190 -0.4767
 5518TIP3   OH238044   4.807   4.960  13.333  0.7330 -0.1522 -0.8800
 5518TIP3    H138045   4.811   5.002  13.419 -1.8803 -1.8459  0.1981
 5518TIP3    H238046   4.891   4.979  13.292  0.7087  3.7947  0.5324
 5519TIP3   OH238047   4.191   6.542   1.489 -0.1341 -0.0597  0.0126
 5519TIP3    H138048   4.150   6.610   1.436  1.1282  0.3520 -0.4692
 5519TIP3    H238049   4.258   6.504   1.432  0.0755 -0.8018  0.7301
 5520TIP3   OH238050   6.546   4.959   1.830  0.0012 -0.1848  0.6398
 5520TIP3    H138051   6.548   4.921   1.917  0.7299 -0.6950  0.4071
 5520TIP3    H238052   6.465   5.010   1.828  1.1668  1.9209  2.4881
 5521TIP3   OH238053   0.225   4.468  13.818  0.0746 -0.1197 -0.1132
 5521TIP3    H138054   0.212   4.389  13.869 -1.0167 -0.2156 -0.5078
 5521TIP3    H238055   0.295   4.446  13.756 -0.1353 -0.7349 -0.1329
 5522TIP3   OH238056   1.190   5.814  10.634  0.5184 -0.0999 -0.3024
 5522TIP3    H138057   1.261   5.807  10.569  1.4467 -1.6610  0.8032
 5522TIP3    H238058   1.125   5.871  10.592  2.1424  0.9111 -1.6113
 5523TIP3   OH238059   2.673   5.120   3.050  0.1108  0.1789  0.5063
 5523TIP3    H138060   2.601   5.115   2.988  0.0422  0.5423  0.5570
 5523TIP3    H238061   2.736   5.055   3.018  0.6407  1.2199 -0.6864
 5524TIP3   OH238062   3.296   5.073  14.939 -0.1986 -0.0109 -0.1489
 5524TIP3    H138063   3.353   5.009  14.982  1.3636 -0.2370 -2.3970
 5524TIP3    H238064   3.277   5.138  15.006 -1.0532 -2.2954  1.9477
 5525TIP3   OH238065   2.433   4.068   1.537 -0.2242  0.5946  0.5025
 5525TIP3    H138066   2.504   4.101   1.593 -0.8885  0.1068  1.6745
 5525TIP3    H238067   2.470   3.990   1.496 -0.1166  0.2472  1.2368
 5526TIP3   OH238068   3.380   4.675   2.978 -0.4420 -0.5760 -0.1102
 5526TIP3    H138069   3.414   4.587   2.963  1.7239 -0.0055  0.9895
 5526TIP3    H238070   3.287   4.669   2.956 -0.3144 -3.0678 -0.2720
 5527TIP3   OH238071   6.126   0.101   2.833  0.4204  0.3469  0.0161
 5527TIP3    H138072   6.095   0.011   2.824  1.3405  0.1537 -1.6836
 5527TIP3    H238073   6.049   0.155   2.814 -0.4198 -0.0193  2.1166
 5528TIP3   OH238074   4.900   3.972   0.824  0.0839 -0.4243  0.5091
 5528TIP3    H138075   4.863   4.053   0.788 -1.2314 -0.5886  1.4503
 5528TIP3    H238076   4.986   3.998   0.857  0.4350  0.1811 -0.8076
 5529TIP3   OH238077   1.257   4.616   0.769  0.8756 -0.0767 -0.1100
 5529TIP3    H138078   1.188   4.668   0.728 -0.4857  0.1992  2.3479
 5529TIP3    H238079   1.226   4.601   0.858  3.5022 -0.9305  0.7480
 5530TIP3   OH238080   4.541   2.782   0.306  0.0341 -0.1233  0.3037
 5530TIP3    H138081   4.544   2.875   0.284 -2.1486 -0.1323 -0.2515
 5530TIP3    H238082   4.478   2.745   0.245  0.3303 -1.8532  0.9821
 5531TIP3   OH238083   1.071   6.351  14.471  0.9198  0.8647  0.0580
 5531TIP3    H138084   1.097   6.361  14.380 -0.0954 -0.1476 -0.3697
 5531TIP3    H238085   0.998   6.411  14.483  1.2268  1.1989  0.2963
 5532TIP3   OH238086   2.921   4.528   4.153  0.2788 -0.0331  0.0507
 5532TIP3    H138087   2.915   4.576   4.236 -2.1231  1.1703 -0.7184
 5532TIP3    H238088   2.989   4.574   4.104 -2.1198  2.9879 -0.7631
 5533TIP3   OH238089   6.395   1.610   3.576 -0.3198 -0.0297  0.5889
 5533TIP3    H138090   6.404   1.680   3.511 -1.5653 -1.8257 -1.6546
 5533TIP3    H238091   6.330   1.644   3.638 -3.0677 -0.1194 -1.9994
 5534TIP3   OH238092   2.577   3.153  13.768 -0.5765  0.0571 -0.0852
 5534TIP3    H138093   2.609   3.098  13.696 -2.4945 -0.1937 -0.8110
 5534TIP3    H238094   2.600   3.105  13.847 -2.1676 -1.8633 -0.6915
 5535TIP3   OH238095   1.556   5.937   5.093 -0.3024 -0.7542  0.0424
 5535TIP3    H138096   1.490   5.956   5.026 -0.8440 -0.7973  0.5598
 5535TIP3    H238097   1.530   5.990   5.168 -0.4978 -1.7616  0.7005
 5536TIP3   OH238098   0.598   1.233   6.000  0.3452 -0.3496  0.6806
 5536TIP3    H138099   0.612   1.142   5.976  1.6238  0.7448 -3.6702
 5536TIP3    H238100   0.590   1.279   5.916  1.3674  3.7931  2.5924
 5537TIP3   OH238101   5.703   4.535  14.181  0.5543 -0.0611  0.1849
 5537TIP3    H138102   5.786   4.490  14.164  0.1503 -0.5916 -0.4220
 5537TIP3    H238103   5.648   4.512  14.107 -0.5508 -0.7029  1.1797
 5538TIP3   OH238104   2.467   1.837   2.429  0.0184 -0.2079  0.0766
 5538TIP3    H138105   2.409   1.828   2.505 -0.6872 -0.1036 -0.4354
 5538TIP3    H238106   2.552   1.859   2.467  0.4069 -2.9794  1.0272
 5539TIP3   OH238107   2.134   5.873   2.747 -0.5175  0.3839  0.6581
 5539TIP3    H138108   2.163   5.917   2.667 -0.9187 -0.1748  0.1997
 5539TIP3    H238109   2.038   5.876   2.743 -0.5982 -1.6197 -0.0256
 5540TIP3   OH238110   0.068   4.594  13.640 -0.3444 -0.0793  0.5762
 5540TIP3    H138111   0.075   4.502  13.614  2.0489 -0.0071  0.7809
 5540TIP3    H238112   0.120   4.600  13.720 -1.4652  1.2258  1.2377
 5541TIP3   OH238113   1.490   6.758   5.445 -0.1680  0.5762 -0.5795
 5541TIP3    H138114   1.406   6.800   5.466  0.3658  1.8059 -0.8067
 5541TIP3    H238115   1.470   6.665   5.440 -1.3231  0.7538  0.3478
 5542TIP3   OH238116   0.745   1.392   4.062  0.1442 -0.0355  0.1006
 5542TIP3    H138117   0.827   1.361   4.100  1.2789  2.0943 -0.4275
 5542TIP3    H238118   0.739   1.347   3.977  2.0128  1.4360 -0.8929
 5543TIP3   OH238119   5.998   4.475  16.479 -0.3614 -0.2493  0.1791
 5543TIP3    H138120   5.994   4.540  16.550 -2.8745 -0.6157  0.4677
 5543TIP3    H238121   5.996   4.390  16.524  1.0053 -0.5565 -0.2780
 5544TIP3   OH238122   5.742   1.499   5.711 -0.2743 -0.0200  0.3294
 5544TIP3    H138123   5.727   1.458   5.796  4.6361 -0.3076  1.3345
 5544TIP3    H238124   5.750   1.593   5.730 -0.7760  0.1133 -0.1036
 5545TIP3   OH238125   1.672   4.238  17.082  0.1347 -0.3311  0.1152
 5545TIP3    H138126   1.638   4.149  17.067 -0.3758  0.1640 -1.8988
 5545TIP3    H238127   1.595   4.288  17.108  0.1794 -0.1796 -0.0508
 5546TIP3   OH238128   5.296   3.519  16.736  0.1930  0.6660 -0.1722
 5546TIP3    H138129   5.310   3.609  16.766  0.0797  0.3243  0.9651
 5546TIP3    H238130   5.214   3.492  16.779  1.1840 -0.5894  1.0320
 5547TIP3   OH238131   2.330   0.689  16.919 -0.4436 -0.0997 -0.1641
 5547TIP3    H138132   2.296   0.704  16.831 -0.7955 -3.0068 -0.6433
 5547TIP3    H238133   2.424   0.680  16.908 -0.5472 -1.0357 -0.3785
 5548TIP3   OH238134   6.122   5.335   5.940  0.2572 -0.9170  0.6008
 5548TIP3    H138135   6.100   5.251   5.979  0.9531 -1.0004  0.8180
 5548TIP3    H238136   6.164   5.385   6.010 -1.1340  0.0288  0.7934
 5549TIP3   OH238137   2.345   3.564   3.566 -0.1652 -0.1893 -0.1855
 5549TIP3    H138138   2.338   3.504   3.640  1.6851 -2.1926 -1.5099
 5549TIP3    H238139   2.412   3.626   3.592 -0.8153  0.2599  0.4852
 5550TIP3   OH238140   5.285   4.152   3.423  0.2467  0.1994 -0.3268
 5550TIP3    H138141   5.317   4.070   3.462 -0.0110  0.4531  0.4470
 5550TIP3    H238142   5.271   4.131   3.331  0.0410 -0.6691 -0.1089
 5551TIP3   OH238143   5.230   3.095  15.720 -0.7394 -0.1421  0.3688
 5551TIP3    H138144   5.152   3.085  15.666  0.6907  0.5302 -1.9329
 5551TIP3    H238145   5.236   3.189  15.736  0.2340 -0.0433 -0.5047
 5552TIP3   OH238146   4.181   6.809  11.729 -0.2454 -0.6466  0.2216
 5552TIP3    H138147   4.202   6.862  11.806 -1.9608  0.4761 -0.0170
 5552TIP3    H238148   4.105   6.757  11.756 -0.1545 -1.0935 -0.3644
 5553TIP3   OH238149   2.338   0.323  11.273  0.0291 -0.2330 -0.9180
 5553TIP3    H138150   2.313   0.274  11.351  2.2195 -2.5075 -1.5199
 5553TIP3    H238151   2.425   0.290  11.250  1.4267  3.5098 -1.8208
 5554TIP3   OH238152   6.445   1.720   0.424  0.1994  0.4552  0.3785
 5554TIP3    H138153   6.529   1.736   0.382  0.1406 -0.5394 -0.1690
 5554TIP3    H238154   6.427   1.627   0.407  0.5142 -0.2230  3.2742
 5555TIP3   OH238155   4.083   4.237  12.948 -0.4524  1.0288 -0.3329
 5555TIP3    H138156   4.061   4.172  12.881  1.8015  2.4436 -2.6612
 5555TIP3    H238157   4.121   4.186  13.020 -0.8394 -0.4088 -1.1045
 5556TIP3   OH238158   0.762   6.194   5.766 -0.1567 -0.7638 -0.3736
 5556TIP3    H138159   0.820   6.270   5.772 -1.6005  0.3415  0.4346
 5556TIP3    H238160   0.813   6.122   5.804  2.0108 -0.7657 -2.9841
 5557TIP3   OH238161   1.304   2.679  14.291  0.1397  0.5628 -0.0510
 5557TIP3    H138162   1.236   2.638  14.344  0.8909  1.6586  1.8340
 5557TIP3    H238163   1.258   2.710  14.213 -1.0727 -0.6642  0.1342
 5558TIP3   OH238164   0.249   0.729   2.683 -0.2978 -0.6448  0.4998
 5558TIP3    H138165   0.334   0.751   2.720 -0.0585 -1.4232  0.4160
 5558TIP3    H238166   0.230   0.641   2.715 -0.7345 -0.7701 -0.0768
 5559TIP3   OH238167   0.949   4.192   3.153  0.0694 -0.0937  0.5636
 5559TIP3    H138168   0.920   4.221   3.240  1.7229  0.2496  1.0381
 5559TIP3    H238169   1.009   4.261   3.124  1.0814 -1.1626  0.0242
 5560TIP3   OH238170   0.856   5.659   5.326 -0.1346 -0.3499  0.0613
 5560TIP3    H138171   0.926   5.687   5.266  0.0446 -1.0532 -0.0702
 5560TIP3    H238172   0.775   5.680   5.279 -0.0691  1.8104  0.8210
 5561TIP3   OH238173   3.165   4.701   3.269  0.0073  0.2916 -1.0167
 5561TIP3    H138174   3.120   4.751   3.337 -1.5692 -0.5063 -1.4171
 5561TIP3    H238175   3.112   4.716   3.190  0.9449 -0.0084 -1.7201
 5562TIP3   OH238176   4.879   4.896  15.128  0.2313 -0.3035  0.1169
 5562TIP3    H138177   4.810   4.902  15.062 -0.1016  1.3275  0.5551
 5562TIP3    H238178   4.831   4.887  15.211  0.5397  0.3867  0.3799
 5563TIP3   OH238179   5.254   4.468   5.554 -0.0520 -0.5238 -0.3642
 5563TIP3    H138180   5.230   4.401   5.618 -0.6356 -0.6296 -0.6861
 5563TIP3    H238181   5.186   4.462   5.486 -0.2551  0.5749 -0.2693
 5564TIP3   OH238182   3.001   1.820   4.483 -0.2420  0.3738 -0.2074
 5564TIP3    H138183   2.906   1.820   4.470 -0.3123  0.1071  0.2792
 5564TIP3    H238184   3.016   1.888   4.550 -0.0412  0.7179 -0.5940
 5565TIP3   OH238185   0.195   2.825   5.887  0.0112  0.0903 -0.2078
 5565TIP3    H138186   0.208   2.840   5.981  2.7958 -0.2596 -0.4410
 5565TIP3    H238187   0.278   2.852   5.847 -1.0919  0.2211 -2.5947
 5566TIP3   OH238188   4.522   2.126  13.652 -0.0965  0.5240 -0.0765
 5566TIP3    H138189   4.457   2.196  13.651 -2.0978 -1.1671  1.6419
 5566TIP3    H238190   4.478   2.051  13.612  0.8767 -0.6171  0.9034
 5567TIP3   OH238191   1.380   2.566   6.120 -0.0246 -0.2135  0.1344
 5567TIP3    H138192   1.305   2.548   6.064 -0.9807  0.9457  0.9872
 5567TIP3    H238193   1.376   2.497   6.187  0.9663 -1.4393 -0.9965
 5568TIP3   OH238194   5.409   6.649   1.993 -0.1102  0.1099 -0.6258
 5568TIP3    H138195   5.437   6.723   2.047 -1.8508  1.2835 -1.2514
 5568TIP3    H238196   5.485   6.630   1.938  1.5784 -0.8788  1.8770
 5569TIP3   OH238197   6.113   0.460   5.762  0.2792 -0.2494 -0.6423
 5569TIP3    H138198   6.105   0.554   5.780 -0.5604 -0.5654  0.8268
 5569TIP3    H238199   6.196   0.435   5.804  0.4806 -0.1784 -0.9951
 5570TIP3   OH238200   2.120   1.127  13.763  0.1525 -0.6368 -0.0084
 5570TIP3    H138201   2.124   1.035  13.739  0.6510 -0.2303 -1.6513
 5570TIP3    H238202   2.077   1.169  13.688  0.8370  0.5980  0.2689
 5571TIP3   OH238203   2.199   4.360   4.011  0.4007  0.1819 -0.9493
 5571TIP3    H138204   2.270   4.422   3.996  0.3419 -0.0515 -2.3432
 5571TIP3    H238205   2.120   4.406   3.985 -0.2787  1.1006  2.3196
 5572TIP3   OH238206   5.379   6.718  11.137  1.1391  0.1944 -0.0710
 5572TIP3    H138207   5.380   6.644  11.197  0.3811 -0.2984 -0.6596
 5572TIP3    H238208   5.378   6.795  11.195  1.8626 -0.2332  0.5375
 5573TIP3   OH238209   5.098   0.944   3.600  0.0734  0.0803  0.0240
 5573TIP3    H138210   5.103   1.026   3.650  0.7717 -0.7203  1.3205
 5573TIP3    H238211   5.187   0.929   3.569 -0.5709  1.2333 -2.6867
 5574TIP3   OH238212   0.022   6.633   2.424  0.2172 -0.1813 -0.1010
 5574TIP3    H138213   0.092   6.698   2.416 -1.4962  1.7875 -0.0097
 5574TIP3    H238214  -0.052   6.672   2.376 -0.8569 -2.1396 -0.1224
 5575TIP3   OH238215   1.520   4.196  15.295  0.1688 -0.4761  0.0222
 5575TIP3    H138216   1.564   4.118  15.261 -0.6240 -0.8172 -0.2534
 5575TIP3    H238217   1.431   4.191  15.259 -0.9621 -1.2352  2.6324
 5576TIP3   OH238218   4.455   5.487   0.648  0.1935 -0.3733 -0.3943
 5576TIP3    H138219   4.382   5.450   0.598 -0.4096 -2.7813  2.0190
 5576TIP3    H238220   4.528   5.428   0.630  1.0899  0.9754 -1.3651
 5577TIP3   OH238221   3.965   1.973  14.198 -0.4145  0.0333  0.2746
 5577TIP3    H138222   3.889   2.011  14.241 -0.2045  1.3725 -0.4676
 5577TIP3    H238223   3.932   1.896  14.153 -1.1022 -0.0242  0.8702
 5578TIP3   OH238224   2.393   0.604   2.959  0.9142 -0.6389  0.0261
 5578TIP3    H138225   2.380   0.655   3.039  1.0428  0.3915 -0.5835
 5578TIP3    H238226   2.476   0.635   2.924  0.3938 -0.3536 -1.0058
 5579TIP3   OH238227   0.202   3.574   0.316 -1.1338  0.4504  0.0551
 5579TIP3    H138228   0.136   3.643   0.323 -1.4388  0.0182  3.3163
 5579TIP3    H238229   0.285   3.621   0.323 -1.2484  0.6938 -0.1935
 5580TIP3   OH238230   6.161   3.736  13.679 -0.4124 -0.4295  0.8279
 5580TIP3    H138231   6.244   3.739  13.633 -0.9496 -0.9702 -0.2248
 5580TIP3    H238232   6.115   3.815  13.651 -0.9414 -1.0067 -0.0191
 5581TIP3   OH238233   2.853   4.656   1.987 -0.0977 -0.0062  0.0887
 5581TIP3    H138234   2.941   4.652   1.950  0.2420 -0.3712  0.9063
 5581TIP3    H238235   2.866   4.697   2.073 -1.0123  1.8344 -0.5991
 5582TIP3   OH238236   3.006   5.174  13.667 -0.2071  0.2098  0.7375
 5582TIP3    H138237   2.920   5.150  13.702  0.2201 -2.8015  0.0371
 5582TIP3    H238238   3.069   5.127  13.722  1.0683  2.3224  1.2154
 5583TIP3   OH238239   6.100   1.987   3.317 -0.0087  0.2060  0.5650
 5583TIP3    H138240   6.035   1.931   3.360  0.6533 -0.5143  0.6428
 5583TIP3    H238241   6.048   2.053   3.271 -0.8273 -0.8976 -0.1327
 5584TIP3   OH238242   3.276   3.346  14.894  0.1965  0.0229 -0.1642
 5584TIP3    H138243   3.370   3.349  14.913  0.3988  1.2425 -1.2171
 5584TIP3    H238244   3.246   3.436  14.905 -0.8677 -0.3607  0.1891
 5585TIP3   OH238245   0.917   3.757  16.940  0.0630 -0.5105 -0.7720
 5585TIP3    H138246   0.892   3.818  16.871 -0.9657  0.3584  0.3427
 5585TIP3    H238247   0.998   3.793  16.976 -0.7408  0.4330  0.1332
 5586TIP3   OH238248   5.302   0.382   1.307  0.2542  0.1199  0.3024
 5586TIP3    H138249   5.259   0.362   1.390 -0.1654 -0.8425 -0.1355
 5586TIP3    H238250   5.306   0.478   1.305  0.6159  0.1433  1.5904
 5587TIP3   OH238251   5.023   3.780   0.613  0.2164  0.1187 -0.4427
 5587TIP3    H138252   4.962   3.821   0.673 -1.2188  0.0948 -1.8012
 5587TIP3    H238253   5.108   3.783   0.657 -1.0197 -1.3927  2.2797
 5588TIP3   OH238254   6.456   1.316   1.069 -0.0136 -0.0436 -0.1735
 5588TIP3    H138255   6.504   1.266   1.135  3.7421  3.1698 -0.1391
 5588TIP3    H238256   6.494   1.286   0.986  0.2176  0.7044 -0.3397
 5589TIP3   OH238257   1.437   3.142   2.575  0.5451  0.2811  0.5165
 5589TIP3    H138258   1.484   3.084   2.634  1.4362  0.8927  0.4255
 5589TIP3    H238259   1.462   3.230   2.602 -0.1410  0.6083  0.1221
 5590TIP3   OH238260   5.413   3.352  11.577  0.0637 -0.2534 -0.3890
 5590TIP3    H138261   5.324   3.364  11.545  0.1512 -2.1974 -1.5225
 5590TIP3    H238262   5.423   3.257  11.586  2.4857 -0.2146 -1.7266
 5591TIP3   OH238263   1.478   4.214   0.818 -0.1150 -0.4184 -0.1726
 5591TIP3    H138264   1.493   4.267   0.740 -0.9006 -0.2100 -0.1799
 5591TIP3    H238265   1.472   4.124   0.785  0.4573 -0.4351 -0.2433
 5592TIP3   OH238266   3.809   0.971   6.484 -0.2644  0.1872  0.2082
 5592TIP3    H138267   3.867   0.905   6.522 -0.6213 -0.0812  0.2972
 5592TIP3    H238268   3.867   1.029   6.435 -0.0284 -0.6356 -0.5064
 5593TIP3   OH238269   4.527   4.865  11.722  0.1862  0.0492 -0.2439
 5593TIP3    H138270   4.549   4.775  11.745 -1.2344 -0.5465 -1.0913
 5593TIP3    H238271   4.550   4.872  11.629 -0.0967  0.4369 -0.2881
 5594TIP3   OH238272   2.318   2.140   5.527 -0.4136 -0.4457 -0.0432
 5594TIP3    H138273   2.234   2.106   5.556 -0.9774  2.3160  1.9113
 5594TIP3    H238274   2.381   2.106   5.590 -0.4256 -0.5334 -0.0777
 5595TIP3   OH238275   6.334   6.586   0.403 -0.2867  0.1500  0.4484
 5595TIP3    H138276   6.297   6.584   0.491  0.8270 -1.3890  0.9444
 5595TIP3    H238277   6.296   6.510   0.359  0.4604 -0.0877  0.1929
 5596TIP3   OH238278   0.262   4.162   2.114 -0.0025 -0.1619  0.0921
 5596TIP3    H138279   0.208   4.083   2.113 -1.2746  0.6829 -0.7151
 5596TIP3    H238280   0.205   4.230   2.078  0.8102  1.2971  1.4735
 5597TIP3   OH238281   1.267   2.857  14.595  0.6740  0.2079  0.2387
 5597TIP3    H138282   1.259   2.949  14.572 -1.4260 -0.4670 -2.1571
 5597TIP3    H238283   1.300   2.815  14.515 -3.9172 -1.8276 -0.8717
 5598TIP3   OH238284   1.853   4.996  13.831  0.2566  0.0578 -0.6280
 5598TIP3    H138285   1.933   4.999  13.885 -0.2193  1.3969  0.0439
 5598TIP3    H238286   1.821   5.086  13.831 -0.2769 -0.1080 -2.4099
 5599TIP3   OH238287   2.937   2.558   4.536 -0.2532  0.0502  0.2296
 5599TIP3    H138288   2.859   2.613   4.531  0.0188  0.5746  1.5035
 5599TIP3    H238289   2.908   2.473   4.503 -0.8766  0.7180 -1.0142
 5600TIP3   OH238290   0.545   6.244   0.544  0.0517 -0.2785 -0.3171
 5600TIP3    H138291   0.581   6.255   0.456  0.4177  0.2695 -0.1054
 5600TIP3    H238292   0.450   6.234   0.530  0.2183 -1.2452 -0.8411
 5601TIP3   OH238293   6.698   5.868   0.807 -0.4020  0.1173  0.0844
 5601TIP3    H138294   6.736   5.819   0.880  0.6346  0.0529 -0.4787
 5601TIP3    H238295   6.750   5.842   0.731  0.0930  1.9721 -0.2617
 5602TIP3   OH238296   5.471   4.347   5.013  0.3039  0.5918  0.3936
 5602TIP3    H138297   5.477   4.300   5.096  0.4922  1.5259  0.9346
 5602TIP3    H238298   5.559   4.384   5.000  0.7040 -0.7574 -0.9836
 5603TIP3   OH238299   5.784   5.629   0.898 -0.1075  0.2768 -0.2205
 5603TIP3    H138300   5.856   5.637   0.835  1.0339 -0.0407  1.0043
 5603TIP3    H238301   5.716   5.582   0.850  0.9606 -0.4734 -1.0518
 5604TIP3   OH238302   0.600   5.615   4.500 -0.4404 -0.3073 -0.7623
 5604TIP3    H138303   0.514   5.653   4.518 -1.5221 -2.3949 -1.1398
 5604TIP3    H238304   0.593   5.583   4.410  1.0615  0.2318 -1.1026
 5605TIP3   OH238305   0.065   3.127  12.787  0.7483  0.4248  0.0400
 5605TIP3    H138306   0.149   3.162  12.758  0.8921 -0.7462 -1.0280
 5605TIP3    H238307   0.005   3.146  12.715  0.2492  0.6329  0.5012
 5606TIP3   OH238308   6.543   2.159  16.476  0.0952 -0.5834 -0.2847
 5606TIP3    H138309   6.578   2.219  16.411  1.0716 -0.9769 -0.1381
 5606TIP3    H238310   6.564   2.072  16.443 -0.0173 -0.8052  0.2164
 5607TIP3   OH238311   4.128   6.085  14.684  0.5233  0.2763  0.3105
 5607TIP3    H138312   4.193   6.154  14.669 -0.4062  1.1015 -0.0204
 5607TIP3    H238313   4.107   6.092  14.778  1.0863 -0.1667  0.4775
 5608TIP3   OH238314   5.649   6.705   0.128  0.0150  0.4103  0.5532
 5608TIP3    H138315   5.610   6.788   0.156 -0.9147 -0.1853  1.0769
 5608TIP3    H238316   5.729   6.696   0.180  0.6836  1.4698 -0.2621
 5609TIP3   OH238317   3.824   6.040   2.531  0.1276  0.2094 -0.2658
 5609TIP3    H138318   3.856   5.960   2.488 -1.0561 -1.4734  1.7755
 5609TIP3    H238319   3.826   6.106   2.462  1.1290 -1.5735 -2.0763
 5610TIP3   OH238320   3.769   5.892   3.331 -0.2125 -0.2316 -0.4634
 5610TIP3    H138321   3.783   5.986   3.321 -0.3402 -0.2515 -0.8382
 5610TIP3    H238322   3.674   5.882   3.340 -0.3734 -0.4677 -2.1176
 5611TIP3   OH238323   6.587   5.014   3.675 -0.1425 -0.2158  0.2745
 5611TIP3    H138324   6.570   5.001   3.582  0.0309  0.8556  0.0778
 5611TIP3    H238325   6.677   4.985   3.688 -0.4686 -1.2302  0.3013
 5612TIP3   OH238326   1.419   0.938   5.415 -0.7040  0.5195  0.0443
 5612TIP3    H138327   1.401   0.844   5.425 -1.7507  0.5162 -1.4725
 5612TIP3    H238328   1.363   0.980   5.479 -1.0239  0.1492  0.0157
 5613TIP3   OH238329   6.265   4.355  14.932 -0.6637 -0.4730 -0.1035
 5613TIP3    H138330   6.332   4.420  14.953  0.8174 -0.9693 -2.8315
 5613TIP3    H238331   6.196   4.371  14.996  0.1694  2.9098  0.1650
 5614TIP3   OH238332   5.762   0.505  14.950  0.3999  0.4904  0.0054
 5614TIP3    H138333   5.793   0.416  14.939  0.0358  0.0797  1.8645
 5614TIP3    H238334   5.788   0.528  15.039 -1.9120  1.2187  0.5696
 5615TIP3   OH238335   4.263   1.204   2.029  0.0729 -0.3696 -0.2583
 5615TIP3    H138336   4.296   1.153   1.954  0.2824  0.7161 -0.9310
 5615TIP3    H238337   4.313   1.286   2.026 -1.9910  0.9410 -0.7541
 5616TIP3   OH238338   4.804   0.801   3.805 -0.7148  0.1991 -0.4821
 5616TIP3    H138339   4.763   0.728   3.851  0.4470 -0.0582  0.1742
 5616TIP3    H238340   4.884   0.765   3.767 -1.0076  0.7229 -1.6554
 5617TIP3   OH238341   0.492   4.796  14.291 -0.0509 -0.2164  0.1011
 5617TIP3    H138342   0.403   4.813  14.261 -0.6990 -0.5346  1.7460
 5617TIP3    H238343   0.504   4.855  14.366  1.3003  0.1715 -0.3819
 5618TIP3   OH238344   0.618   2.368  13.551  0.7048 -0.0437 -0.0991
 5618TIP3    H138345   0.695   2.341  13.600  1.4934  2.7841  0.3996
 5618TIP3    H238346   0.547   2.368  13.615  1.0246  0.5214  0.2569
 5619TIP3   OH238347   3.513   0.241  15.116 -0.4927 -0.0246 -0.6050
 5619TIP3    H138348   3.427   0.272  15.145  0.2713  0.5947  1.0824
 5619TIP3    H238349   3.512   0.147  15.137 -0.4672  0.1407  0.1538
 5620TIP3   OH238350   3.714   6.677  11.491 -0.4326  0.1784  0.3131
 5620TIP3    H138351   3.768   6.734  11.546  1.2836 -0.7395 -0.3343
 5620TIP3    H238352   3.673   6.737  11.429  1.0348  0.7918 -0.1243
 5621TIP3   OH238353   5.993   5.522  13.465 -0.1893 -0.3984  0.1060
 5621TIP3    H138354   6.039   5.589  13.515  0.0859 -0.2335 -0.3730
 5621TIP3    H238355   6.018   5.440  13.507  1.3134 -0.3982 -0.7397
 5622TIP3   OH238356   1.655   0.098   4.231  0.2117  0.1451  0.0521
 5622TIP3    H138357   1.592   0.169   4.217 -0.1766  0.2074  1.8654
 5622TIP3    H238358   1.731   0.141   4.271 -0.3355 -0.5333  1.9011
 5623TIP3   OH238359   5.671   0.964   1.405  0.4239 -0.0892 -0.0732
 5623TIP3    H138360   5.675   1.059   1.410  0.2898  0.0282 -1.6703
 5623TIP3    H238361   5.749   0.939   1.355  0.4199 -0.8114  0.2612
 5624TIP3   OH238362   5.975   6.772  16.137  0.0045  0.2369 -0.5105
 5624TIP3    H138363   6.027   6.696  16.164  0.4596  0.6951 -0.0954
 5624TIP3    H238364   6.039   6.837  16.111 -0.3975 -0.0508 -2.3903
 5625TIP3   OH238365   3.314   2.907  16.272  0.5854 -0.0070  0.0579
 5625TIP3    H138366   3.221   2.918  16.291  1.0577  1.1301  1.9849
 5625TIP3    H238367   3.332   2.816  16.294  0.2226  0.1626  1.1003
 5626TIP3   OH238368   6.030   2.289  16.231 -0.2130 -0.3583  0.4512
 5626TIP3    H138369   5.958   2.302  16.294 -0.8209  0.2294 -0.3378
 5626TIP3    H238370   5.989   2.304  16.146  0.9352  0.3477  0.0065
 5627TIP3   OH238371   4.977   4.360   6.362  0.0632  0.3025 -0.0053
 5627TIP3    H138372   4.906   4.393   6.417  0.3229  0.2486  0.3626
 5627TIP3    H238373   4.932   4.311   6.293 -0.2774  0.6139 -0.0107
 5628TIP3   OH238374   4.689   3.006  15.488  0.0737  0.2247 -0.0677
 5628TIP3    H138375   4.703   3.013  15.583  1.0379  0.0086 -0.1797
 5628TIP3    H238376   4.602   3.042  15.474  0.8177  2.4737  0.6369
 5629TIP3   OH238377   4.299   4.523   1.545  0.1968 -0.3264  0.2403
 5629TIP3    H138378   4.274   4.490   1.458 -0.4095  2.4458 -0.7522
 5629TIP3    H238379   4.319   4.616   1.530  0.7554  0.0741  2.9728
 5630TIP3   OH238380   0.180   3.800  12.503 -0.3454 -0.4825 -0.6302
 5630TIP3    H138381   0.266   3.798  12.461  0.8403  1.7598  1.4232
 5630TIP3    H238382   0.184   3.731  12.569  0.2639  0.1822  0.0497
 5631TIP3   OH238383   6.499   4.809  13.678  0.3944 -0.0769 -0.3454
 5631TIP3    H138384   6.487   4.903  13.696  1.9736  0.4328 -1.6893
 5631TIP3    H238385   6.526   4.772  13.762 -0.8791  0.5229  0.3608
 5632TIP3   OH238386   2.932   4.985   3.283  0.5514  0.4447  0.3876
 5632TIP3    H138387   2.980   4.922   3.338 -0.3050 -2.1074 -1.6103
 5632TIP3    H238388   2.840   4.969   3.303  0.3243  1.6652  0.4053
 5633TIP3   OH238389   4.602   5.488  10.640  0.5059 -0.5678  0.7114
 5633TIP3    H138390   4.571   5.567  10.683  0.4102 -1.2075  1.8681
 5633TIP3    H238391   4.603   5.422  10.709  3.7026 -0.8161  0.5704
 5634TIP3   OH238392   3.404   6.447   4.626  0.1795  0.1506 -0.3889
 5634TIP3    H138393   3.390   6.531   4.670  1.7541  0.7661 -0.9815
 5634TIP3    H238394   3.433   6.388   4.696 -0.6470  0.1594 -0.0238
 5635TIP3   OH238395   3.575   2.007  13.022  0.7997  0.0633  0.0211
 5635TIP3    H138396   3.630   2.057  13.082  1.4775 -1.3726  0.6611
 5635TIP3    H238397   3.589   2.047  12.936  0.9960  1.2031  0.5750
 5636TIP3   OH238398   4.992   1.141   5.655  0.5290 -0.3077  0.1658
 5636TIP3    H138399   5.072   1.188   5.677 -0.0346  0.2336  1.1483
 5636TIP3    H238400   4.929   1.170   5.720 -0.9178  0.4596 -1.4753
 5637TIP3   OH238401   6.264   1.129  14.294 -0.2841  0.0830  0.3852
 5637TIP3    H138402   6.332   1.076  14.337 -0.4390 -0.6728 -0.2723
 5637TIP3    H238403   6.182   1.084  14.315 -0.5440  0.7730  0.8531
 5638TIP3   OH238404   6.006   2.474  13.271 -0.5219  0.0273  0.2371
 5638TIP3    H138405   6.067   2.471  13.345  0.7057 -2.8329 -0.7510
 5638TIP3    H238406   6.063   2.473  13.194 -1.8278  0.8872 -0.7791
 5639TIP3   OH238407   0.865   6.675   2.612  0.4951 -0.3112  0.4622
 5639TIP3    H138408   0.952   6.698   2.645  0.0625  0.9477  0.7636
 5639TIP3    H238409   0.832   6.610   2.674  0.4578  0.6350  1.4763
 5640TIP3   OH238410   1.035   3.220  17.052  0.1116  0.5259  0.4328
 5640TIP3    H138411   1.074   3.205  16.966 -0.7393 -0.1919  0.1510
 5640TIP3    H238412   0.958   3.162  17.053 -1.2393  2.2298  0.7570
 5641TIP3   OH238413   1.465   5.135  13.023 -0.6264 -0.5519 -0.2185
 5641TIP3    H138414   1.501   5.070  12.963  0.7583  0.7102 -0.8394
 5641TIP3    H238415   1.491   5.219  12.985  0.6514  0.3206  2.2995
 5642TIP3   OH238416   0.540   1.692  12.725 -0.1752 -0.3794 -0.1182
 5642TIP3    H138417   0.590   1.632  12.669  0.3904  0.3314 -0.3851
 5642TIP3    H238418   0.452   1.693  12.687  0.2656  0.2913 -1.1709
 5643TIP3   OH238419   1.606   0.195  16.059  0.1612  0.0328  0.3625
 5643TIP3    H138420   1.667   0.166  16.127  2.4251  4.0659  0.3690
 5643TIP3    H238421   1.544   0.251  16.106 -0.0327  0.5519 -0.5053
 5644TIP3   OH238422   2.431   3.442   5.456 -0.1549  0.0252 -0.4992
 5644TIP3    H138423   2.410   3.350   5.438  1.2496  0.2179 -3.9124
 5644TIP3    H238424   2.451   3.445   5.549 -2.8062 -2.5515  0.3041
 5645TIP3   OH238425   6.251   4.431   0.172 -0.1669 -0.1285 -0.3439
 5645TIP3    H138426   6.330   4.459   0.220 -0.6351  0.0835  0.3098
 5645TIP3    H238427   6.283   4.367   0.109  0.7516  0.9519 -1.0160
 5646TIP3   OH238428   2.300   1.447   0.119  0.4350  0.5576  0.9808
 5646TIP3    H138429   2.281   1.409   0.205 -4.0302 -0.9960 -0.3810
 5646TIP3    H238430   2.245   1.525   0.114 -1.0249 -0.4908 -1.0538
 5647TIP3   OH238431   3.893   1.299  15.104  0.1093  0.3070  0.5088
 5647TIP3    H138432   3.927   1.252  15.029  0.3250  0.0154  0.7862
 5647TIP3    H238433   3.866   1.384  15.069 -0.4850 -0.0984 -0.0283
 5648TIP3   OH238434   0.927   0.482  13.740  0.2558  0.6012  0.3660
 5648TIP3    H138435   0.939   0.565  13.693  0.3924  0.6083  0.4128
 5648TIP3    H238436   0.978   0.419  13.690  1.1538  0.7931  1.0177
 5649TIP3   OH238437   2.054   6.553  12.111 -0.2199  0.1765  0.3038
 5649TIP3    H138438   2.090   6.486  12.053  0.0841  1.4473 -1.0306
 5649TIP3    H238439   2.120   6.622  12.112 -0.8256  0.7649  1.1011
 5650TIP3   OH238440   2.327   1.042   5.120 -0.4612 -0.0277  0.7630
 5650TIP3    H138441   2.245   1.091   5.116 -0.4955  0.0749  2.1786
 5650TIP3    H238442   2.395   1.109   5.111 -0.5147 -0.1274 -0.5339
 5651TIP3   OH238443   5.417   4.889   4.133  0.2795 -0.0597  0.1090
 5651TIP3    H138444   5.499   4.840   4.140 -0.3299 -1.0031  1.0370
 5651TIP3    H238445   5.432   4.951   4.062  1.5412 -0.7137 -0.2310
 5652TIP3   OH238446   1.603   0.217   5.269 -0.4254 -0.1376 -0.5998
 5652TIP3    H138447   1.571   0.269   5.343  0.0811  1.1357 -1.2383
 5652TIP3    H238448   1.682   0.264   5.240  1.5131 -2.6063  0.2988
 5653TIP3   OH238449   5.944   3.389  13.756  0.1370  0.2969  0.0930
 5653TIP3    H138450   6.008   3.416  13.822 -1.0430 -0.7012  1.7290
 5653TIP3    H238451   5.915   3.471  13.716  1.0807  0.9057  0.6043
 5654TIP3   OH238452   4.976   1.429  11.320  0.3864  0.7820 -0.2753
 5654TIP3    H138453   5.062   1.407  11.357  0.8576  0.2243 -1.6233
 5654TIP3    H238454   4.913   1.397  11.385  1.1805  0.0257  0.1480
 5655TIP3   OH238455   2.657   4.664  16.226  0.1584  0.1392  0.3371
 5655TIP3    H138456   2.571   4.631  16.251 -0.0144 -1.4518 -2.0013
 5655TIP3    H238457   2.715   4.636  16.297 -0.8266 -1.1487  0.6757
 5656TIP3   OH238458   4.320   6.733   2.339 -0.4789  0.3809 -0.0181
 5656TIP3    H138459   4.245   6.777   2.299 -0.3458  0.3200 -0.3363
 5656TIP3    H238460   4.364   6.802   2.389  0.9005  1.1710 -2.1482
 5657TIP3   OH238461   1.038   3.290   0.809 -0.3035 -0.1343 -0.1160
 5657TIP3    H138462   1.030   3.351   0.882  2.0226  0.2771 -0.1377
 5657TIP3    H238463   0.990   3.212   0.838 -1.1183  0.7411  0.9897
 5658TIP3   OH238464   1.911   6.290  16.556  0.6971  0.4626 -0.4234
 5658TIP3    H138465   1.884   6.198  16.553 -0.1083  0.6535  0.3564
 5658TIP3    H238466   2.001   6.290  16.523  0.6542 -0.5809 -0.5740
 5659TIP3   OH238467   2.688   5.636  15.474 -0.2688 -0.4429 -0.2408
 5659TIP3    H138468   2.726   5.712  15.519 -0.5571  1.2864 -2.6945
 5659TIP3    H238469   2.594   5.642  15.494 -0.0489 -1.3841  1.1991
 5660TIP3   OH238470   6.187   0.892   1.986 -0.3245  0.6841 -0.1304
 5660TIP3    H138471   6.137   0.810   1.980 -0.0374  0.5401 -0.5942
 5660TIP3    H238472   6.133   0.955   1.938 -1.2179  1.1149  1.3626
 5661TIP3   OH238473   0.537   5.020   4.307 -0.1729 -0.4268 -0.3914
 5661TIP3    H138474   0.538   5.100   4.360  1.8342  0.1285 -1.2005
 5661TIP3    H238475   0.490   4.956   4.361 -1.8208  1.2519  0.2752
 5662TIP3   OH238476   4.446   3.310  12.047 -0.0796  0.3086  0.3346
 5662TIP3    H138477   4.452   3.245  12.117 -1.4681  0.5631  0.7247
 5662TIP3    H238478   4.491   3.270  11.973 -0.1638 -0.7394  0.8340
 5663TIP3   OH238479   4.621   5.714   3.743  0.5227 -0.0296  0.3951
 5663TIP3    H138480   4.670   5.783   3.788  1.3971 -0.5221  0.2074
 5663TIP3    H238481   4.560   5.762   3.686 -0.5287  0.6032  1.9847
 5664TIP3   OH238482   2.693   2.825  14.959  0.0560 -0.9659  1.0285
 5664TIP3    H138483   2.634   2.879  15.011  1.9288 -0.2031  2.5098
 5664TIP3    H238484   2.637   2.758  14.919 -1.8953  0.2790  1.5562
 5665TIP3   OH238485   4.491   2.113   5.356  0.1352  1.0202  0.5856
 5665TIP3    H138486   4.580   2.144   5.378 -0.3808  1.5809  2.0206
 5665TIP3    H238487   4.474   2.044   5.420 -0.1268  0.2571 -0.2890
 5666TIP3   OH238488   6.536   4.242  14.812 -0.2921  0.1803 -0.1760
 5666TIP3    H138489   6.505   4.292  14.888 -1.7968 -0.6375 -0.2138
 5666TIP3    H238490   6.480   4.164  14.811  0.1730 -0.1536 -1.7233
 5667TIP3   OH238491   1.520   3.802   4.364  0.2883  0.1386 -0.5120
 5667TIP3    H138492   1.611   3.827   4.381  0.4523 -1.0762  0.5916
 5667TIP3    H238493   1.472   3.832   4.441  0.0468 -0.6120 -0.3583
 5668TIP3   OH238494   5.008   0.776  14.552 -0.4328  0.0319  0.0174
 5668TIP3    H138495   5.055   0.819  14.481 -1.1801 -0.3781 -0.7487
 5668TIP3    H238496   4.922   0.756  14.515 -0.3342 -1.5101  0.5485
 5669TIP3   OH238497   1.270   2.969   1.899 -0.8225  0.1626  0.0722
 5669TIP3    H138498   1.330   3.011   1.960 -2.1921 -1.0284  2.3836
 5669TIP3    H238499   1.225   3.041   1.856  0.9855  1.0434 -0.4402
 5670TIP3   OH238500   3.650   2.520  11.378  0.5881  0.1663 -0.0519
 5670TIP3    H138501   3.720   2.471  11.422  0.6620  0.5451  0.2650
 5670TIP3    H238502   3.638   2.476  11.294 -0.8067 -1.7041  1.0543
 5671TIP3   OH238503   2.303   3.992  12.148 -0.0117 -0.0942 -0.0919
 5671TIP3    H138504   2.228   4.009  12.092  1.1301 -0.2647 -1.7268
 5671TIP3    H238505   2.322   4.076  12.189 -1.4950 -0.2067  0.9008
 5672TIP3   OH238506   4.512   5.346  13.806  0.2895 -0.0172  0.2479
 5672TIP3    H138507   4.537   5.368  13.896 -0.8426  2.2644  0.0640
 5672TIP3    H238508   4.582   5.383  13.752  0.2461 -0.1253  0.1163
 5673TIP3   OH238509   0.126   6.504  15.590 -0.5205 -0.2408  0.5837
 5673TIP3    H138510   0.221   6.497  15.584 -0.6129 -2.3219  0.7902
 5673TIP3    H238511   0.094   6.470  15.507 -1.0948  0.4521  0.5125
 5674TIP3   OH238512   4.813   5.833  14.527  0.3446 -0.3334  0.0329
 5674TIP3    H138513   4.745   5.793  14.581  0.5502  1.3033  1.5935
 5674TIP3    H238514   4.891   5.779  14.544  0.2420 -0.2367  0.8710
 5675TIP3   OH238515   3.937   2.194   0.087 -0.3916  0.0706 -0.6293
 5675TIP3    H138516   3.850   2.162   0.062  0.2763 -1.0025 -1.6716
 5675TIP3    H238517   3.982   2.117   0.121  0.3399  0.5080 -0.5885
 5676TIP3   OH238518   6.338   5.621  11.423 -0.3829 -0.0340 -0.4299
 5676TIP3    H138519   6.358   5.710  11.452  0.7867  0.1588 -1.7099
 5676TIP3    H238520   6.275   5.632  11.352 -1.3489 -0.3361  0.3677
 5677TIP3   OH238521   5.247   2.819  16.570 -0.6104 -0.2999  0.4059
 5677TIP3    H138522   5.161   2.778  16.564  0.2924 -2.4165  1.2135
 5677TIP3    H238523   5.285   2.810  16.483 -0.4358 -1.1530  0.5684
 5678TIP3   OH238524   2.448   2.687   6.352 -0.1332  0.4287 -0.3102
 5678TIP3    H138525   2.395   2.742   6.410  1.0053  1.3543 -0.1133
 5678TIP3    H238526   2.386   2.651   6.289 -1.1293  0.7493  0.4720
 5679TIP3   OH238527   4.058   2.540  11.660  0.1064  0.1578  0.1337
 5679TIP3    H138528   4.114   2.462  11.656  1.2977  0.9377  1.0832
 5679TIP3    H238529   4.000   2.531  11.584 -0.4290 -2.1148  0.7331
 5680TIP3   OH238530   6.626   0.003   5.994 -0.2297 -0.4667 -0.2057
 5680TIP3    H138531   6.565  -0.054   6.041 -0.8714  2.0705  2.2642
 5680TIP3    H238532   6.659   0.064   6.060  2.7113  0.2143 -2.0872
 5681TIP3   OH238533   4.355   4.722  12.070 -0.0756 -0.2309  0.3611
 5681TIP3    H138534   4.412   4.749  12.143 -0.8315 -0.3493  1.0123
 5681TIP3    H238535   4.312   4.803  12.043 -0.5484 -0.3563  0.7230
 5682TIP3   OH238536   3.869   5.886  15.304  0.1483  0.3478 -0.2289
 5682TIP3    H138537   3.914   5.837  15.235  1.2366  0.5399  0.3398
 5682TIP3    H238538   3.931   5.889  15.376 -0.1015  2.0955 -0.0501
 5683TIP3   OH238539   2.736   1.476  14.607  0.1853 -0.0786 -0.1910
 5683TIP3    H138540   2.772   1.420  14.538 -1.7893 -1.4157 -0.2234
 5683TIP3    H238541   2.795   1.551  14.610  2.2424 -1.5683 -0.9884
 5684TIP3   OH238542   0.772   0.751  11.439 -0.1296 -0.1308 -0.1996
 5684TIP3    H138543   0.836   0.680  11.432 -0.6348 -0.4863 -1.6189
 5684TIP3    H238544   0.825   0.831  11.435  0.2793 -0.4238 -0.8294
 5685TIP3   OH238545   4.619   6.011   5.290  0.2365 -0.1138  0.5295
 5685TIP3    H138546   4.665   5.956   5.354  0.7593  1.3299  1.4465
 5685TIP3    H238547   4.663   5.993   5.207 -0.7900 -2.4047  0.4137
 5686TIP3   OH238548   2.628   0.662   0.741  0.1776  0.4542  0.3454
 5686TIP3    H138549   2.570   0.737   0.733  0.6884  0.9067  0.8165
 5686TIP3    H238550   2.716   0.699   0.741  0.4403 -0.1600  0.3589
 5687TIP3   OH238551   3.823   2.110  16.988  0.5504 -0.2680 -0.2526
 5687TIP3    H138552   3.895   2.171  16.972  2.3522 -1.9491  0.9656
 5687TIP3    H238553   3.864   2.023  16.988 -1.9008 -1.5417 -1.9373
 5688TIP3   OH238554   0.913   5.144  16.368 -0.2844 -0.3987  0.3332
 5688TIP3    H138555   0.915   5.049  16.374 -1.6387 -0.3852  1.4248
 5688TIP3    H238556   1.002   5.171  16.390 -0.0511 -1.3768  0.6414
 5689TIP3   OH238557   6.622   5.879  16.724  0.1749 -0.8665 -0.6843
 5689TIP3    H138558   6.696   5.937  16.705  0.5595 -0.8403  0.8388
 5689TIP3    H238559   6.553   5.938  16.754 -0.2186 -0.9799 -1.3343
 5690TIP3   OH238560   4.035   4.177   3.323 -0.3735 -0.5676 -0.0395
 5690TIP3    H138561   3.960   4.202   3.377 -0.5545 -0.4347 -0.3461
 5690TIP3    H238562   4.095   4.251   3.332  0.5822 -1.5116  1.7440
 5691TIP3   OH238563   2.798   1.442   5.311  0.0973  0.0229  0.4065
 5691TIP3    H138564   2.775   1.534   5.324  0.4464  0.0462  0.8675
 5691TIP3    H238565   2.893   1.440   5.317  0.1039 -0.3469  0.2207
 5692TIP3   OH238566   0.971   0.646   1.518  0.2878  0.0583  0.7327
 5692TIP3    H138567   0.897   0.633   1.458  1.4852 -1.9563 -0.4352
 5692TIP3    H238568   0.947   0.596   1.596  0.2581 -0.3246  0.4837
 5693TIP3   OH238569   0.015   1.934   5.271 -0.2104  0.5887 -0.1814
 5693TIP3    H138570   0.050   1.878   5.340 -0.3363  0.0259 -0.5673
 5693TIP3    H238571  -0.078   1.913   5.267 -0.3848  1.2857  0.0958
 5694TIP3   OH238572   5.483   4.032  14.228  0.2813 -0.6651  0.1591
 5694TIP3    H138573   5.426   4.085  14.173  0.9685  0.7974  0.8109
 5694TIP3    H238574   5.496   3.951  14.179 -1.8080 -0.7800 -0.3015
 5695TIP3   OH238575   6.174   1.108  16.912 -0.6747  0.0466 -0.8171
 5695TIP3    H138576   6.169   1.202  16.927  1.4224  0.3877 -1.9111
 5695TIP3    H238577   6.145   1.069  16.994 -0.4272  1.6672  0.0734
 5696TIP3   OH238578   1.351   2.011  10.958  0.0100  0.2628  0.1082
 5696TIP3    H138579   1.433   2.060  10.968  0.0158  0.2859 -0.0500
 5696TIP3    H238580   1.317   2.003  11.047  0.6040 -0.4728  0.2762
 5697TIP3   OH238581   0.894   5.487   6.160  0.3743  0.0116 -0.1475
 5697TIP3    H138582   0.916   5.394   6.170  1.0084  0.2438  0.7149
 5697TIP3    H238583   0.799   5.491   6.168  0.4876 -0.3523  1.6217
 5698TIP3   OH238584   4.216   0.417   2.162 -0.4191  0.3639 -0.0548
 5698TIP3    H138585   4.174   0.453   2.084  1.8704  1.2120 -0.9996
 5698TIP3    H238586   4.184   0.472   2.234 -0.5930  1.2863 -0.8078
 5699TIP3   OH238587   5.221   3.313   0.306 -0.5631 -0.3712 -0.0542
 5699TIP3    H138588   5.146   3.366   0.278 -1.6117 -1.6943  0.1525
 5699TIP3    H238589   5.246   3.349   0.391  1.0072  2.0124 -1.4073
 5700TIP3   OH238590   2.060   4.115  12.075  0.9879  0.4134 -0.1334
 5700TIP3    H138591   2.045   4.072  12.159  1.8283  0.8625  0.2488
 5700TIP3    H238592   1.972   4.125  12.038  0.7191 -1.2103 -0.0341
 5701TIP3   OH238593   2.734   4.920  13.919 -0.1150  0.1200 -0.5982
 5701TIP3    H138594   2.797   4.990  13.906 -0.1894  0.3920  0.3984
 5701TIP3    H238595   2.787   4.841  13.927  0.0216  0.1831 -0.8693
 5702TIP3   OH238596   1.700   3.851  14.187 -0.1251  0.2576 -0.0784
 5702TIP3    H138597   1.640   3.777  14.181  0.3967 -0.2372  0.5848
 5702TIP3    H238598   1.645   3.925  14.212 -0.6560  0.1101 -0.7902
 5703TIP3   OH238599   5.777   6.501  16.055  0.2528  0.2199 -0.0463
 5703TIP3    H138600   5.852   6.441  16.059 -0.1111 -0.2102  0.4237
 5703TIP3    H238601   5.709   6.458  16.106 -0.8541 -0.1192 -1.7558
 5704TIP3   OH238602   4.442   3.762  12.718  0.0202  0.3019  0.1816
 5704TIP3    H138603   4.429   3.796  12.629  0.1236 -0.4576 -0.1244
 5704TIP3    H238604   4.363   3.711  12.736 -0.9265  2.0508  1.2972
 5705TIP3   OH238605   2.041   0.155   4.263 -0.5118  0.3926  0.1308
 5705TIP3    H138606   1.969   0.197   4.311 -0.4719 -1.5749  2.0706
 5705TIP3    H238607   2.097   0.119   4.331  0.9033 -0.4255 -1.4026
 5706TIP3   OH238608   2.340   4.938   4.867 -0.0345  0.2143 -0.1524
 5706TIP3    H138609   2.360   4.874   4.800 -1.3174 -0.0479 -0.3086
 5706TIP3    H238610   2.390   5.016   4.842  0.1035 -0.1346 -0.9717
 5707TIP3   OH238611   6.534   6.685   5.401  0.6378  0.0182 -0.4605
 5707TIP3    H138612   6.618   6.719   5.371 -1.2077  3.2753 -2.4997
 5707TIP3    H238613   6.521   6.724   5.487  1.5383 -1.2109  0.2573
 5708TIP3   OH238614   0.560   6.533  14.082  0.5941 -0.1740  0.0255
 5708TIP3    H138615   0.646   6.558  14.114  0.5676 -0.8102  0.6312
 5708TIP3    H238616   0.565   6.438  14.072  0.1179 -0.1599 -0.3985
 5709TIP3   OH238617   4.788   1.788  11.547 -0.5126 -0.1026 -0.0348
 5709TIP3    H138618   4.796   1.832  11.462  0.9879  0.3124  0.2836
 5709TIP3    H238619   4.858   1.826  11.600 -1.4417 -0.3313  1.4111
 5710TIP3   OH238620   2.971   1.626   5.008 -0.0163  0.4442 -0.0935
 5710TIP3    H138621   2.902   1.648   5.070 -0.6730  0.0727 -0.6805
 5710TIP3    H238622   2.963   1.531   4.996 -2.8998  0.9226 -4.1235
 5711TIP3   OH238623   3.201   3.416  15.252  0.4976  0.3486 -0.0090
 5711TIP3    H138624   3.280   3.469  15.249  0.0323  1.1236  0.9387
 5711TIP3    H238625   3.135   3.468  15.206  0.6252 -0.4934 -1.2019
 5712TIP3   OH238626   1.048   5.978  12.754 -0.0103  0.6147  0.0515
 5712TIP3    H138627   0.973   5.969  12.814  0.0024 -0.1144 -0.0258
 5712TIP3    H238628   1.121   5.938  12.801  0.1064  0.4609 -0.2590
 5713TIP3   OH238629   1.609   5.869  14.313 -0.2361 -0.1766 -0.2759
 5713TIP3    H138630   1.690   5.821  14.296  0.4058  1.1699 -1.1576
 5713TIP3    H238631   1.610   5.941  14.250 -1.4350  0.6730  0.6320
 5714TIP3   OH238632   0.920   6.133  11.602  0.2551  0.0421 -0.1229
 5714TIP3    H138633   0.909   6.054  11.549  0.4983  0.4774 -0.8338
 5714TIP3    H238634   1.014   6.145  11.609  0.2739 -0.7308  1.5310
 5715TIP3   OH238635   6.521   2.072   6.272 -0.3054 -0.1722 -0.1137
 5715TIP3    H138636   6.443   2.018   6.268 -1.0026  0.5971  1.8829
 5715TIP3    H238637   6.593   2.012   6.257 -1.2303 -1.0236 -1.2763
 5716TIP3   OH238638   4.319   6.836  14.912  0.0199  0.2502 -0.1904
 5716TIP3    H138639   4.233   6.835  14.953 -0.3776  2.7196 -0.7916
 5716TIP3    H238640   4.302   6.813  14.820  0.0932  0.2527 -0.2052
 5717TIP3   OH238641   0.859   6.166  13.864 -0.3331  0.4255  0.3034
 5717TIP3    H138642   0.896   6.255  13.865  0.0172  0.2826  0.9459
 5717TIP3    H238643   0.936   6.109  13.870 -0.5662  0.0840  0.0457
 5718TIP3   OH238644   0.412   5.994  10.516  0.2769 -0.4133  0.6240
 5718TIP3    H138645   0.320   5.967  10.511  0.3701 -0.9553  1.6564
 5718TIP3    H238646   0.449   5.940  10.585  0.7279  1.6334  2.0656
 5719TIP3   OH238647   4.492   0.744  11.607 -0.0870  0.2361  0.5600
 5719TIP3    H138648   4.527   0.823  11.649 -1.1572  0.6067  0.7776
 5719TIP3    H238649   4.400   0.743  11.631  0.0246 -1.3885  1.0110
 5720TIP3   OH238650   5.963   1.562  14.222  0.8168  0.1012 -0.7435
 5720TIP3    H138651   5.993   1.474  14.246  0.8619  0.4528  0.5982
 5720TIP3    H238652   5.868   1.554  14.217  0.7917  0.0514 -0.2538
 5721TIP3   OH238653   5.515   4.894   1.557 -0.4045  0.3830 -0.6948
 5721TIP3    H138654   5.551   4.808   1.536  0.9579  1.1090 -1.4803
 5721TIP3    H238655   5.420   4.883   1.550 -0.2985 -1.2247 -0.0492
 5722TIP3   OH238656   3.842   6.618  13.756 -0.2549  0.1926  0.2434
 5722TIP3    H138657   3.796   6.546  13.798  0.4694  0.3994  1.4655
 5722TIP3    H238658   3.822   6.694  13.811  0.2593  0.5965 -0.1157
 5723TIP3   OH238659   1.394   4.929   5.169  0.9682  0.1389  0.4229
 5723TIP3    H138660   1.349   4.891   5.244  0.8076 -1.4363 -0.4274
 5723TIP3    H238661   1.467   4.869   5.152  0.5621  0.0325 -1.1077
 5724TIP3   OH238662   4.214   4.154  14.199 -0.0365  0.3238  0.0715
 5724TIP3    H138663   4.262   4.078  14.166  1.0697  1.2339 -0.4983
 5724TIP3    H238664   4.136   4.158  14.143 -0.1300 -0.4130  0.1379
 5725TIP3   OH238665   4.117   5.898   4.908 -0.5353  0.4072 -0.1364
 5725TIP3    H138666   4.083   5.830   4.850  1.4221  0.4265 -1.3939
 5725TIP3    H238667   4.044   5.917   4.967 -0.9804 -3.3032  0.8122
 5726TIP3   OH238668   4.996   2.702  16.465  0.0414  0.4297 -0.0814
 5726TIP3    H138669   4.983   2.793  16.438  1.8824  0.3942 -1.3048
 5726TIP3    H238670   5.009   2.655  16.382  1.5335 -0.4905  0.6386
 5727TIP3   OH238671   0.970   5.949  12.479 -0.4441 -0.0800 -0.1198
 5727TIP3    H138672   1.008   5.936  12.565  1.3270  0.3324 -0.8054
 5727TIP3    H238673   0.887   5.995  12.496  0.9406  2.0937  1.2616
 5728TIP3   OH238674   6.502   1.922  10.734 -0.3687  1.1016  0.0375
 5728TIP3    H138675   6.497   1.898  10.642  1.4742 -0.6455  0.3230
 5728TIP3    H238676   6.594   1.946  10.748  0.2097 -1.7484  2.0261
 5729TIP3   OH238677   1.308   6.649  16.148  0.3781  0.6621  0.0621
 5729TIP3    H138678   1.398   6.650  16.180 -0.3377  1.6331  2.2925
 5729TIP3    H238679   1.294   6.738  16.113 -0.2659  1.1965  1.5935
 5730TIP3   OH238680   1.266   4.601   2.102 -0.3766 -0.0797  0.1500
 5730TIP3    H138681   1.340   4.549   2.070  0.0717  0.9456 -0.5378
 5730TIP3    H238682   1.301   4.690   2.109 -1.7849  0.6124 -1.0886
 5731TIP3   OH238683   5.652   2.317   0.871 -0.4960  0.2683  0.1701
 5731TIP3    H138684   5.629   2.263   0.795  0.1268  0.9148 -0.4843
 5731TIP3    H238685   5.719   2.376   0.839  0.2815  0.0882  1.4064
 5732TIP3   OH238686   5.601   4.560   4.615  0.3881  0.0786 -0.2089
 5732TIP3    H138687   5.521   4.532   4.571  0.7618 -2.3696  0.5304
 5732TIP3    H238688   5.570   4.606   4.694 -0.2509  1.5652 -1.2872
 5733TIP3   OH238689   6.753   2.645  11.715 -0.0753  0.2306 -0.5078
 5733TIP3    H138690   6.816   2.581  11.748 -0.9315 -0.7869 -0.7786
 5733TIP3    H238691   6.681   2.643  11.778  0.8800  2.7153  0.8107
 5734TIP3   OH238692   1.972   0.005   5.187 -0.1378  0.3312 -0.7550
 5734TIP3    H138693   1.971  -0.029   5.098 -1.1343  0.2161 -0.7120
 5734TIP3    H238694   1.959  -0.073   5.242 -2.1835  0.6833 -0.6432
 5735TIP3   OH238695   4.824   4.492  11.563 -0.9068 -0.2655  0.1323
 5735TIP3    H138696   4.791   4.403  11.578 -1.3665 -0.5009 -2.0352
 5735TIP3    H238697   4.893   4.482  11.497 -0.5197  0.9299  0.3214
 5736TIP3   OH238698   2.326   6.557   2.101 -0.6849 -0.4343 -0.5064
 5736TIP3    H138699   2.259   6.622   2.123 -1.4351 -1.3481 -0.0006
 5736TIP3    H238700   2.286   6.503   2.033 -0.6247 -1.2366  0.0836
 5737TIP3   OH238701   6.040   0.133   2.341 -0.0990  0.0475  0.4767
 5737TIP3    H138702   6.067   0.048   2.306 -1.5743 -1.2637  2.2792
 5737TIP3    H238703   5.948   0.121   2.363 -0.9045  2.7959 -1.0279
 5738TIP3   OH238704   0.513   6.657   2.613 -0.3157  0.0989 -0.3190
 5738TIP3    H138705   0.500   6.635   2.706  1.8906  0.2018  0.0807
 5738TIP3    H238706   0.538   6.573   2.573 -2.6935 -0.2497 -1.1773
 5739TIP3   OH238707   0.550   0.110  11.633  0.3586 -0.0753 -0.1018
 5739TIP3    H138708   0.464   0.127  11.595 -0.3721 -0.4616  1.3133
 5739TIP3    H238709   0.608   0.097  11.557 -1.2936 -2.1956 -1.0904
 5740TIP3   OH238710   1.723   6.375  16.310 -0.1685  0.3599 -0.0133
 5740TIP3    H138711   1.726   6.334  16.224  1.7765 -0.4564  0.3917
 5740TIP3    H238712   1.635   6.356  16.343 -1.9885  2.9769 -2.8142
 5741TIP3   OH238713   0.522   0.141   5.272  0.5465  0.2559 -0.0437
 5741TIP3    H138714   0.566   0.056   5.265  0.7608  0.3839 -0.2946
 5741TIP3    H238715   0.579   0.201   5.223 -1.0349  0.0001 -2.3462
 5742TIP3   OH238716   6.467   6.829  15.670  0.0743  0.2240 -0.5617
 5742TIP3    H138717   6.416   6.906  15.697 -0.0296  0.7884 -2.2570
 5742TIP3    H238718   6.477   6.778  15.750  0.3971  2.1521  0.6831
 5743TIP3   OH238719   5.162   6.287   3.161 -0.4542  0.1771  0.0126
 5743TIP3    H138720   5.107   6.285   3.240 -1.0010  1.6073 -0.3065
 5743TIP3    H238721   5.212   6.205   3.165 -2.1117 -0.8649  0.6575
 5744TIP3   OH238722   3.035   1.173  13.498 -0.3756 -0.4981  0.1369
 5744TIP3    H138723   2.992   1.259  13.499 -2.0389 -1.3006  0.7745
 5744TIP3    H238724   2.969   1.113  13.532  0.7975 -2.0309 -0.2037
 5745TIP3   OH238725   1.780   0.763  11.128 -0.3942 -0.0326  0.4678
 5745TIP3    H138726   1.731   0.760  11.046  0.1862 -0.5294  0.1299
 5745TIP3    H238727   1.775   0.855  11.156 -1.5886 -0.0935  0.4942
 5746TIP3   OH238728   3.512   2.904   1.182 -0.3358  0.2029 -0.1067
 5746TIP3    H138729   3.527   2.995   1.155 -2.0723 -0.1550 -2.6840
 5746TIP3    H238730   3.459   2.910   1.261 -0.8695  1.4327 -0.5503
 5747TIP3   OH238731   4.285   3.735  12.320  0.1376  0.4261 -0.1639
 5747TIP3    H138732   4.363   3.700  12.277  0.1122  1.3998 -1.0402
 5747TIP3    H238733   4.301   3.829  12.325 -0.2397  0.4459  1.2224
 5748TIP3   OH238734   3.268   0.843   0.927 -0.1840  0.1900 -1.2770
 5748TIP3    H138735   3.213   0.861   0.850 -0.0547  0.8919 -1.2166
 5748TIP3    H238736   3.230   0.764   0.966  0.0485 -0.4684 -2.3397
 5749TIP3   OH238737   1.820   2.258   6.126 -0.7950  0.2550  0.1771
 5749TIP3    H138738   1.844   2.322   6.192  0.3931 -0.1872  0.1980
 5749TIP3    H238739   1.849   2.174   6.162  0.4635  0.0763 -1.1286
 5750TIP3   OH238740   2.179   6.804   4.434  0.5087 -0.1004  0.9539
 5750TIP3    H138741   2.127   6.824   4.512 -0.0065 -0.6999  0.7759
 5750TIP3    H238742   2.163   6.711   4.419  1.5080 -0.2537  0.7976
 5751TIP3   OH238743   2.958   6.258  13.069 -0.5858 -0.1474 -0.3579
 5751TIP3    H138744   3.046   6.268  13.031 -0.5408 -1.6444 -0.7258
 5751TIP3    H238745   2.973   6.213  13.152 -0.9883 -0.2690 -0.3510
 5752TIP3   OH238746   5.213   5.160  14.049  0.2539  1.0614 -0.1249
 5752TIP3    H138747   5.135   5.155  13.993  1.0007 -0.7668 -1.0927
 5752TIP3    H238748   5.286   5.159  13.987  1.1117  3.8023  0.6989
 5753TIP3   OH238749   5.283   3.763  15.685 -0.0463  0.1337 -0.0695
 5753TIP3    H138750   5.226   3.705  15.635 -1.0979  1.1456 -0.1082
 5753TIP3    H238751   5.369   3.755  15.645  0.1563 -2.3340  0.7276
 5754TIP3   OH238752   4.955   6.553   0.392 -0.3659 -0.0044  0.2162
 5754TIP3    H138753   4.978   6.461   0.405  1.0773  0.2776 -0.1717
 5754TIP3    H238754   5.039   6.599   0.387 -1.0672  1.4912  1.3962
 5755TIP3   OH238755   6.339   5.115   2.840 -0.3759  0.0654  0.0386
 5755TIP3    H138756   6.365   5.171   2.766 -0.5065  0.5729  0.3701
 5755TIP3    H238757   6.272   5.165   2.885 -0.6397 -0.4573  0.2270
 5756TIP3   OH238758   0.065   2.764  13.018  0.2394 -0.0332 -0.1663
 5756TIP3    H138759   0.044   2.764  12.925  0.9692  0.5543 -0.3383
 5756TIP3    H238760   0.107   2.848  13.033  0.3116 -0.2084  0.6537
 5757TIP3   OH238761   1.445   4.282  11.025  0.2786  0.2897 -0.1796
 5757TIP3    H138762   1.384   4.332  10.971  0.9139  0.4823 -0.7317
 5757TIP3    H238763   1.391   4.214  11.065 -0.4639  0.9888  0.0383
 5758TIP3   OH238764   4.132   3.042   1.452 -0.4081  0.5205  0.0888
 5758TIP3    H138765   4.178   2.969   1.410  0.7971  1.6003 -0.4963
 5758TIP3    H238766   4.089   3.002   1.528  3.0514 -0.2407  1.8463
 5759TIP3   OH238767   3.378   4.554  13.885  0.2600  0.0386  0.6728
 5759TIP3    H138768   3.396   4.484  13.822 -0.7664 -0.5586  1.0230
 5759TIP3    H238769   3.453   4.614  13.876  1.7100 -1.6206  1.1362
 5760TIP3   OH238770   0.484   4.194   0.639 -0.0788  0.2328  0.2504
 5760TIP3    H138771   0.575   4.192   0.669  0.1464  0.7342 -0.3666
 5760TIP3    H238772   0.490   4.221   0.547 -0.8495  0.2277  0.1917
 5761TIP3   OH238773   4.134   1.053   1.744  0.2609 -0.0846 -0.1977
 5761TIP3    H138774   4.200   0.984   1.738 -0.6725 -1.0724  0.5537
 5761TIP3    H238775   4.068   1.018   1.803 -0.3979  1.3372 -0.0572
 5762TIP3   OH238776   0.260   0.981  10.111 -0.2048 -0.2762  0.4717
 5762TIP3    H138777   0.291   0.891  10.123  1.2125  0.1453  0.2664
 5762TIP3    H238778   0.165   0.975  10.109 -0.1053 -1.8789 -0.4073
 5763TIP3   OH238779   5.914   0.354  12.388  0.3992  0.1149  0.1702
 5763TIP3    H138780   5.939   0.377  12.299  0.2069  0.4201  0.1932
 5763TIP3    H238781   5.956   0.269  12.404 -2.6074 -1.8654 -1.5461
 5764TIP3   OH238782   3.767   2.296  14.127  0.4944 -0.9573  0.7053
 5764TIP3    H138783   3.743   2.372  14.181  3.4742  0.5853  0.0581
 5764TIP3    H238784   3.826   2.332  14.061  0.8213 -3.6422 -0.5806
 5765TIP3   OH238785   5.281   6.227   2.868 -0.3035  0.3693 -0.1953
 5765TIP3    H138786   5.308   6.153   2.813 -0.4521  1.7351 -2.2058
 5765TIP3    H238787   5.349   6.234   2.934  1.0089 -0.0584 -1.4481
 5766TIP3   OH238788   0.144   5.858   4.902 -0.4860 -0.2384 -0.3684
 5766TIP3    H138789   0.116   5.767   4.890 -1.3638  0.0836 -0.7964
 5766TIP3    H238790   0.116   5.903   4.823 -0.9379  0.6227  0.2663
 5767TIP3   OH238791   4.600   0.388   1.407  0.1971  0.6684  0.3819
 5767TIP3    H138792   4.616   0.336   1.328 -2.5534 -1.0748  0.8367
 5767TIP3    H238793   4.677   0.373   1.462  2.0914  1.7637 -1.7788
 5768TIP3   OH238794   4.697   0.692  16.019 -0.1206  1.1036 -0.2675
 5768TIP3    H138795   4.771   0.637  15.996  0.4838  1.0223  1.6601
 5768TIP3    H238796   4.625   0.659  15.965  0.3452 -1.2446  0.4204
 5769TIP3   OH238797   3.672   0.529  14.224 -0.6093 -0.1520  0.1570
 5769TIP3    H138798   3.758   0.531  14.265 -0.3334 -0.9715 -0.3705
 5769TIP3    H238799   3.632   0.447  14.253 -0.2748 -0.9311 -1.4289
 5770TIP3   OH238800   3.003   1.449  13.888  0.3310  0.3251 -0.0187
 5770TIP3    H138801   2.972   1.508  13.820  0.3263  0.6732  0.2836
 5770TIP3    H238802   3.019   1.366  13.843 -1.8128 -0.1269 -0.0447
 5771TIP3   OH238803   0.258   4.874   6.543 -0.2342 -0.2151 -0.8807
 5771TIP3    H138804   0.166   4.879   6.568 -0.3007 -1.0064 -0.9353
 5771TIP3    H238805   0.283   4.784   6.564  1.1754  0.6352  1.3299
 5772TIP3   OH238806   0.653   0.289   4.794  0.5626 -0.0357  0.0541
 5772TIP3    H138807   0.571   0.310   4.749 -0.0548 -0.7089  0.8269
 5772TIP3    H238808   0.722   0.312   4.732 -0.2537 -1.1630 -1.3205
 5773TIP3   OH238809   5.107   4.180   1.600 -0.1188  0.6632  0.2494
 5773TIP3    H138810   5.091   4.239   1.673  1.5680 -0.5149  1.6495
 5773TIP3    H238811   5.183   4.217   1.556  2.2010 -1.3179  2.2818
 5774TIP3   OH238812   0.843   1.095  14.441  0.0033  0.1736 -0.0055
 5774TIP3    H138813   0.804   1.111  14.355 -0.7378  0.0123  0.2853
 5774TIP3    H238814   0.859   1.000  14.443 -1.4668 -0.1017  0.6039
 5775TIP3   OH238815   5.657   2.860  13.357 -0.1838  0.6176  0.3720
 5775TIP3    H138816   5.632   2.791  13.418  1.4357  0.3897  0.8375
 5775TIP3    H238817   5.731   2.822  13.308  1.1761  2.2136  1.0936
 5776TIP3   OH238818   1.902   1.685  16.792  0.2495 -0.2594  0.1479
 5776TIP3    H138819   1.862   1.676  16.878  1.0083 -0.7352  0.4554
 5776TIP3    H238820   1.976   1.624  16.793  1.7620  1.5163  0.0441
 5777TIP3   OH238821   2.348   3.039   5.624  0.9589  0.2101  0.5538
 5777TIP3    H138822   2.380   2.950   5.638  0.3169  0.1252  1.5816
 5777TIP3    H238823   2.427   3.090   5.602  1.2195 -0.7522 -0.9085
 5778TIP3   OH238824   2.346   5.961  11.136 -0.7295  0.2828 -0.9384
 5778TIP3    H138825   2.288   6.013  11.081  1.0766  0.9771 -2.3044
 5778TIP3    H238826   2.428   5.957  11.086  0.2765 -0.9599  0.7288
 5779TIP3   OH238827   1.624   0.503   2.210  0.3744 -0.3628 -0.3439
 5779TIP3    H138828   1.619   0.586   2.257  1.2058 -0.8649  0.7031
 5779TIP3    H238829   1.537   0.464   2.221  0.6876 -0.6912  1.2738
 5780TIP3   OH238830   3.596   4.468   3.308  0.0346 -0.1602  0.2794
 5780TIP3    H138831   3.595   4.451   3.402  1.0409 -1.6180  0.0574
 5780TIP3    H238832   3.533   4.406   3.271 -0.9366  0.9354  0.0504
 5781TIP3   OH238833   2.751   2.511  13.889  0.1879 -0.3667 -0.3165
 5781TIP3    H138834   2.803   2.536  13.813  1.0389 -1.5146 -0.1354
 5781TIP3    H238835   2.735   2.594  13.935  0.2597  0.2436 -1.3555
 5782TIP3   OH238836   6.634   0.624   4.608 -0.0378  0.1994 -0.1898
 5782TIP3    H138837   6.540   0.622   4.595 -0.1993  0.4322  0.8216
 5782TIP3    H238838   6.664   0.703   4.564 -0.3401  0.2050 -0.3830
 5783TIP3   OH238839   0.774   2.883  13.476 -0.0302 -0.0087  0.0699
 5783TIP3    H138840   0.811   2.959  13.520  2.3054  0.5348 -2.5401
 5783TIP3    H238841   0.831   2.810  13.499 -0.5300 -0.3624  0.2230
 5784TIP3   OH238842   3.299   5.818  13.944 -0.5550  0.4816 -0.2773
 5784TIP3    H138843   3.246   5.754  13.990 -0.6191 -0.1101 -1.1472
 5784TIP3    H238844   3.384   5.775  13.931 -0.3957  0.8007 -0.3276
 5785TIP3   OH238845   1.036   2.073  14.196 -0.1382  0.4229 -0.5620
 5785TIP3    H138846   0.982   2.001  14.229  0.4393  0.2231 -0.0316
 5785TIP3    H238847   1.077   2.039  14.117 -0.1155  0.2790 -0.4887
 5786TIP3   OH238848   3.773   2.375   4.367 -0.6180  0.4838  0.1654
 5786TIP3    H138849   3.812   2.289   4.381  0.6963  1.1709  0.9700
 5786TIP3    H238850   3.770   2.414   4.455 -0.9173  1.3640 -0.2253
 5787TIP3   OH238851   5.453   2.156   3.551  0.6379 -0.0621  0.3302
 5787TIP3    H138852   5.427   2.097   3.622 -1.9774 -0.7257 -1.0542
 5787TIP3    H238853   5.510   2.102   3.496  0.0810 -0.5947  0.2613
 5788TIP3   OH238854   4.368   1.441   4.202  0.1016  0.3457  0.4208
 5788TIP3    H138855   4.279   1.442   4.166 -0.1524  0.8660  1.0466
 5788TIP3    H238856   4.371   1.363   4.258  1.0219 -1.4484 -1.9415
 5789TIP3   OH238857   5.085   0.541   1.697 -0.1706  0.0093 -0.0292
 5789TIP3    H138858   5.083   0.556   1.791  1.6350  1.0004 -0.1091
 5789TIP3    H238859   5.070   0.447   1.687  4.6944 -1.2757  1.6953
 5790TIP3   OH238860   1.641   2.661  17.041 -0.6131  0.4411  0.4547
 5790TIP3    H138861   1.586   2.669  17.119 -2.8820  0.3995 -1.0494
 5790TIP3    H238862   1.617   2.737  16.987 -0.1247 -0.2804 -0.8180
 5791TIP3   OH238863   6.228   1.382   3.308  0.5546 -0.6141  0.0468
 5791TIP3    H138864   6.296   1.446   3.288 -0.1543 -0.2578 -1.3247
 5791TIP3    H238865   6.164   1.430   3.360 -0.1818 -0.0643 -1.3324
 5792TIP3   OH238866   6.195   6.615  15.923 -0.0520  0.0896  0.1048
 5792TIP3    H138867   6.279   6.622  15.968  0.9650  1.3826 -1.8581
 5792TIP3    H238868   6.208   6.547  15.857 -0.3485  0.6600 -0.5580
 5793TIP3   OH238869   5.740   2.176  14.540  0.3885  0.1235  0.0732
 5793TIP3    H138870   5.675   2.173  14.470  0.6710  1.1259 -0.2397
 5793TIP3    H238871   5.692   2.148  14.618  0.2683 -1.7692 -0.6326
 5794TIP3   OH238872   3.201   3.476  10.815 -0.1574 -0.9446  0.9608
 5794TIP3    H138873   3.208   3.555  10.761 -1.4511 -1.0883  0.5449
 5794TIP3    H238874   3.114   3.480  10.852 -0.4473 -2.4316  0.5085
 5795TIP3   OH238875   6.281   4.786  13.974  0.5618  0.4200 -0.5113
 5795TIP3    H138876   6.255   4.735  13.898 -2.7467  1.7700 -0.4611
 5795TIP3    H238877   6.338   4.855  13.938 -1.3356  1.3337 -1.9458
 5796TIP3   OH238878   6.196   6.360  14.506 -0.2558 -0.1108  0.8030
 5796TIP3    H138879   6.151   6.426  14.558  1.1350  0.7113  1.0188
 5796TIP3    H238880   6.265   6.327  14.564 -0.3519 -1.1142  0.3833
 5797TIP3   OH238881   6.720   0.291  11.101  0.0654  0.2996  0.0328
 5797TIP3    H138882   6.766   0.370  11.073  1.6807 -0.9386 -0.9382
 5797TIP3    H238883   6.789   0.230  11.125 -1.1676 -0.6645  1.2898
 5798TIP3   OH238884   0.887   6.394  12.462 -0.2301 -0.1926  0.4740
 5798TIP3    H138885   0.962   6.338  12.481 -0.9143 -1.3098 -0.0434
 5798TIP3    H238886   0.913   6.442  12.384  0.9489  1.3728  1.7442
 5799TIP3   OH238887   6.574   1.048   0.663  0.2395 -0.3899 -0.5924
 5799TIP3    H138888   6.623   0.995   0.726 -2.1311 -1.9677  0.0229
 5799TIP3    H238889   6.517   0.986   0.617 -2.4001  1.5074 -0.1111
 5800TIP3   OH238890   1.075   6.028  16.634  0.0004 -0.0798 -0.6807
 5800TIP3    H138891   1.040   5.942  16.614  0.1195 -0.2379 -0.2283
 5800TIP3    H238892   1.062   6.079  16.554 -1.8609  0.0644 -0.3469
 5801TIP3   OH238893   2.008   0.366  11.676 -0.0936  0.4896 -0.6203
 5801TIP3    H138894   2.065   0.434  11.712 -0.6593  0.5792  0.1152
 5801TIP3    H238895   1.932   0.414  11.642  0.4848  0.4223 -2.0748
 5802TIP3   OH238896   0.507   5.240   3.253 -0.6357 -0.0691  1.1565
 5802TIP3    H138897   0.468   5.179   3.316  0.2906 -0.6030  1.2420
 5802TIP3    H238898   0.594   5.203   3.236 -0.5585  0.5363  0.2090
 5803TIP3   OH238899   3.407   0.567  14.906  0.1505  0.1908  0.2145
 5803TIP3    H138900   3.419   0.581  15.000  1.6730  0.3412  0.0325
 5803TIP3    H238901   3.452   0.641  14.865  0.8774 -0.7034 -0.6409
 5804TIP3   OH238902   0.570   0.983  16.076  0.3841  0.7554  0.1568
 5804TIP3    H138903   0.665   0.988  16.082  0.4696 -1.3847  1.8881
 5804TIP3    H238904   0.554   0.918  16.007  0.3215 -1.2989  2.0271
 5805TIP3   OH238905   2.905   5.332  16.333 -0.6165  0.3812 -0.6259
 5805TIP3    H138906   2.921   5.349  16.426 -1.6802  0.1660 -0.3858
 5805TIP3    H238907   2.991   5.333  16.293 -0.0644 -0.2563  0.4943
 5806TIP3   OH238908   2.674   2.394  12.856 -0.8005 -0.0282  0.4479
 5806TIP3    H138909   2.611   2.400  12.785 -0.7117  0.5549  0.4138
 5806TIP3    H238910   2.622   2.369  12.932 -1.2797  1.5869  0.6824
 5807TIP3   OH238911   4.126   5.648   1.776  0.0025 -0.2807  0.1884
 5807TIP3    H138912   4.199   5.702   1.743  1.8934 -1.6271  1.9096
 5807TIP3    H238913   4.125   5.572   1.718 -0.2290 -0.1406  0.0054
 5808TIP3   OH238914   3.310   5.003  15.269 -0.3884 -0.0520  0.1299
 5808TIP3    H138915   3.309   5.090  15.230  0.1017  0.5729  1.4429
 5808TIP3    H238916   3.335   5.018  15.360 -3.8665 -1.1303  1.4383
 5809TIP3   OH238917   4.142   1.903  15.706  0.4495  0.4459  0.4298
 5809TIP3    H138918   4.056   1.894  15.747  0.2532  0.4443  0.0225
 5809TIP3    H238919   4.157   1.997  15.702  0.4492  0.4474  0.4678
 5810TIP3   OH238920   4.410   2.599   0.664  0.1199 -0.2289 -0.2639
 5810TIP3    H138921   4.453   2.677   0.628  2.6513 -1.0231  0.8081
 5810TIP3    H238922   4.381   2.626   0.751  1.7385 -0.6629  0.4369
 5811TIP3   OH238923   4.288   3.687  14.322 -0.9926 -0.1652  0.6803
 5811TIP3    H138924   4.374   3.654  14.345 -0.4107  0.9258  0.1395
 5811TIP3    H238925   4.258   3.630  14.252 -0.7140 -0.5383  0.8603
 5812TIP3   OH238926   3.200   2.667  12.288 -1.4242 -0.4361 -0.4337
 5812TIP3    H138927   3.115   2.686  12.328 -2.0084 -0.7726 -1.4784
 5812TIP3    H238928   3.201   2.572  12.279 -1.4684 -0.3422 -1.5419
 5813TIP3   OH238929   0.909   1.822  11.709 -0.0833 -0.4382  0.0097
 5813TIP3    H138930   0.961   1.752  11.671  1.2292  0.9872 -0.9394
 5813TIP3    H238931   0.821   1.808  11.674  0.5435 -0.6057 -1.5944
 5814TIP3   OH238932   1.654   6.677   5.704  0.0277 -0.0869 -0.1819
 5814TIP3    H138933   1.586   6.687   5.638 -1.1465 -0.2596  0.9574
 5814TIP3    H238934   1.627   6.733   5.776  1.7297  0.7712 -0.1461
 5815TIP3   OH238935   0.458   4.549   5.341 -0.0425  0.4563  0.3635
 5815TIP3    H138936   0.514   4.520   5.413 -0.5179  1.8101  1.3079
 5815TIP3    H238937   0.424   4.467   5.304  1.7175 -0.3519  0.4108
 5816TIP3   OH238938   2.093   6.582  13.546  0.5924  0.7217 -0.5997
 5816TIP3    H138939   2.006   6.614  13.569  0.4825 -0.8086  1.2747
 5816TIP3    H238940   2.077   6.501  13.497  0.8700 -1.2576  2.3290
 5817TIP3   OH238941   4.000   1.606  11.383 -0.1927 -0.2448 -0.3678
 5817TIP3    H138942   4.036   1.546  11.317 -0.6190 -1.5306  0.5393
 5817TIP3    H238943   3.959   1.675  11.331 -0.1570 -1.0095 -1.4642
 5818TIP3   OH238944   5.222   1.575   4.485 -0.2355  0.0286 -0.5227
 5818TIP3    H138945   5.168   1.496   4.476  2.0887 -1.7920  0.3025
 5818TIP3    H238946   5.311   1.545   4.462  0.9471  2.0822  1.0492
 5819TIP3   OH238947   2.714   2.979   5.121 -0.7009  0.2087 -0.2851
 5819TIP3    H138948   2.727   2.993   5.027  0.6445  0.1401 -0.1259
 5819TIP3    H238949   2.802   2.983   5.158 -0.8992 -2.4844  0.6313
 5820TIP3   OH238950   4.838   1.531   0.188  0.1225  0.8722 -0.4562
 5820TIP3    H138951   4.786   1.611   0.200  0.8100  1.5288 -1.6578
 5820TIP3    H238952   4.916   1.561   0.142  0.7589 -0.3850 -0.2186
 5821TIP3   OH238953   6.748   6.537   3.628  0.1740  0.6427  0.0052
 5821TIP3    H138954   6.653   6.534   3.620  0.0615  0.0998  1.2526
 5821TIP3    H238955   6.764   6.542   3.723  1.4163 -0.8527 -0.0812
 5822TIP3   OH238956   0.817   6.585   5.110  0.2870 -0.2037 -0.7126
 5822TIP3    H138957   0.724   6.603   5.095  0.1303  0.1661  0.6068
 5822TIP3    H238958   0.862   6.649   5.055 -0.2644  0.9158  0.0929
 5823TIP3   OH238959   2.995   4.731  16.847  0.1217 -0.2991  0.1107
 5823TIP3    H138960   3.026   4.797  16.909  1.4108  0.2529 -1.0547
 5823TIP3    H238961   2.905   4.758  16.827 -0.0857 -0.1159  1.2295
 5824TIP3   OH238962   3.076   5.855  13.264  0.1165 -0.3836  0.2708
 5824TIP3    H138963   3.094   5.880  13.174 -1.2690 -0.8626 -0.1678
 5824TIP3    H238964   3.071   5.759  13.262 -1.8018 -0.3292  0.4373
 5825TIP3   OH238965   0.929   2.069   0.465 -0.1700 -0.1896 -0.1494
 5825TIP3    H138966   0.956   2.160   0.456  1.1913 -0.6842 -1.4964
 5825TIP3    H238967   0.852   2.072   0.522  1.7895  1.4431  2.6444
 5826TIP3   OH238968   6.592   0.555  15.371 -0.1755 -0.4605 -0.2811
 5826TIP3    H138969   6.612   0.648  15.383 -0.1010 -0.3801 -0.9874
 5826TIP3    H238970   6.676   0.511  15.383 -0.1551 -0.4061 -0.2269
 5827TIP3   OH238971   2.969   3.902  16.986 -0.2726 -0.1434  0.1894
 5827TIP3    H138972   3.046   3.863  17.028  0.3662  0.4183 -0.4163
 5827TIP3    H238973   2.898   3.840  17.003  0.7850 -1.8312 -1.1298
 5828TIP3   OH238974   3.962   0.499  14.163 -1.0543  0.3200  0.2074
 5828TIP3    H138975   3.973   0.405  14.178 -0.9418  0.2371 -0.3818
 5828TIP3    H238976   3.930   0.506  14.073 -1.1619  0.8413  0.2830
 5829TIP3   OH238977   0.736   6.807  15.969 -0.0418 -0.8102  0.3212
 5829TIP3    H138978   0.803   6.774  16.029 -0.4681 -2.5826 -0.1096
 5829TIP3    H238979   0.760   6.898  15.954  2.4174 -1.4365 -0.0165
 5830TIP3   OH238980   2.664   4.296   0.350 -0.2282  0.0719 -0.4039
 5830TIP3    H138981   2.714   4.365   0.394 -0.7335 -0.5386  1.1716
 5830TIP3    H238982   2.688   4.216   0.396 -2.0256 -0.3549 -0.1446
 5831TIP3   OH238983   3.154   4.405  14.970 -0.0579 -0.5599  0.2511
 5831TIP3    H138984   3.154   4.310  14.969 -1.6101 -0.5902  0.3637
 5831TIP3    H238985   3.191   4.430  14.885 -0.2945 -1.2746 -0.0681
 5832TIP3   OH238986   1.056   3.650   4.493  0.4144  0.2137  0.1039
 5832TIP3    H138987   1.054   3.615   4.404 -1.7346 -0.5612  0.4133
 5832TIP3    H238988   1.029   3.577   4.549  1.9456  0.6191  1.4468
 5833TIP3   OH238989   6.629   5.808  15.011  0.0575 -0.4278 -0.2921
 5833TIP3    H138990   6.673   5.726  15.033  0.8069 -0.5032 -1.9947
 5833TIP3    H238991   6.674   5.840  14.933 -0.2747  1.5769  0.2899
 5834TIP3   OH238992   4.794   2.327  16.549  0.1906  0.1224  0.3480
 5834TIP3    H138993   4.866   2.370  16.595  0.2186  1.5151 -0.9109
 5834TIP3    H238994   4.756   2.396  16.495 -1.6961 -0.7485  0.4975
 5835TIP3   OH238995   3.210   3.953   5.824  0.4641 -0.3747  0.0866
 5835TIP3    H138996   3.120   3.967   5.794  0.5092 -0.1719  0.0456
 5835TIP3    H238997   3.201   3.902   5.905  0.2191  1.2425  1.1156
 5836TIP3   OH238998   5.074   5.410  14.721 -0.7145 -0.1956 -0.1816
 5836TIP3    H138999   5.014   5.357  14.772 -1.0435  1.8932  1.7264
 5836TIP3    H239000   5.146   5.431  14.781 -0.8606  1.9210 -0.6616
 5837TIP3   OH239001   2.496   3.091  12.684 -0.3886  0.3393  0.1786
 5837TIP3    H139002   2.531   3.010  12.647  0.6574  0.5418  0.6755
 5837TIP3    H239003   2.410   3.101  12.644 -1.5416 -2.1752  1.7613
 5838TIP3   OH239004   4.003   4.064   3.610  0.2991  0.2739  0.2154
 5838TIP3    H139005   3.940   4.128   3.576  1.0866  1.3734  0.7723
 5838TIP3    H239006   4.083   4.115   3.625  1.0072 -0.8868  0.4986
 5839TIP3   OH239007   5.738   4.190   0.806  0.4660  0.5548 -0.5390
 5839TIP3    H139008   5.693   4.275   0.814 -0.1977  0.0859  1.0005
 5839TIP3    H239009   5.807   4.206   0.741 -1.3235  1.5537 -2.3237
 5840TIP3   OH239010   4.250   5.265   0.168 -0.2876  0.1670  0.6205
 5840TIP3    H139011   4.313   5.227   0.229 -0.8485  0.5291  1.4434
 5840TIP3    H239012   4.284   5.352   0.149 -0.5269  0.3599  1.0587
 5841TIP3   OH239013   5.552   4.534   5.586 -0.2789 -0.1010 -0.0945
 5841TIP3    H139014   5.490   4.462   5.577 -0.5556  0.1579 -0.2556
 5841TIP3    H239015   5.626   4.496   5.634  0.2005 -0.8736 -1.4099
 5842TIP3   OH239016   2.529   1.234  14.393 -0.4536  0.1111  0.3206
 5842TIP3    H139017   2.624   1.235  14.387 -0.0700  0.6217  4.0020
 5842TIP3    H239018   2.510   1.187  14.475 -3.2273  1.5235  0.6378
 5843TIP3   OH239019   2.031   6.582  10.885 -0.1870 -0.1625 -0.3634
 5843TIP3    H139020   1.969   6.531  10.833 -0.6664  0.6647 -0.6225
 5843TIP3    H239021   2.011   6.673  10.864  0.2937  0.1565  0.5012
 5844TIP3   OH239022   5.580   5.812   2.752 -0.2322 -0.1468 -0.5523
 5844TIP3    H139023   5.552   5.743   2.812 -0.3080  0.1860 -0.1966
 5844TIP3    H239024   5.614   5.766   2.676  0.5495 -0.5919  0.0549
 5845TIP3   OH239025   6.754   4.456   3.384 -0.5785  0.3916 -0.5073
 5845TIP3    H139026   6.669   4.487   3.415 -0.5925  0.7503 -0.8935
 5845TIP3    H239027   6.785   4.396   3.453 -0.5596  1.2425  0.2383
 5846TIP3   OH239028   1.645   2.871  12.408 -0.3363  0.2244  0.5463
 5846TIP3    H139029   1.550   2.880  12.417 -0.6311 -2.6164  1.1203
 5846TIP3    H239030   1.670   2.811  12.478  1.3159 -1.9077 -1.7214
 5847TIP3   OH239031   5.814   0.562   1.837 -0.2484 -0.0919  0.1466
 5847TIP3    H139032   5.723   0.562   1.809 -1.1271  1.9085  2.6030
 5847TIP3    H239033   5.826   0.478   1.882 -1.0100 -0.2041  0.1558
 5848TIP3   OH239034   0.325   0.282   1.914  0.1469 -0.1474 -0.0202
 5848TIP3    H139035   0.259   0.232   1.865  0.0727  0.1440 -0.2218
 5848TIP3    H239036   0.393   0.218   1.935  0.1426 -0.2934 -0.4423
 5849TIP3   OH239037   2.496   5.297   1.097  0.0366 -0.9013  0.3743
 5849TIP3    H139038   2.463   5.304   1.186  0.6832 -2.1875  0.7356
 5849TIP3    H239039   2.439   5.355   1.046  0.9419  1.5109  1.9166
 5850TIP3   OH239040   0.776   3.141   3.507 -0.3451  0.2216 -0.0777
 5850TIP3    H139041   0.704   3.084   3.534 -0.8536  0.6348 -0.5455
 5850TIP3    H239042   0.793   3.117   3.416 -1.7690  2.0105 -0.8762
 5851TIP3   OH239043   2.909   2.812   0.568  0.1200  0.2814 -0.4436
 5851TIP3    H139044   2.975   2.881   0.562  2.2671 -1.7626 -2.7715
 5851TIP3    H239045   2.844   2.835   0.501  0.3886  0.4622 -0.6408
 5852TIP3   OH239046   0.450   5.948  14.840 -0.0276 -0.3282 -0.1705
 5852TIP3    H139047   0.452   5.880  14.906 -2.0615  0.6794  1.0194
 5852TIP3    H239048   0.503   6.019  14.877  2.7469 -1.3912 -1.7385
 5853TIP3   OH239049   0.091   5.379  14.071  0.1313  0.2266  0.7744
 5853TIP3    H139050   0.097   5.353  13.979  1.3772  0.1954  0.8533
 5853TIP3    H239051   0.047   5.305  14.114  0.6186 -0.2848  0.4048
 5854TIP3   OH239052   6.220   6.444   4.475 -0.0530  0.6067 -0.7248
 5854TIP3    H139053   6.136   6.402   4.460 -0.6514  2.1769 -2.1445
 5854TIP3    H239054   6.200   6.520   4.530  0.8488 -0.3434  0.9881
 5855TIP3   OH239055   3.928   5.256  15.882 -0.0693 -0.8638  0.2244
 5855TIP3    H139056   3.930   5.323  15.814  1.3513 -0.5481  0.5338
 5855TIP3    H239057   3.840   5.260  15.918 -0.8427 -1.0155 -1.5561
 5856TIP3   OH239058   2.577   5.769   0.203 -0.2021 -0.6373  0.2136
 5856TIP3    H139059   2.623   5.685   0.206 -0.7585 -0.9411  2.6299
 5856TIP3    H239060   2.623   5.824   0.266 -1.4246 -0.0154  0.5941
 5857TIP3   OH239061   6.515   5.362  11.872  0.3780 -0.2537 -0.5693
 5857TIP3    H139062   6.479   5.275  11.856  0.1348 -0.0528 -1.1511
 5857TIP3    H239063   6.453   5.403  11.932  0.3321 -0.3741 -0.5338
 5858TIP3   OH239064   0.517   6.826  16.722  0.1225  0.1329 -0.3001
 5858TIP3    H139065   0.498   6.811  16.815 -1.3051  1.5572 -0.3096
 5858TIP3    H239066   0.438   6.797  16.677  0.6509 -0.1814 -1.0365
 5859TIP3   OH239067   3.471   2.729   3.466 -0.1806  0.3304  0.0287
 5859TIP3    H139068   3.419   2.785   3.408 -1.0308 -0.0263  0.4383
 5859TIP3    H239069   3.407   2.688   3.524  0.6294  0.5083  1.0845
 5860TIP3   OH239070   6.034   0.778   2.431  0.1115 -0.7047 -0.3337
 5860TIP3    H139071   6.107   0.839   2.440 -0.3050 -0.1518 -0.6365
 5860TIP3    H239072   6.071   0.693   2.454  0.7998 -0.4009 -0.2886
 5861TIP3   OH239073   1.979   3.248   0.816 -0.7630 -0.1846  0.5828
 5861TIP3    H139074   2.027   3.261   0.734  0.4926 -0.6749  1.2224
 5861TIP3    H239075   1.996   3.327   0.867 -0.4151 -0.4708  0.9133
 5862TIP3   OH239076   4.239   1.709   0.359  0.2049 -0.0819  0.1116
 5862TIP3    H139077   4.333   1.726   0.367 -0.0547  2.6044 -1.4057
 5862TIP3    H239078   4.199   1.755   0.433 -0.0048 -0.3922  0.1968
 5863TIP3   OH239079   0.165   2.074  15.853 -0.1670 -0.0601  0.4349
 5863TIP3    H139080   0.230   2.006  15.831  0.5706  0.9981 -0.8205
 5863TIP3    H239081   0.154   2.123  15.772 -0.6182  1.3775  1.3319
 5864TIP3   OH239082   1.544   0.489   4.515  0.2336 -0.0416 -0.3631
 5864TIP3    H139083   1.626   0.445   4.537 -0.6790 -0.9954  1.3931
 5864TIP3    H239084   1.540   0.564   4.575 -0.2166 -0.0656 -0.3624
 5865TIP3   OH239085   2.217   0.081   0.739 -0.0338 -0.2029 -0.4473
 5865TIP3    H139086   2.192  -0.011   0.730  0.9083 -0.7039  1.5262
 5865TIP3    H239087   2.285   0.094   0.672 -0.2269 -0.9145 -0.7867
 5866TIP3   OH239088   3.306   6.778   0.740  0.1251  0.4321  0.2695
 5866TIP3    H139089   3.223   6.733   0.721  0.9435 -0.8688 -0.3576
 5866TIP3    H239090   3.317   6.840   0.668 -1.3866  2.2887  1.5332
 5867TIP3   OH239091   2.726   1.584   2.071  0.0053 -0.1799  0.8545
 5867TIP3    H139092   2.674   1.649   2.024  2.2974 -0.6360 -2.6770
 5867TIP3    H239093   2.666   1.509   2.083 -0.9916  0.3863 -0.3648
 5868TIP3   OH239094   3.037   4.773   3.005  0.1654  0.1151  0.0797
 5868TIP3    H139095   3.004   4.775   2.915 -2.3521  1.5645  0.9148
 5868TIP3    H239096   2.975   4.827   3.054  1.5278 -0.5147  2.6804
 5869TIP3   OH239097   1.835   5.468  16.984  0.0936  0.2768 -0.0603
 5869TIP3    H139098   1.772   5.535  16.953  1.4590  0.7930 -1.9002
 5869TIP3    H239099   1.920   5.511  16.976  0.8923 -1.2670 -0.0406
 5870TIP3   OH239100   6.394   6.344  11.572 -0.4799  0.0770  0.5141
 5870TIP3    H139101   6.351   6.428  11.586  0.9039  1.1179 -1.1990
 5870TIP3    H239102   6.425   6.346  11.482  1.1721 -1.5292  0.9681
 5871TIP3   OH239103   5.162   6.546   0.678  0.6302 -0.5745 -0.1501
 5871TIP3    H139104   5.101   6.473   0.691  1.4390 -1.2304  0.0263
 5871TIP3    H239105   5.241   6.520   0.725  0.6033  0.8511  0.7214
 5872TIP3   OH239106   5.727   0.855  12.983 -0.1528 -0.3544 -0.1297
 5872TIP3    H139107   5.813   0.877  13.020 -0.0687 -2.5428  1.1046
 5872TIP3    H239108   5.746   0.802  12.906 -0.3973 -1.0476  0.2844
 5873TIP3   OH239109   0.984   1.335   1.707 -0.2624 -0.0020  0.3735
 5873TIP3    H139110   0.940   1.310   1.788 -0.1112  0.6415  0.6608
 5873TIP3    H239111   0.935   1.291   1.638  0.2572 -1.4348  0.8841
 5874TIP3   OH239112   5.010   4.598   2.822  0.3462  0.2955 -0.1583
 5874TIP3    H139113   5.024   4.520   2.876 -2.3535  0.3863  0.8201
 5874TIP3    H239114   5.008   4.565   2.732 -1.3232 -0.9441  0.2640
 5875TIP3   OH239115   2.497   4.532  14.685 -0.4915 -0.0361 -0.0666
 5875TIP3    H139116   2.476   4.584  14.762 -1.3426  1.0494 -0.9919
 5875TIP3    H239117   2.420   4.540  14.628  0.3220 -0.3590 -1.2642
 5876TIP3   OH239118   0.255   4.198  16.120  0.7331  0.2658 -0.8559
 5876TIP3    H139119   0.198   4.255  16.069  2.1146  2.3350 -0.2067
 5876TIP3    H239120   0.195   4.142  16.169 -0.7032  1.5681 -1.0586
 5877TIP3   OH239121   0.628   1.672  12.977  0.2767 -0.2004 -0.2483
 5877TIP3    H139122   0.642   1.577  12.971  1.0516 -0.1179  0.1496
 5877TIP3    H239123   0.571   1.692  12.903  0.5244 -0.9027 -0.6440
 5878TIP3   OH239124   5.259   1.129   6.185  0.6383 -0.4250 -0.0591
 5878TIP3    H139125   5.284   1.079   6.262 -0.5308 -0.3818  0.3576
 5878TIP3    H239126   5.171   1.099   6.164  0.1451  1.0203 -0.1464
 5879TIP3   OH239127   4.759   4.951   3.508  0.1630 -0.6327 -0.2870
 5879TIP3    H139128   4.710   5.028   3.479  0.0171 -0.6046  0.0278
 5879TIP3    H239129   4.832   4.987   3.560  0.0517 -0.7084 -0.0767
 5880TIP3   OH239130   1.693   6.030   0.244 -0.0153 -0.0628  0.0410
 5880TIP3    H139131   1.614   5.976   0.239  0.8922 -1.4402  0.1748
 5880TIP3    H239132   1.670   6.109   0.195 -1.4124 -0.5149 -0.0885
 5881TIP3   OH239133   6.476   3.105  10.489 -0.0637  0.1084  0.2266
 5881TIP3    H139134   6.436   3.159  10.421  0.8412  0.4896 -0.0094
 5881TIP3    H239135   6.534   3.045  10.442 -1.2595 -1.2878  0.4584
 5882TIP3   OH239136   3.499   6.345   0.293  0.1756 -0.0198  0.1524
 5882TIP3    H139137   3.472   6.310   0.378  0.5677 -0.5871  0.0455
 5882TIP3    H239138   3.466   6.435   0.293  0.1267 -0.0315  0.8842
 5883TIP3   OH239139   6.005   5.215  16.174 -0.3326  0.7537 -0.6421
 5883TIP3    H139140   6.082   5.173  16.135 -0.1230 -0.5159  1.0046
 5883TIP3    H239141   6.042   5.274  16.240 -0.7178  1.7657 -1.3201
 5884TIP3   OH239142   6.519   5.922   2.313 -0.0081  0.1565  0.4192
 5884TIP3    H139143   6.561   5.930   2.399  0.0934 -2.3442  0.6796
 5884TIP3    H239144   6.430   5.954   2.327  0.3833  0.9869  1.1155
 5885TIP3   OH239145   0.238   5.572  11.806  0.1872 -0.4015  0.3042
 5885TIP3    H139146   0.259   5.524  11.886 -0.4897  0.1147  0.7966
 5885TIP3    H239147   0.276   5.519  11.736  3.8685  0.8453  1.1437
 5886TIP3   OH239148   3.955   3.743  16.841  0.6174  0.7417 -0.0720
 5886TIP3    H139149   3.959   3.789  16.925 -1.2730  1.5015 -0.3524
 5886TIP3    H239150   3.997   3.802  16.779 -0.3089  1.3678 -0.1191
 5887TIP3   OH239151   2.826   5.822   5.201 -0.0875 -0.4854 -0.3086
 5887TIP3    H139152   2.860   5.899   5.246 -0.1074 -0.6284 -0.0483
 5887TIP3    H239153   2.783   5.857   5.123 -1.5265 -0.0696  0.6303
 5888TIP3   OH239154   1.243   3.380   4.502 -0.0075  0.2627  0.5691
 5888TIP3    H139155   1.216   3.436   4.430 -1.1625  0.9410  1.4956
 5888TIP3    H239156   1.184   3.304   4.497  0.5367 -0.1473  0.2461
 5889TIP3   OH239157   2.788   3.904   6.306 -0.1698 -0.4595  0.6119
 5889TIP3    H139158   2.877   3.872   6.322  0.2717 -0.3136 -1.2736
 5889TIP3    H239159   2.788   3.993   6.341  0.6926 -0.1908 -0.0275
 5890TIP3   OH239160   4.133   5.039  16.658  0.2777 -0.1990 -0.1950
 5890TIP3    H139161   4.117   4.997  16.743  3.2812  0.7357  0.9456
 5890TIP3    H239162   4.217   5.004  16.629  1.0815  2.2353 -0.9796
 5891TIP3   OH239163   5.504   2.209   1.065  0.5472  0.3499  0.2209
 5891TIP3    H139164   5.549   2.250   0.991  2.9470 -1.0687  0.7797
 5891TIP3    H239165   5.495   2.117   1.040 -0.2025  0.2073  0.9753
 5892TIP3   OH239166   5.137   2.767  10.849 -0.1968 -0.1642  0.4820
 5892TIP3    H139167   5.176   2.735  10.768  0.7725 -0.0730  0.8983
 5892TIP3    H239168   5.178   2.715  10.918 -0.7184  0.0318  0.9496
 5893TIP3   OH239169   1.158   5.883   3.852  0.4075  0.1864 -0.3644
 5893TIP3    H139170   1.091   5.921   3.795 -1.4978 -2.0358  0.2711
 5893TIP3    H239171   1.197   5.813   3.799  1.2398  0.5243 -0.2084
 5894TIP3   OH239172   5.369   3.974   5.411  0.2089  0.2747 -0.2806
 5894TIP3    H139173   5.359   4.015   5.496  1.3279  1.8287 -0.8577
 5894TIP3    H239174   5.296   3.912   5.405 -1.3411  1.9135  0.7911
 5895TIP3   OH239175   2.307   2.984  14.696 -0.3708  0.0509 -0.0675
 5895TIP3    H139176   2.367   3.021  14.760  0.6107  0.7232 -1.3219
 5895TIP3    H239177   2.355   2.910  14.657 -1.3621 -1.0262  0.6789
 5896TIP3   OH239178   6.628   1.609  10.972  0.1542 -0.1667  0.5387
 5896TIP3    H139179   6.698   1.628  10.910 -0.3604  1.3214  0.3708
 5896TIP3    H239180   6.661   1.536  11.024  1.2780 -0.3472 -0.3900
 5897TIP3   OH239181   2.391   2.762  16.453  0.8138  0.6895 -0.3429
 5897TIP3    H139182   2.411   2.669  16.442  4.0787  1.1902  0.0971
 5897TIP3    H239183   2.322   2.779  16.389 -0.4087 -2.1455  0.0622
 5898TIP3   OH239184   6.337   4.259   0.388  0.0607  0.0198  0.2569
 5898TIP3    H139185   6.401   4.330   0.389  0.4237 -0.2768  2.4599
 5898TIP3    H239186   6.366   4.202   0.316  2.6587 -0.3952  1.5051
 5899TIP3   OH239187   3.103   6.403   1.574 -0.2108 -0.1386 -0.2061
 5899TIP3    H139188   3.042   6.423   1.645 -1.6627 -2.7109 -0.5949
 5899TIP3    H239189   3.101   6.481   1.518 -2.5146  0.2244  0.2675
 5900TIP3   OH239190   3.497   4.303  15.193  0.6313 -0.4972 -0.1329
 5900TIP3    H139191   3.411   4.333  15.162  1.0422 -0.3572 -1.1790
 5900TIP3    H239192   3.502   4.211  15.166  0.1499 -0.9956  1.3920
 5901TIP3   OH239193   2.490   3.008  14.380 -0.6859 -0.6138 -0.0694
 5901TIP3    H139194   2.402   3.044  14.385 -1.1159 -1.4411 -1.1370
 5901TIP3    H239195   2.548   3.084  14.376 -1.2442 -0.0581  1.8081
 5902TIP3   OH239196   0.937   0.111   4.621  0.7596  0.0049  0.7322
 5902TIP3    H139197   0.844   0.118   4.643  0.8531 -1.6749  1.9219
 5902TIP3    H239198   0.943   0.141   4.531 -1.4453 -2.5101 -0.3733
 5903TIP3   OH239199   2.053   1.641  15.699  0.7281  0.0905 -0.0357
 5903TIP3    H139200   2.020   1.730  15.707 -1.0002 -0.5852  0.8823
 5903TIP3    H239201   2.023   1.612  15.613 -1.4487 -0.6070  0.8938
 5904TIP3   OH239202   1.697   0.722  12.938  0.0817 -0.2376  0.1274
 5904TIP3    H139203   1.743   0.711  13.021  0.0507 -0.1084  0.1620
 5904TIP3    H239204   1.763   0.701  12.871  0.5012  0.9393  0.1406
 5905TIP3   OH239205   6.452   5.148   3.091  0.1797  0.2856  0.0288
 5905TIP3    H139206   6.535   5.102   3.106  1.3442  1.9970 -0.8899
 5905TIP3    H239207   6.431   5.129   3.000 -0.6292 -0.3824  0.3405
 5906TIP3   OH239208   1.215   6.212  13.199 -0.3255  0.0653  1.0991
 5906TIP3    H139209   1.247   6.159  13.271 -1.0598 -1.2673  0.4893
 5906TIP3    H239210   1.121   6.221  13.216 -0.7230 -1.1871 -0.2050
 5907TIP3   OH239211   0.969   2.335   6.304  0.2432 -0.0155 -0.0206
 5907TIP3    H139212   1.016   2.310   6.384  0.4618 -0.7390 -0.3659
 5907TIP3    H239213   0.891   2.381   6.335  0.2145 -0.4790  0.6150
 5908TIP3   OH239214   5.671   5.742  14.344  0.4979 -0.3523  0.5196
 5908TIP3    H139215   5.652   5.836  14.339 -0.4708 -0.5358  0.6837
 5908TIP3    H239216   5.604   5.701  14.289 -0.0190 -1.0671  1.6519
 5909TIP3   OH239217   0.492   3.367  15.104 -0.8326  0.3081  0.0538
 5909TIP3    H139218   0.516   3.459  15.094 -0.9059  0.3317  0.0907
 5909TIP3    H239219   0.568   3.326  15.144 -1.5117  0.7598  1.9326
 5910TIP3   OH239220   6.370   3.089   0.786 -0.0690  0.0070  0.0399
 5910TIP3    H139221   6.408   3.153   0.726  0.6796 -0.9536 -0.5315
 5910TIP3    H239222   6.380   3.129   0.873  1.1641  0.3055 -0.2164
 5911TIP3   OH239223   0.396   5.111   2.678  0.0763 -0.1392  0.5456
 5911TIP3    H139224   0.414   5.019   2.696  1.3257 -0.3837 -1.6613
 5911TIP3    H239225   0.383   5.150   2.764 -0.5859 -2.3679  1.5357
 5912TIP3   OH239226   1.550   3.162  15.633  0.2299 -0.1613 -0.1064
 5912TIP3    H139227   1.496   3.153  15.555  1.6476 -1.7205 -0.9904
 5912TIP3    H239228   1.539   3.078  15.679 -1.5805  1.1863  2.1067
 5913TIP3   OH239229   1.965   3.148  16.276 -0.5326  0.1260  0.4642
 5913TIP3    H139230   2.001   3.163  16.189 -1.0224  3.9128  0.7358
 5913TIP3    H239231   1.874   3.125  16.261  0.1881 -2.8298 -0.0052
 5914TIP3   OH239232   2.336   1.682  16.493  0.2344 -0.6414  0.3770
 5914TIP3    H139233   2.392   1.613  16.457 -0.6580 -0.8210 -0.7199
 5914TIP3    H239234   2.365   1.692  16.584  2.5553 -0.1850 -0.3662
 5915TIP3   OH239235   2.480   6.112  14.968  0.1768 -0.2537  0.5484
 5915TIP3    H139236   2.433   6.055  14.907 -0.9946  1.6417 -0.4268
 5915TIP3    H239237   2.411   6.149  15.023  0.7021  1.3349  0.1756
 5916TIP3   OH239238   3.687   1.599   6.231  0.6574 -0.2170  0.1135
 5916TIP3    H139239   3.702   1.639   6.317  0.7548  0.3221 -0.1506
 5916TIP3    H239240   3.748   1.526   6.228  0.0908 -0.7303  0.8257
 5917TIP3   OH239241   5.835   4.622  11.978  0.2362  0.1748 -0.0735
 5917TIP3    H139242   5.896   4.690  11.949 -1.2524  2.2832  1.4045
 5917TIP3    H239243   5.756   4.670  12.004 -0.4470 -1.9863  2.3065
 5918TIP3   OH239244   1.302   5.524  15.546 -0.2590  0.2042 -0.0667
 5918TIP3    H139245   1.266   5.436  15.544  0.0591 -0.1002  2.7722
 5918TIP3    H239246   1.265   5.563  15.626  3.3520  0.8717  1.4792
 5919TIP3   OH239247   5.202   3.887  11.188  0.5350  0.4090  0.1422
 5919TIP3    H139248   5.138   3.912  11.121  0.2300  0.5336  0.4770
 5919TIP3    H239249   5.270   3.840  11.140 -1.9222 -3.7691  0.2686
 5920TIP3   OH239250   3.256   1.760   5.046  0.2114  0.5008 -0.7048
 5920TIP3    H139251   3.179   1.705   5.057  0.7843  0.0316  1.8323
 5920TIP3    H239252   3.295   1.731   4.964 -0.1513 -2.1257 -0.0625
 5921TIP3   OH239253   2.334   3.749  12.290 -1.0662 -0.6727  0.4239
 5921TIP3    H139254   2.275   3.757  12.365 -2.4460 -2.6532 -0.3741
 5921TIP3    H239255   2.322   3.830  12.241 -2.5231 -0.7039  0.6999
 5922TIP3   OH239256   4.825   5.200   2.974 -0.1278 -0.4064 -0.2008
 5922TIP3    H139257   4.885   5.255   2.925  0.4373 -1.1284 -0.3441
 5922TIP3    H239258   4.750   5.256   2.993 -0.3733 -0.1014 -1.9092
 5923TIP3   OH239259   3.249   5.069   2.646  0.2119 -0.3470 -0.2158
 5923TIP3    H139260   3.341   5.086   2.626  0.5416 -0.6449  0.9838
 5923TIP3    H239261   3.234   5.113   2.730 -0.6688 -0.5251 -0.2656
 5924TIP3   OH239262   3.384   5.119   3.420  0.4546 -0.1167 -0.7044
 5924TIP3    H139263   3.341   5.201   3.399  1.6196  0.3762 -1.2695
 5924TIP3    H239264   3.351   5.057   3.354  1.5727  0.5869 -1.9618
 5925TIP3   OH239265   3.135   1.424   5.265  0.3426  0.0122  0.4361
 5925TIP3    H139266   3.200   1.470   5.318 -2.1094  2.8513  1.2658
 5925TIP3    H239267   3.084   1.373   5.327 -1.8671  2.5259  0.9044
 5926TIP3   OH239268   3.092   5.046   3.936  0.1313  0.0767 -0.2522
 5926TIP3    H139269   2.997   5.042   3.927  0.2281 -1.7966 -1.0821
 5926TIP3    H239270   3.109   5.004   4.021  0.2716 -0.8693 -0.7385
 5927TIP3   OH239271   0.678   4.209   2.493 -0.1505  0.0156 -1.2849
 5927TIP3    H139272   0.740   4.226   2.421 -0.3347  0.0673 -1.4323
 5927TIP3    H239273   0.596   4.188   2.449  0.0706 -1.3024 -1.1046
 5928TIP3   OH239274   0.203   5.728   1.141  0.2405  0.4442  0.2011
 5928TIP3    H139275   0.195   5.730   1.237  2.0386  0.0562  0.4029
 5928TIP3    H239276   0.285   5.681   1.126  0.5928  1.5335 -1.4951
 5929TIP3   OH239277   1.767   3.427  14.046  0.2199  0.6127  0.0460
 5929TIP3    H139278   1.862   3.433  14.052  0.1311  2.0162  0.4252
 5929TIP3    H239279   1.735   3.494  14.107 -0.9929  1.2903 -1.2784
 5930TIP3   OH239280   0.377   4.949   3.391 -0.4878 -0.1641  0.3725
 5930TIP3    H139281   0.334   4.876   3.433  0.6628 -1.4829 -0.6445
 5930TIP3    H239282   0.458   4.962   3.440 -0.5064  0.1876  0.3177
 5931TIP3   OH239283   3.824   1.489   4.098 -0.1897  0.2076  0.4448
 5931TIP3    H139284   3.788   1.551   4.034 -0.4015  1.3500  1.6123
 5931TIP3    H239285   3.747   1.444   4.133 -0.0154 -0.9492 -0.5842
 5932TIP3   OH239286   2.643   0.452  11.326 -0.5348  0.3235  0.0563
 5932TIP3    H139287   2.595   0.533  11.343 -0.2120  0.4357  0.4660
 5932TIP3    H239288   2.603   0.388  11.385 -0.3527  0.3561  0.2193
 5933TIP3   OH239289   2.474   3.031   5.239 -0.4756  0.4312  0.6345
 5933TIP3    H139290   2.545   2.981   5.200  0.4826  1.1081  1.4602
 5933TIP3    H239291   2.490   3.121   5.212 -1.6801  0.4460 -0.1083
 5934TIP3   OH239292   4.206   1.636  13.525  0.2468  0.0999  0.1570
 5934TIP3    H139293   4.269   1.606  13.460 -0.4321 -0.1383 -0.4145
 5934TIP3    H239294   4.252   1.702  13.575  0.4207  1.1784 -1.3629
 5935TIP3   OH239295   6.330   0.636   2.189  0.4325 -0.1144  0.1279
 5935TIP3    H139296   6.370   0.553   2.162  0.8340  0.7732 -2.2805
 5935TIP3    H239297   6.248   0.640   2.138  0.8343  1.3110 -0.4488
 5936TIP3   OH239298   6.248   0.800  16.061  0.6464 -0.2667  0.2699
 5936TIP3    H139299   6.283   0.859  15.994 -0.2993  0.5051  0.4444
 5936TIP3    H239300   6.323   0.780  16.117  1.2109 -0.1017 -0.4134
 5937TIP3   OH239301   5.094   2.704  15.910 -0.0326 -0.3100  0.1721
 5937TIP3    H139302   5.183   2.686  15.879  0.3358  2.3223 -0.4731
 5937TIP3    H239303   5.038   2.690  15.833  0.1356  0.3906 -0.0809
 5938TIP3   OH239304   6.634   4.220  14.067 -0.2144 -0.0907  0.3382
 5938TIP3    H139305   6.592   4.296  14.107 -2.5091 -1.9714  1.6840
 5938TIP3    H239306   6.565   4.154  14.060  1.8364 -2.3397 -0.1147
 5939TIP3   OH239307   5.514   0.743  16.064 -0.0660  0.4214 -0.1356
 5939TIP3    H139308   5.519   0.817  16.003  0.6744  2.2635  2.0130
 5939TIP3    H239309   5.601   0.703  16.060 -0.1841  0.2096 -0.6477
 5940TIP3   OH239310   2.271   0.475   2.472 -0.0226 -0.2295  0.2559
 5940TIP3    H139311   2.203   0.509   2.529  0.2891 -0.4019  0.7415
 5940TIP3    H239312   2.348   0.467   2.529  0.2710 -0.4786 -0.1674
 5941TIP3   OH239313   0.545   1.640   0.977 -1.0426 -0.2400  0.4077
 5941TIP3    H139314   0.617   1.613   1.034 -0.9308 -0.7983  0.0100
 5941TIP3    H239315   0.471   1.653   1.037 -0.9987 -1.0743  0.6632
 5942TIP3   OH239316   1.431   0.148  16.753  0.7637 -0.0877  0.1524
 5942TIP3    H139317   1.349   0.183  16.716  0.3870 -1.3586 -0.2536
 5942TIP3    H239318   1.421   0.160  16.847  0.5681  0.7191  0.0428
 5943TIP3   OH239319   2.180   1.636   5.166  0.9727 -0.0107  0.5206
 5943TIP3    H139320   2.132   1.590   5.097  0.3578  2.0921 -0.5272
 5943TIP3    H239321   2.176   1.728   5.141  2.8281  0.5682  2.1191
 5944TIP3   OH239322   5.765   1.432  12.040 -0.2272  0.4198 -1.0100
 5944TIP3    H139323   5.763   1.525  12.061 -0.0718  0.1511  0.2570
 5944TIP3    H239324   5.834   1.424  11.974 -1.2789  1.4066 -2.2699
 5945TIP3   OH239325   2.614   4.659   1.124 -0.0005 -0.1581 -0.2261
 5945TIP3    H139326   2.570   4.599   1.063 -1.0766 -0.6877  1.0229
 5945TIP3    H239327   2.707   4.651   1.102 -0.3768  0.0145 -2.0769
 5946TIP3   OH239328   4.471   1.121   5.511  0.1240 -0.1539  0.1590
 5946TIP3    H139329   4.546   1.172   5.542 -0.0625  1.7665 -2.2473
 5946TIP3    H239330   4.509   1.049   5.462  0.4232  0.0681  0.0583
 5947TIP3   OH239331   4.999   2.989  12.336 -0.2920 -0.0916  0.0987
 5947TIP3    H139332   5.077   2.936  12.352 -0.1861 -0.4058 -1.3296
 5947TIP3    H239333   5.020   3.074  12.376  0.2860 -0.5298  0.7654
 5948TIP3   OH239334   5.032   0.848   4.068  0.1021 -0.0251 -0.0441
 5948TIP3    H139335   5.078   0.829   4.149  1.8648 -1.0142 -1.1937
 5948TIP3    H239336   4.960   0.785   4.066 -0.4993  0.5999  1.1369
 5949TIP3   OH239337   3.642   2.723  15.244  0.3324 -0.7307 -0.2096
 5949TIP3    H139338   3.702   2.683  15.307  1.1645 -0.4118 -0.7806
 5949TIP3    H239339   3.628   2.655  15.178 -0.8621 -1.2106  0.4996
 5950TIP3   OH239340   2.232   5.695   0.979 -0.4924 -0.0737 -0.0575
 5950TIP3    H139341   2.284   5.655   1.049  0.8428 -2.1799 -2.0903
 5950TIP3    H239342   2.290   5.761   0.941 -0.5628 -0.1196 -0.2466
 5951TIP3   OH239343   5.321   6.063   1.421  0.3894  0.1229 -0.3746
 5951TIP3    H139344   5.227   6.053   1.405 -0.3154  0.5890  2.7727
 5951TIP3    H239345   5.327   6.087   1.514  3.5295  2.1049 -0.9466
 5952TIP3   OH239346   1.845   3.844   2.497  0.1415 -0.3234  0.0890
 5952TIP3    H139347   1.828   3.819   2.587  0.6492 -1.5316 -0.1403
 5952TIP3    H239348   1.911   3.782   2.466 -1.0771 -0.8560 -1.5705
 5953TIP3   OH239349   2.343   0.399   3.166 -0.4167 -0.0215  0.5327
 5953TIP3    H139350   2.306   0.447   3.092  1.1140  0.4257  0.0152
 5953TIP3    H239351   2.306   0.311   3.160  0.5400 -0.3383 -1.4622
 5954TIP3   OH239352   0.588   5.391  15.428 -1.1718 -0.4068  0.2464
 5954TIP3    H139353   0.641   5.405  15.506 -1.3756  0.6030  0.2163
 5954TIP3    H239354   0.605   5.300  15.403 -1.9035 -1.0642  2.0451
 5955TIP3   OH239355   2.933   1.536  16.406 -0.1812  0.1184 -0.1053
 5955TIP3    H139356   2.959   1.585  16.328 -2.9347  1.6355 -0.1776
 5955TIP3    H239357   2.929   1.445  16.377  1.1110  0.3405 -1.0551
 5956TIP3   OH239358   6.608   0.282   0.117  0.3840  0.1282 -0.8960
 5956TIP3    H139359   6.522   0.243   0.102  0.6337 -1.0313  0.4558
 5956TIP3    H239360   6.595   0.376   0.102 -1.2217  0.0318 -0.3381
 5957TIP3   OH239361   2.817   4.982   4.505 -0.3981  0.2529  0.0414
 5957TIP3    H139362   2.819   5.014   4.595  1.2091  1.5486 -0.4038
 5957TIP3    H239363   2.903   4.941   4.493  0.2003  1.8525 -1.4795
 5958TIP3   OH239364   0.192   5.890  12.939 -0.6511 -0.1288  0.3155
 5958TIP3    H139365   0.272   5.892  12.991  0.4484 -3.6998 -0.9083
 5958TIP3    H239366   0.131   5.837  12.990 -1.6147  1.0260  0.4055
 5959TIP3   OH239367   2.060   2.204   1.601 -0.2861  0.1814  0.1766
 5959TIP3    H139368   2.029   2.119   1.568 -1.1598  0.0507  1.2529
 5959TIP3    H239369   2.134   2.226   1.545  1.2430 -2.2248  1.0872
 5960TIP3   OH239370   4.337   5.581  11.537  0.2158  0.0427  0.3964
 5960TIP3    H139371   4.290   5.498  11.537 -1.9433  1.1284 -1.8323
 5960TIP3    H239372   4.419   5.562  11.491 -1.0566 -0.5619 -1.7776
 5961TIP3   OH239373   0.187   2.330  14.298 -0.3821  0.3743 -0.2484
 5961TIP3    H139374   0.218   2.397  14.358 -0.3841 -1.3756  1.8012
 5961TIP3    H239375   0.101   2.362  14.270 -0.3370  1.2775  0.5907
 5962TIP3   OH239376   5.592   5.766  15.883  0.2451 -0.0503 -0.0289
 5962TIP3    H139377   5.628   5.699  15.825 -0.5000  0.0012 -0.5756
 5962TIP3    H239378   5.507   5.788  15.844  0.8418  1.8295 -0.3640
 5963TIP3   OH239379   2.864   5.507  15.861  0.3609  0.2069  0.2066
 5963TIP3    H139380   2.813   5.425  15.855 -1.2778  1.1932  0.0365
 5963TIP3    H239381   2.838   5.544  15.945 -0.8374  1.7488 -0.7971
 5964TIP3   OH239382   4.478   2.026  11.502 -0.1435 -0.4422  0.1465
 5964TIP3    H139383   4.552   2.086  11.507  0.7141 -1.3880 -0.6861
 5964TIP3    H239384   4.428   2.056  11.426 -0.8782  0.4563  0.9598
 5965TIP3   OH239385   0.037   6.710   5.334 -0.7069 -0.3295 -0.3287
 5965TIP3    H139386   0.013   6.802   5.321 -0.1584 -0.2475 -0.8211
 5965TIP3    H239387   0.097   6.711   5.409  0.8017 -0.0190 -1.4840
 5966TIP3   OH239388   2.093   6.376  15.360  0.0511 -0.0063 -0.0346
 5966TIP3    H139389   2.014   6.353  15.410 -0.2141 -1.4029 -1.0241
 5966TIP3    H239390   2.158   6.397  15.426 -0.0680 -2.5013  0.9981
 5967TIP3   OH239391   4.710   3.567  15.448  0.0328  0.0574 -0.3598
 5967TIP3    H139392   4.654   3.508  15.398  0.1931  1.0925 -1.8115
 5967TIP3    H239393   4.786   3.581  15.392  0.0147  1.6218 -0.0440
 5968TIP3   OH239394   5.658   2.124  16.103  0.1392 -0.6221 -0.5192
 5968TIP3    H139395   5.649   2.125  16.198  0.7290 -1.8282 -0.4327
 5968TIP3    H239396   5.692   2.037  16.083  1.4826  0.1419 -1.7039
 5969TIP3   OH239397   0.782   5.458   3.437 -0.0015  0.1893 -0.0276
 5969TIP3    H139398   0.719   5.412   3.493 -0.6727  2.0665  0.8264
 5969TIP3    H239399   0.784   5.406   3.357  0.7447 -2.3858  1.5553
 5970TIP3   OH239400   4.937   4.625  12.321 -0.4368 -0.0138  0.2529
 5970TIP3    H139401   4.924   4.582  12.406 -1.0186 -1.2580 -0.4450
 5970TIP3    H239402   4.858   4.604  12.272 -0.4071  1.2608 -0.3827
 5971TIP3   OH239403   1.467   3.739   0.072 -0.1651 -0.2860  0.0842
 5971TIP3    H139404   1.382   3.702   0.096 -0.6820  0.5537 -0.3804
 5971TIP3    H239405   1.528   3.666   0.078 -0.9485 -0.9401  0.2828
 5972TIP3   OH239406   1.498   5.112   3.055  0.2089 -0.0844  0.2984
 5972TIP3    H139407   1.468   5.202   3.070  0.7791 -0.0621  1.4581
 5972TIP3    H239408   1.536   5.086   3.139  0.6773 -1.1681 -0.2363
 5973TIP3   OH239409   3.293   0.319  11.595  0.1416 -0.5405  0.1660
 5973TIP3    H139410   3.225   0.315  11.662 -0.3515  2.5022  0.0030
 5973TIP3    H239411   3.263   0.387  11.535  1.6721 -1.5908 -1.9002
 5974TIP3   OH239412   5.120   2.461  14.654  0.4445  0.3614  0.0102
 5974TIP3    H139413   5.164   2.446  14.738  0.6335  0.5960 -0.0460
 5974TIP3    H239414   5.157   2.543  14.622 -0.3946  0.8262  0.1981
 5975TIP3   OH239415   1.338   5.045  13.390 -0.0118 -0.7534 -0.2697
 5975TIP3    H139416   1.244   5.036  13.405  0.0773 -1.3619 -0.0632
 5975TIP3    H239417   1.356   4.989  13.314  0.5793 -2.5670  1.1375
 5976TIP3   OH239418   3.415   2.895   6.536  0.0844 -0.4471 -0.0587
 5976TIP3    H139419   3.430   2.899   6.631  0.2114 -1.1215 -0.0436
 5976TIP3    H239420   3.482   2.952   6.499 -1.3215  1.5940  0.3623
 5977TIP3   OH239421   0.718   1.731   2.654 -0.2023 -0.0275 -0.4313
 5977TIP3    H139422   0.746   1.694   2.738 -1.5358 -2.6940 -1.0441
 5977TIP3    H239423   0.630   1.767   2.672 -1.1704 -2.0072 -0.9391
 5978TIP3   OH239424   5.780   6.285   5.640  0.2596 -0.3572  0.1065
 5978TIP3    H139425   5.733   6.314   5.562  0.0860 -0.4085  0.1918
 5978TIP3    H239426   5.870   6.274   5.610  0.5069  1.0435  0.2584
 5979TIP3   OH239427   3.955   1.743  10.785  0.2382  0.5677 -0.0397
 5979TIP3    H139428   3.860   1.750  10.785  0.2684  1.1420  0.5199
 5979TIP3    H239429   3.973   1.650  10.772 -0.3785  0.5672 -0.9858
 5980TIP3   OH239430   0.283   1.657  12.650 -0.0596 -0.5786 -0.6499
 5980TIP3    H139431   0.205   1.707  12.672  0.2501  0.0413 -0.9561
 5980TIP3    H239432   0.249   1.571  12.624 -0.6659 -0.2177 -1.0838
 5981TIP3   OH239433   2.461   5.148  11.937 -0.8614 -0.0149 -0.1945
 5981TIP3    H139434   2.422   5.088  12.000 -0.4625 -0.2672 -0.1871
 5981TIP3    H239435   2.498   5.091  11.869 -1.9995  0.2752 -1.0816
 5982TIP3   OH239436   5.758   2.328  10.782 -0.3244 -0.2841 -0.0185
 5982TIP3    H139437   5.799   2.359  10.700 -0.7445 -1.0394 -0.5264
 5982TIP3    H239438   5.824   2.270  10.820 -1.0024 -1.7372 -0.9871
 5983TIP3   OH239439   4.504   4.606  11.842 -0.0992  0.1647 -0.7061
 5983TIP3    H139440   4.429   4.628  11.896  0.7650 -0.3756  0.7567
 5983TIP3    H239441   4.559   4.551  11.897  1.4490  0.6550 -1.6833
 5984TIP3   OH239442   2.307   5.295  14.522  0.2621 -0.3846  0.1778
 5984TIP3    H139443   2.392   5.270  14.558  0.3435 -0.2184  0.1044
 5984TIP3    H239444   2.260   5.213  14.511  0.2282 -0.4314  0.6863
 5985TIP3   OH239445   2.604   3.655   0.231  0.3809 -0.2994  0.2947
 5985TIP3    H139446   2.527   3.685   0.279  1.2427  3.9088 -0.6035
 5985TIP3    H239447   2.569   3.623   0.148 -0.4736  2.1013 -0.3451
 5986TIP3   OH239448   5.908   4.143  12.701 -0.5244 -0.4866  0.5243
 5986TIP3    H139449   5.829   4.160  12.753 -1.1251  2.9069 -1.2323
 5986TIP3    H239450   5.879   4.081  12.633 -1.6565  0.5177  0.0573
 5987TIP3   OH239451   3.934   3.567   0.330  0.3200 -0.3507  0.4380
 5987TIP3    H139452   3.844   3.535   0.329 -0.0880  0.7457 -1.0515
 5987TIP3    H239453   3.980   3.506   0.388 -1.4346 -0.7196  1.5137
 5988TIP3   OH239454   0.699   0.004  13.022 -0.0257  0.3436  0.1173
 5988TIP3    H139455   0.780   0.021  12.974 -0.5584 -1.8112 -1.7658
 5988TIP3    H239456   0.640   0.074  12.993  0.7941  1.2555  0.6021
 5989TIP3   OH239457   5.039   6.687  12.151  0.0443  0.6933 -0.3701
 5989TIP3    H139458   5.068   6.731  12.231  0.3366 -3.7591  2.3154
 5989TIP3    H239459   4.945   6.676  12.161  0.3476 -1.6992  0.5679
 5990TIP3   OH239460   0.822   4.371  10.867  0.9079 -0.8899  0.2369
 5990TIP3    H139461   0.815   4.442  10.930  0.1189 -0.2244 -0.5655
 5990TIP3    H239462   0.749   4.312  10.889  0.7664 -0.7705  0.0935
 5991TIP3   OH239463   5.501   2.823  16.709  0.1582  0.3078  0.3078
 5991TIP3    H139464   5.535   2.909  16.683 -1.1173  1.7506  2.9308
 5991TIP3    H239465   5.418   2.815  16.663  0.3323  0.4366 -0.0303
 5992TIP3   OH239466   2.742   0.081  12.855 -0.3558 -0.3163  0.4558
 5992TIP3    H139467   2.753   0.037  12.939 -0.7819 -1.3398 -0.0116
 5992TIP3    H239468   2.673   0.032  12.810  1.5023 -1.3316 -1.4876
 5993TIP3   OH239469   0.155   4.181  13.756 -0.5233  0.5018  0.6715
 5993TIP3    H139470   0.122   4.096  13.729  0.0401  0.5130 -0.1097
 5993TIP3    H239471   0.152   4.234  13.676 -1.5429  1.4490  1.2994
 5994TIP3   OH239472   3.660   4.278  16.300 -0.4676 -0.0922 -0.1415
 5994TIP3    H139473   3.743   4.312  16.332 -0.5401 -1.0975  1.1723
 5994TIP3    H239474   3.593   4.324  16.351 -0.6313 -0.7523  0.2542
 5995TIP3   OH239475   5.372   0.794  10.438  0.1234  0.2445 -0.3617
 5995TIP3    H139476   5.417   0.742  10.505  0.1546 -0.0897 -0.6440
 5995TIP3    H239477   5.282   0.801  10.470  0.4760  1.3372  0.4593
 5996TIP3   OH239478   3.766   0.464   5.873  0.3612  0.6198 -0.1885
 5996TIP3    H139479   3.782   0.469   5.779 -0.3224  1.5640 -0.2677
 5996TIP3    H239480   3.845   0.499   5.913  1.0798 -0.7258 -0.3538
 5997TIP3   OH239481   4.574   5.174  11.359  0.1462  0.1587 -0.4735
 5997TIP3    H139482   4.647   5.227  11.328 -0.8789  1.0571 -1.3935
 5997TIP3    H239483   4.513   5.237  11.398 -0.9469 -0.3531 -1.3061
 5998TIP3   OH239484   2.989   5.556  14.680 -0.3837 -0.0694 -0.5404
 5998TIP3    H139485   2.924   5.509  14.732  1.1494  0.4639  2.0506
 5998TIP3    H239486   3.014   5.631  14.735  4.2526 -1.6143 -0.1301
 5999TIP3   OH239487   3.244   3.984   0.832 -0.1419 -0.0182  0.3275
 5999TIP3    H139488   3.265   4.062   0.781  0.9605 -0.1078  0.6261
 5999TIP3    H239489   3.307   3.918   0.802  0.6569 -0.0194  1.9119
 6000TIP3   OH239490   6.699   1.954  12.521 -0.5393 -0.4114  0.6815
 6000TIP3    H139491   6.670   1.865  12.499  0.9261 -1.0873  1.3864
 6000TIP3    H239492   6.773   1.970  12.464 -1.8605  1.0982 -0.7174
 6001TIP3   OH239493   1.357   2.017   0.341  0.4632 -0.4202  0.4392
 6001TIP3    H139494   1.384   2.061   0.421 -0.6070 -0.8029  1.0323
 6001TIP3    H239495   1.437   2.008   0.290  1.4619 -1.5139  2.1285
 6002TIP3   OH239496   5.408   4.853  13.567  0.3449  0.0911  0.1752
 6002TIP3    H139497   5.481   4.839  13.628  0.6091  0.6491 -0.0130
 6002TIP3    H239498   5.449   4.856  13.481 -0.0727 -1.1347 -0.0889
 6003TIP3   OH239499   5.730   5.823   5.801 -0.0702  0.6036 -0.2592
 6003TIP3    H139500   5.675   5.753   5.764  1.0275 -1.7104  2.1255
 6003TIP3    H239501   5.811   5.819   5.749  0.5772 -1.0362  0.7971
 6004TIP3   OH239502   2.445   1.854   5.865 -0.3869 -0.2332 -0.6376
 6004TIP3    H139503   2.524   1.806   5.888 -0.0255  0.5507 -0.1868
 6004TIP3    H239504   2.373   1.802   5.902  0.0237 -0.2021  0.2288
 6005TIP3   OH239505   2.564   2.678  10.711  0.5961  0.2427 -0.2237
 6005TIP3    H139506   2.511   2.620  10.656 -1.5455  0.7607  1.1730
 6005TIP3    H239507   2.521   2.763  10.705  1.8681  0.9410  0.2134
 6006TIP3   OH239508   6.555   3.596   1.370  0.3275 -0.9518  0.0277
 6006TIP3    H139509   6.577   3.623   1.459  0.4512 -1.8271  0.2718
 6006TIP3    H239510   6.564   3.676   1.318  0.7936 -0.5499  0.7060
 6007TIP3   OH239511   4.500   5.995   0.675  0.0288  0.1387  1.1354
 6007TIP3    H139512   4.511   5.902   0.654 -0.3009  0.3824 -0.2466
 6007TIP3    H239513   4.526   6.003   0.766  0.6119 -1.2135  1.1026
 6008TIP3   OH239514   4.446   5.655  11.812  0.0413  0.0701 -0.0630
 6008TIP3    H139515   4.436   5.618  11.724  1.2570  0.4659 -0.3895
 6008TIP3    H239516   4.518   5.717  11.803 -0.3250  0.6722  1.0500
 6009TIP3   OH239517   1.117   6.002   5.230 -0.6401 -0.5293  0.2557
 6009TIP3    H139518   1.112   5.942   5.305 -1.1028 -2.2741 -1.1075
 6009TIP3    H239519   1.036   5.988   5.183 -1.6285  2.6010  0.8402
 6010TIP3   OH239520   6.772   2.276  17.061 -0.3075 -0.0030 -0.2067
 6010TIP3    H139521   6.778   2.371  17.051  0.5142 -0.0857 -0.5800
 6010TIP3    H239522   6.828   2.257  17.136  2.1889 -0.5112 -2.0822
 6011TIP3   OH239523   6.184   4.980   5.717 -0.2555 -0.2682  0.1848
 6011TIP3    H139524   6.090   4.966   5.714 -0.3209  0.2434 -0.4086
 6011TIP3    H239525   6.204   4.993   5.809 -1.0210  1.2243  0.1784
 6012TIP3   OH239526   0.371   4.341   6.045 -0.3760 -0.4069  0.0691
 6012TIP3    H139527   0.411   4.386   6.120 -1.8083 -0.0709  0.6718
 6012TIP3    H239528   0.340   4.258   6.081 -1.0056 -0.2770 -0.1603
 6013TIP3   OH239529   2.763   2.107  15.537  0.0301  0.0995 -0.1501
 6013TIP3    H139530   2.676   2.109  15.578  0.6787 -0.9084  1.3493
 6013TIP3    H239531   2.781   2.199  15.515 -0.3506  0.7040  1.8599
 6014TIP3   OH239532   0.829   0.657   1.172  0.5027  0.4455 -0.1220
 6014TIP3    H139533   0.805   0.590   1.235  0.2099 -0.8392 -1.5517
 6014TIP3    H239534   0.925   0.659   1.175  0.6376 -1.3882 -1.3379
 6015TIP3   OH239535   5.548   5.167  13.592 -0.1278 -0.9246 -0.0800
 6015TIP3    H139536   5.611   5.197  13.526 -0.7719  0.3008 -0.1800
 6015TIP3    H239537   5.601   5.140  13.666  0.5778 -1.5498 -0.8069
 6016TIP3   OH239538   4.963   3.208  16.487 -0.1763 -0.3489  0.4239
 6016TIP3    H139539   5.022   3.278  16.459  2.4095 -2.1269  1.0859
 6016TIP3    H239540   4.910   3.247  16.556 -0.8719  1.7293 -1.1867
 6017TIP3   OH239541   1.594   6.247   5.593  0.2661 -0.1662  0.0970
 6017TIP3    H139542   1.637   6.271   5.675 -1.0604  0.9620  0.4928
 6017TIP3    H239543   1.656   6.274   5.524  0.4985  0.7587  0.6650
 6018TIP3   OH239544   4.472   5.067   0.895 -1.1966  0.5640  0.0151
 6018TIP3    H139545   4.449   5.153   0.929 -0.8175  0.8774 -0.4967
 6018TIP3    H239546   4.474   5.010   0.972  1.4380  1.6311  0.8531
 6019TIP3   OH239547   4.535   1.285  14.693 -0.5193  0.8217  0.4739
 6019TIP3    H139548   4.619   1.239  14.692 -1.0778 -0.2823 -1.3983
 6019TIP3    H239549   4.547   1.359  14.633 -1.2157 -0.1052 -0.8719
 6020TIP3   OH239550   5.012   3.659  11.935  0.2675 -0.9782  0.1852
 6020TIP3    H139551   5.061   3.657  11.853 -3.4173 -0.8430 -2.2144
 6020TIP3    H239552   5.004   3.567  11.961 -1.2387 -1.3271 -1.4131
 6021TIP3   OH239553   1.476   4.768   1.944 -0.3755 -0.4716 -0.1132
 6021TIP3    H139554   1.498   4.734   1.857 -2.4132 -1.7775 -0.1787
 6021TIP3    H239555   1.469   4.863   1.931  1.1567 -0.4258 -0.9103
 6022TIP3   OH239556   1.043   3.994  11.037  0.1296 -0.0215  0.0553
 6022TIP3    H139557   0.954   3.969  11.011 -0.0940 -1.0766  1.7523
 6022TIP3    H239558   1.051   4.084  11.005 -0.7534 -0.6074 -2.0061
 6023TIP3   OH239559   4.646   0.232   3.603 -0.1006 -0.3770  0.0330
 6023TIP3    H139560   4.599   0.197   3.679  0.6789 -0.2263  0.5992
 6023TIP3    H239561   4.688   0.311   3.635  0.0919 -0.2133 -0.6083
 6024TIP3   OH239562   1.766   2.407   3.903  0.3056 -0.1359 -0.0583
 6024TIP3    H139563   1.792   2.315   3.902 -0.5413 -0.3847  0.2531
 6024TIP3    H239564   1.690   2.410   3.961  0.9051  0.9228  0.7244
 6025TIP3   OH239565   0.215   4.027  12.691 -0.0558 -0.1001 -0.0485
 6025TIP3    H139566   0.217   4.091  12.620  2.9928 -0.9587 -0.8839
 6025TIP3    H239567   0.186   3.946  12.649 -1.1304  0.0465  0.3830
 6026TIP3   OH239568   0.815   5.054   1.049 -0.1032  0.2704 -0.0507
 6026TIP3    H139569   0.809   5.026   1.140 -2.5307 -1.2747 -0.5632
 6026TIP3    H239570   0.796   5.148   1.051 -1.1938  0.0524  0.9706
 6027TIP3   OH239571   1.913   4.022   0.312  0.0275  0.0464 -0.0620
 6027TIP3    H139572   1.987   4.069   0.348 -0.1554  0.7073 -0.5338
 6027TIP3    H239573   1.898   4.061   0.226 -1.8062  0.9732  0.6193
 6028TIP3   OH239574   5.418   2.791   0.856 -0.2904  0.2356  0.9228
 6028TIP3    H139575   5.405   2.717   0.796 -3.1934  0.9598  0.4922
 6028TIP3    H239576   5.503   2.775   0.897  1.1821 -1.0626 -2.3001
 6029TIP3   OH239577   2.091   0.373   0.002 -0.2767 -0.8643 -0.5498
 6029TIP3    H139578   2.101   0.305   0.069  0.2893 -0.3297 -0.0866
 6029TIP3    H239579   2.060   0.450   0.050 -0.7662 -0.7360 -1.0489
 6030TIP3   OH239580   1.722   4.822   2.613  0.1140 -0.2849 -0.8451
 6030TIP3    H139581   1.724   4.813   2.517  0.2215 -0.8105 -0.7978
 6030TIP3    H239582   1.695   4.912   2.628  0.5441 -0.0593 -1.3792
 6031TIP3   OH239583   4.049   6.613  12.120 -0.1693 -0.2578  0.9918
 6031TIP3    H139584   4.053   6.518  12.130  1.1836 -0.2748  0.4779
 6031TIP3    H239585   4.099   6.648  12.194 -0.3892  0.0572  0.9990
 6032TIP3   OH239586   1.980   0.576   2.583 -0.0986  0.3102 -0.0126
 6032TIP3    H139587   1.974   0.627   2.664  0.3402 -1.2798  1.0688
 6032TIP3    H239588   1.957   0.638   2.514 -1.1713  1.5383  1.3792
 6033TIP3   OH239589   1.965   0.747  17.020 -0.4719  0.0459  0.2863
 6033TIP3    H139590   1.971   0.678  16.953 -1.1156  0.3774 -0.1228
 6033TIP3    H239591   1.897   0.715  17.080 -0.1826 -0.0624  0.5526
 6034TIP3   OH239592   1.911   5.301  15.346 -0.2283  0.2774  0.1640
 6034TIP3    H139593   1.990   5.281  15.296 -1.7446 -1.7887 -1.6019
 6034TIP3    H239594   1.892   5.392  15.325  1.8865  0.9796  1.0304
 6035TIP3   OH239595   5.460   3.552   5.382  0.2438  0.3952 -0.2548
 6035TIP3    H139596   5.548   3.587   5.366  0.4866  0.0289  0.2820
 6035TIP3    H239597   5.446   3.565   5.475  0.1159 -0.4447 -0.1534
 6036TIP3   OH239598   6.129   6.217   1.850  0.2242  0.2606 -0.2793
 6036TIP3    H139599   6.220   6.199   1.871  0.7571  1.5768 -1.3745
 6036TIP3    H239600   6.080   6.150   1.898  1.8130 -1.1477 -0.5377
 6037TIP3   OH239601   4.118   0.026   0.604 -1.1915  0.2564  0.0175
 6037TIP3    H139602   4.151   0.024   0.694 -2.2107 -1.4539  0.3889
 6037TIP3    H239603   4.197   0.021   0.550 -0.6864 -2.4059  0.8754
 6038TIP3   OH239604   2.545   0.706   5.521 -0.0878 -0.3051 -0.3225
 6038TIP3    H139605   2.462   0.687   5.479 -1.3033  0.4753  1.5789
 6038TIP3    H239606   2.606   0.722   5.449 -2.2372  1.8722 -1.8245
 6039TIP3   OH239607   4.407   3.374   0.821  0.0192  0.6252 -0.4391
 6039TIP3    H139608   4.478   3.364   0.757 -0.0397  0.4399 -0.4753
 6039TIP3    H239609   4.397   3.469   0.830  1.0659  0.6765  0.4489
 6040TIP3   OH239610   5.879   3.400  14.936 -0.4932  0.2769 -0.9399
 6040TIP3    H139611   5.871   3.431  14.845 -1.7393  0.7900 -0.6827
 6040TIP3    H239612   5.830   3.318  14.938 -2.6588  1.5114 -0.2027
 6041TIP3   OH239613   5.186   1.765   4.663 -0.2941 -0.5743 -0.0342
 6041TIP3    H139614   5.196   1.732   4.753 -2.6506 -0.5166  0.3030
 6041TIP3    H239615   5.197   1.688   4.608  3.2992 -0.2809  0.0566
 6042TIP3   OH239616   3.453   0.779  12.220  0.4293  0.1772  0.0983
 6042TIP3    H139617   3.444   0.870  12.249  0.7531  0.5031 -0.8111
 6042TIP3    H239618   3.527   0.745  12.270  0.8347  0.6644 -0.1717
 6043TIP3   OH239619   0.563   3.732  12.655  0.1355  0.4224 -0.4661
 6043TIP3    H139620   0.512   3.765  12.581 -1.4298  1.5929  1.0789
 6043TIP3    H239621   0.557   3.637  12.648 -0.8149  0.5314 -1.2865
 6044TIP3   OH239622   1.080   6.280   5.883 -0.1045  0.0427 -0.0338
 6044TIP3    H139623   1.009   6.332   5.845  0.5107  0.3983 -0.7136
 6044TIP3    H239624   1.122   6.237   5.808 -2.7883 -4.4191  0.6400
 6045TIP3   OH239625   6.115   0.854  11.925  0.5423 -1.2348 -0.0660
 6045TIP3    H139626   6.079   0.788  11.866  0.7236 -2.1481  0.8133
 6045TIP3    H239627   6.056   0.929  11.918 -0.2249 -1.8621 -0.3460
 6046TIP3   OH239628   2.036   3.665   2.439 -0.7369 -0.3096  0.1834
 6046TIP3    H139629   2.032   3.580   2.484  0.3803 -1.2912 -1.4436
 6046TIP3    H239630   2.129   3.689   2.443 -1.0332  0.8491  0.5761
 6047TIP3   OH239631   1.919   5.582   4.694  0.1206  0.7474 -0.1945
 6047TIP3    H139632   1.976   5.657   4.709 -0.4781  1.0847  0.4666
 6047TIP3    H239633   1.866   5.576   4.774 -1.5021  1.0883 -1.2019
 6048TIP3   OH239634   3.132   0.206   2.373  0.0404  0.0170  0.2566
 6048TIP3    H139635   3.135   0.263   2.450  1.3001 -0.1046  0.3143
 6048TIP3    H239636   3.086   0.257   2.307  0.5663  0.8471  0.5160
 6049TIP3   OH239637   4.590   1.944  15.981 -0.7168 -0.3604  0.1881
 6049TIP3    H139638   4.546   1.859  15.980 -0.3793 -0.5425  0.5350
 6049TIP3    H239639   4.521   2.007  15.999 -0.8286 -0.6504  0.7736
 6050TIP3   OH239640   2.227   2.244  13.298 -0.5101 -0.0213  0.1662
 6050TIP3    H139641   2.153   2.303  13.307  0.5398  1.2807  0.5174
 6050TIP3    H239642   2.239   2.234  13.203 -0.0479  1.2009  0.0779
 6051TIP3   OH239643   3.773   6.486  16.999  0.0186 -1.0051  0.2830
 6051TIP3    H139644   3.789   6.410  17.055  2.3403  0.2774  1.4819
 6051TIP3    H239645   3.679   6.502  17.006 -0.2192 -2.6773  1.4084
 6052TIP3   OH239646   2.650   2.884   0.451  0.2358 -0.3053 -0.2066
 6052TIP3    H139647   2.555   2.894   0.450  0.4234  4.3508  1.5849
 6052TIP3    H239648   2.671   2.865   0.543  1.0888  0.8252 -0.1518
 6053TIP3   OH239649   0.457   5.984  16.841 -0.1315 -0.0296 -0.1164
 6053TIP3    H139650   0.402   6.049  16.797  0.7815  1.0210  0.2608
 6053TIP3    H239651   0.458   6.013  16.933  0.9084 -0.1367 -0.0918
 6054TIP3   OH239652   0.018   1.131  11.734  0.2811 -0.1379  0.3783
 6054TIP3    H139653   0.054   1.185  11.664 -0.3952  1.2790  1.0812
 6054TIP3    H239654  -0.059   1.089  11.695 -0.2943  0.9141  0.3419
 6055TIP3   OH239655   0.232   5.955   0.981 -0.3922  0.1400 -0.0960
 6055TIP3    H139656   0.231   5.892   1.052  0.9178 -0.0450 -0.2044
 6055TIP3    H239657   0.203   5.906   0.904  1.8912 -0.7868 -0.4725
 6056TIP3   OH239658   2.251   0.637  12.945  0.4307  0.0447  0.2025
 6056TIP3    H139659   2.249   0.603  13.035  1.1202  0.5160  0.3984
 6056TIP3    H239660   2.189   0.581  12.898 -1.7218  1.2273  1.4523
 6057TIP3   OH239661   0.923   1.992   2.077 -0.0973 -0.1446  0.1852
 6057TIP3    H139662   1.016   2.014   2.075 -0.6986  2.7584 -1.1936
 6057TIP3    H239663   0.893   2.023   2.162  0.1586 -1.0440  0.6132
 6058TIP3   OH239664   4.570   4.035  10.129 -0.7307  0.0050 -0.0719
 6058TIP3    H139665   4.572   4.014  10.222  0.2908  0.1886 -0.0366
 6058TIP3    H239666   4.521   4.117  10.124 -0.7405  0.0266  0.3209
 6059TIP3   OH239667   4.098   2.031   4.606  0.1984 -0.3991 -0.0355
 6059TIP3    H139668   4.099   1.943   4.642  1.4997 -0.0836  0.7933
 6059TIP3    H239669   4.170   2.033   4.544 -1.0961 -0.4862 -1.5965
 6060TIP3   OH239670   1.145   2.930   4.330  0.1654 -0.0142 -0.2800
 6060TIP3    H139671   1.095   2.853   4.302 -2.7065  0.8510  1.9214
 6060TIP3    H239672   1.187   2.903   4.412  0.6115  0.2144 -0.4337
 6061TIP3   OH239673   4.323   6.082   2.274 -0.4941  0.5479  0.0734
 6061TIP3    H139674   4.323   5.986   2.275 -2.1123  0.5266  0.7561
 6061TIP3    H239675   4.352   6.108   2.361 -0.0518  0.6966 -0.1121
 6062TIP3   OH239676   3.068   4.919  14.127  0.0992  0.3768  0.1636
 6062TIP3    H139677   3.110   4.836  14.103 -1.5890 -0.5346  0.1915
 6062TIP3    H239678   2.991   4.893  14.178 -0.4075  1.9670  0.2595
 6063TIP3   OH239679   3.507   5.922  15.078  0.8972 -0.2558  0.2955
 6063TIP3    H139680   3.433   5.979  15.100  0.1258 -0.4762 -1.5778
 6063TIP3    H239681   3.584   5.978  15.091  0.2489  0.7808 -0.1240
 6064TIP3   OH239682   5.602   2.303  12.449  0.2757  0.0310  0.5424
 6064TIP3    H139683   5.664   2.376  12.459 -0.6970  0.9473  0.0251
 6064TIP3    H239684   5.520   2.344  12.422 -0.4484 -1.2110  0.7697
 6065TIP3   OH239685   5.141   5.940  12.677 -0.2477 -0.7792  0.6278
 6065TIP3    H139686   5.163   6.019  12.726 -0.3284 -0.8993  0.8556
 6065TIP3    H239687   5.224   5.895  12.664 -0.0107 -0.0686 -0.5353
 6066TIP3   OH239688   2.790   3.362  15.730  0.0309  0.0108 -0.2613
 6066TIP3    H139689   2.793   3.455  15.754  0.6983 -0.2176  0.5899
 6066TIP3    H239690   2.879   3.342  15.702  0.0097 -0.4812  0.0080
 6067TIP3   OH239691   3.835   6.460   1.256  0.0326  0.6449  0.1184
 6067TIP3    H139692   3.801   6.463   1.345  0.2677  0.0909  0.2273
 6067TIP3    H239693   3.769   6.412   1.206  0.3187  0.1913  0.1783
 6068TIP3   OH239694   0.231   4.295  13.268 -0.5489 -0.0857 -0.4774
 6068TIP3    H139695   0.292   4.354  13.225  0.6610 -0.4022  0.7377
 6068TIP3    H239696   0.279   4.212  13.277 -1.1722 -0.3678  0.4299
 6069TIP3   OH239697   3.292   0.066  11.862 -0.2890 -0.1914 -0.3412
 6069TIP3    H139698   3.257  -0.004  11.917  1.7053  0.1418  1.4446
 6069TIP3    H239699   3.235   0.141  11.879  1.0148  0.3032  2.4215
 6070TIP3   OH239700   4.988   4.927   0.658 -0.4319  0.0605 -0.5428
 6070TIP3    H139701   4.982   5.005   0.713 -1.7722  0.8176 -1.6757
 6070TIP3    H239702   5.035   4.863   0.711 -1.4647  0.8139  1.3899
 6071TIP3   OH239703   0.949   1.723  15.316  0.2281  0.2816  0.1175
 6071TIP3    H139704   0.870   1.671  15.327  0.2417  0.5443  1.7201
 6071TIP3    H239705   1.018   1.671  15.358  0.6111  0.7281  0.0576
 6072TIP3   OH239706   3.166   0.859   4.156 -0.4202  0.1233  0.1136
 6072TIP3    H139707   3.089   0.831   4.205 -0.5035  1.8153  1.0141
 6072TIP3    H239708   3.165   0.954   4.161  0.6984  0.2588 -1.4975
 6073TIP3   OH239709   4.587   1.699   5.548 -0.1928  1.0066 -0.0621
 6073TIP3    H139710   4.656   1.715   5.613  3.5238 -2.3146 -2.6711
 6073TIP3    H239711   4.526   1.641   5.593  0.3443  1.5700  1.4742
 6074TIP3   OH239712   1.995   6.702   6.553  0.5819 -0.2321  0.3194
 6074TIP3    H139713   1.910   6.679   6.515  1.4741 -1.0045 -1.2991
 6074TIP3    H239714   2.024   6.623   6.598  1.5901 -0.8772 -1.3704
 6075TIP3   OH239715   2.119   1.199  12.247 -0.4253  0.4540  0.2860
 6075TIP3    H139716   2.092   1.281  12.207 -1.9876  0.2682  0.8690
 6075TIP3    H239717   2.208   1.215  12.279 -0.2318  1.4887 -0.7393
 6076TIP3   OH239718   1.126   0.447   0.279  0.7447  0.5579 -0.2528
 6076TIP3    H139719   1.050   0.472   0.332  0.1774  0.0084 -0.7910
 6076TIP3    H239720   1.119   0.501   0.200  1.0399  0.6554 -0.2170
 6077TIP3   OH239721   6.728   5.222  14.158 -0.7438 -0.4689 -0.3643
 6077TIP3    H139722   6.740   5.169  14.237  0.9093  0.1277 -0.1783
 6077TIP3    H239723   6.684   5.301  14.188  0.9378  0.2885  0.2249
 6078TIP3   OH239724   5.232   0.386  12.460  0.6148  0.0580 -0.9836
 6078TIP3    H139725   5.215   0.480  12.469  3.3706  0.5629 -0.1921
 6078TIP3    H239726   5.254   0.374  12.368 -0.9089 -0.0815 -1.3573
 6079TIP3   OH239727   1.360   4.070  12.952  0.0981 -0.0972 -0.0276
 6079TIP3    H139728   1.369   4.042  13.043  3.1993  0.4055 -0.0423
 6079TIP3    H239729   1.312   4.152  12.957  0.7650  0.2474  1.2427
 6080TIP3   OH239730   2.894   2.902   4.107  0.4341 -0.3056  0.1048
 6080TIP3    H139731   2.957   2.973   4.110 -0.6526  0.8236 -1.8662
 6080TIP3    H239732   2.920   2.850   4.031 -1.4768  0.7260 -1.3401
 6081TIP3   OH239733   4.829   4.901  15.889  0.2045  0.3547 -0.3517
 6081TIP3    H139734   4.905   4.937  15.843 -0.1583  0.9503 -0.4980
 6081TIP3    H239735   4.765   4.883  15.820  0.1218  0.0888 -0.2052
 6082TIP3   OH239736   3.003   5.344   2.309 -0.1072  0.0097 -0.5061
 6082TIP3    H139737   3.018   5.432   2.275  1.0128  0.0789  0.1258
 6082TIP3    H239738   3.091   5.310   2.328 -0.6179 -0.4898  1.1078
 6083TIP3   OH239739   4.808   6.101   0.656 -0.4399 -0.4642 -0.3764
 6083TIP3    H139740   4.771   6.177   0.700  0.1417 -0.4155  0.0352
 6083TIP3    H239741   4.880   6.136   0.604  0.0327 -0.7692  0.0594
 6084TIP3   OH239742   5.045   4.166   3.569 -0.0194  0.4425  0.5467
 6084TIP3    H139743   5.113   4.108   3.534 -0.9680  0.0763 -0.7774
 6084TIP3    H239744   5.052   4.246   3.517 -0.3458  0.5509  0.6680
 6085TIP3   OH239745   3.319   5.915   0.642 -0.1144 -0.0930 -0.0206
 6085TIP3    H139746   3.391   5.880   0.695 -0.0114 -2.8570 -1.7477
 6085TIP3    H239747   3.288   5.839   0.593 -2.4415  1.6132 -1.3535
 6086TIP3   OH239748   2.333   1.174   0.702 -0.6459  0.0447  0.1824
 6086TIP3    H139749   2.390   1.245   0.733 -2.3522  1.8832 -0.6775
 6086TIP3    H239750   2.244   1.206   0.718 -1.5059 -0.9942 -2.1219
 6087TIP3   OH239751   2.924   5.207  12.944 -0.0533  0.7926 -0.4966
 6087TIP3    H139752   2.952   5.117  12.964 -1.5145  0.2702 -0.7075
 6087TIP3    H239753   2.955   5.258  13.018 -3.2905 -0.6980  2.1464
 6088TIP3   OH239754   1.275   2.872   4.551  0.2652  0.2737  0.6440
 6088TIP3    H139755   1.280   2.906   4.640  0.9819  1.7919  0.0580
 6088TIP3    H239756   1.364   2.884   4.516 -0.4051  1.2613 -0.7947
 6089TIP3   OH239757   2.113   4.953   5.238 -0.4652  0.2014  0.8626
 6089TIP3    H139758   2.075   5.034   5.205 -0.7454 -0.2783 -0.0102
 6089TIP3    H239759   2.065   4.936   5.320 -3.5787 -1.3869 -1.1085
 6090TIP3   OH239760   1.870   1.857  15.165 -0.1319  0.1086  0.5609
 6090TIP3    H139761   1.926   1.805  15.107 -0.3478 -0.3030  0.7185
 6090TIP3    H239762   1.922   1.935  15.184  0.3197 -0.1858  0.5630
 6091TIP3   OH239763   0.161   2.675  11.251 -0.1551  0.0297 -0.1845
 6091TIP3    H139764   0.084   2.621  11.236 -0.0076  0.0002 -0.8807
 6091TIP3    H239765   0.129   2.765  11.244 -0.5749  0.0838  1.8354
 6092TIP3   OH239766   4.771   2.107   5.384  0.3308  0.1877 -0.0817
 6092TIP3    H139767   4.799   2.030   5.435 -1.0540  0.8694  1.8376
 6092TIP3    H239768   4.814   2.181   5.427 -1.3305  0.8416  0.5394
 6093TIP3   OH239769   1.529   3.933  13.910  0.3629  0.6213  0.3340
 6093TIP3    H139770   1.435   3.917  13.900  0.7310 -0.2644 -2.6133
 6093TIP3    H239771   1.569   3.847  13.904  1.4640  1.1330  0.1177
 6094TIP3   OH239772   4.889   0.600   3.218  0.0451 -0.1281 -0.2654
 6094TIP3    H139773   4.883   0.662   3.291  0.1170  2.4458 -2.3464
 6094TIP3    H239774   4.825   0.532   3.240 -0.9354  1.2830  1.5385
 6095TIP3   OH239775   1.241   4.721  14.718  0.3945 -0.0178  0.4719
 6095TIP3    H139776   1.179   4.705  14.788  1.8218  1.3417  2.1449
 6095TIP3    H239777   1.271   4.811  14.732  1.3853  0.0032 -1.3703
 6096TIP3   OH239778   2.981   4.434  16.029 -0.6781 -0.2948 -0.5071
 6096TIP3    H139779   3.016   4.369  15.969 -0.5867  0.4011 -1.2187
 6096TIP3    H239780   2.895   4.400  16.054 -1.7251  0.4570 -2.8039
 6097TIP3   OH239781   5.567   6.382  12.880  0.0152 -0.5375  0.8061
 6097TIP3    H139782   5.570   6.456  12.820 -0.0919  0.4144  1.9439
 6097TIP3    H239783   5.659   6.361  12.897  0.0499 -1.2944 -0.2521
 6098TIP3   OH239784   2.024   5.175   3.850 -0.2006  0.0814  0.6712
 6098TIP3    H139785   1.990   5.124   3.924 -0.0029 -0.6126  0.2850
 6098TIP3    H239786   2.013   5.119   3.774  1.1841  0.0982  0.4230
 6099TIP3   OH239787   6.163   0.526  14.316  0.3170 -0.5984  0.6702
 6099TIP3    H139788   6.078   0.538  14.274  0.1030 -2.6028  0.4304
 6099TIP3    H239789   6.195   0.615  14.331 -0.8714  0.1938 -1.1214
 6100TIP3   OH239790   4.679   2.173  10.447 -0.2491  0.3133  0.0028
 6100TIP3    H139791   4.738   2.129  10.509  0.5452  0.2496 -0.7679
 6100TIP3    H239792   4.615   2.217  10.502  0.4431  0.2759  0.8704
 6101TIP3   OH239793   2.474   2.240   5.112 -0.4622 -0.1700  0.2318
 6101TIP3    H139794   2.443   2.189   5.037  0.5168 -0.8599  0.2691
 6101TIP3    H239795   2.424   2.206   5.187 -0.0936 -0.8220  0.1911
 6102TIP3   OH239796   6.301   2.742   4.359  0.3129  0.4358  0.7597
 6102TIP3    H139797   6.215   2.762   4.395 -0.8870  0.7372 -2.0265
 6102TIP3    H239798   6.329   2.662   4.404 -2.1099 -0.5338  0.6568
 6103TIP3   OH239799   0.214   5.699  15.267  0.7311  0.2243  0.2757
 6103TIP3    H139800   0.283   5.634  15.284  0.9666  0.4082  0.0262
 6103TIP3    H239801   0.139   5.667  15.316  0.8589 -0.2183  0.1895
 6104TIP3   OH239802   5.505   4.163  13.705  0.9868 -0.3571 -0.1976
 6104TIP3    H139803   5.520   4.070  13.688  0.8130 -0.3636 -0.3122
 6104TIP3    H239804   5.561   4.209  13.642  1.9839 -0.3825  0.6499
 6105TIP3   OH239805   0.734   1.828  14.713 -0.2337  0.7023 -0.1094
 6105TIP3    H139806   0.813   1.774  14.719 -1.3365 -0.8903  0.7143
 6105TIP3    H239807   0.694   1.803  14.630 -1.1809 -0.4504  0.6510
 6106TIP3   OH239808   4.410   3.733   2.207 -0.1012  0.3089  0.2010
 6106TIP3    H139809   4.392   3.644   2.175  1.3079  0.1131 -0.1033
 6106TIP3    H239810   4.341   3.749   2.272  0.6716 -1.7463  1.6417
 6107TIP3   OH239811   2.329   4.772   2.228  0.1561 -0.0686  0.2440
 6107TIP3    H139812   2.316   4.846   2.169 -1.4817 -0.8105 -0.3987
 6107TIP3    H239813   2.403   4.797   2.283  0.3735  1.5369 -0.7261
 6108TIP3   OH239814   6.505   6.314  15.396 -0.3055  0.2120  0.0604
 6108TIP3    H139815   6.595   6.288  15.418 -0.0412 -0.3539 -1.5871
 6108TIP3    H239816   6.488   6.389  15.454  2.2759  2.2004 -1.4808
 6109TIP3   OH239817   1.172   0.471   3.826 -0.2945 -0.3739 -0.7237
 6109TIP3    H139818   1.223   0.450   3.904  0.6706  0.4965 -1.0905
 6109TIP3    H239819   1.170   0.390   3.776 -0.0085 -0.6523 -0.2863
 6110TIP3   OH239820   0.014   1.095   1.149  0.6141 -0.2050  0.5768
 6110TIP3    H139821   0.046   1.061   1.066  0.5789  1.5363 -0.1874
 6110TIP3    H239822   0.092   1.127   1.194  0.3413  1.3693 -0.0160
 6111TIP3   OH239823   5.299   4.044  16.578  0.6511 -0.2629 -0.3035
 6111TIP3    H139824   5.309   4.039  16.483  0.5149 -0.3669 -0.3136
 6111TIP3    H239825   5.373   3.994  16.612  0.4860 -0.5589 -0.3649
 6112TIP3   OH239826   3.198   4.138  16.394 -0.2182 -0.0838 -0.5445
 6112TIP3    H139827   3.184   4.114  16.302 -0.7573 -0.8520 -0.2696
 6112TIP3    H239828   3.284   4.100  16.415 -0.6705 -1.0371 -0.3677
 6113TIP3   OH239829   6.537   5.612  13.845 -0.3185 -0.4764  0.0921
 6113TIP3    H139830   6.478   5.663  13.900  0.8829  0.1221  0.8854
 6113TIP3    H239831   6.497   5.615  13.758 -0.9880  0.6712  0.4141
 6114TIP3   OH239832   6.634   5.744  11.310  0.3594  0.1101 -0.5041
 6114TIP3    H139833   6.612   5.774  11.398 -0.9708  1.3161 -1.2095
 6114TIP3    H239834   6.722   5.778  11.294  0.5182  0.0685  0.2777
 6115TIP3   OH239835   1.817   3.233   1.940  0.2766  0.2883 -0.4654
 6115TIP3    H139836   1.855   3.222   2.027  0.2873 -0.5581 -0.5708
 6115TIP3    H239837   1.748   3.298   1.953 -1.7990 -2.0197  0.8397
 6116TIP3   OH239838   6.509   4.771  12.397  0.0716  0.1162  0.1387
 6116TIP3    H139839   6.475   4.720  12.324 -1.4013 -0.0675  0.9061
 6116TIP3    H239840   6.494   4.862  12.372  0.5813  0.1043 -0.2363
 6117TIP3   OH239841   5.687   3.556  11.399 -0.1589  0.5185  0.4828
 6117TIP3    H139842   5.696   3.583  11.490  0.0267  2.1264  0.0091
 6117TIP3    H239843   5.768   3.509  11.380  0.2222  1.0133  0.8672
 6118TIP3   OH239844   3.535   2.753   2.384 -0.0717 -0.2277  0.0418
 6118TIP3    H139845   3.624   2.724   2.364 -0.4687 -0.6142 -1.2507
 6118TIP3    H239846   3.500   2.685   2.443  0.1023 -0.6743 -0.3666
 6119TIP3   OH239847   5.827   6.681  13.725  0.2687  0.3228 -0.4696
 6119TIP3    H139848   5.762   6.617  13.755  2.4646 -1.7911  0.0901
 6119TIP3    H239849   5.812   6.758  13.779 -0.1611 -1.0316  1.4370
 6120TIP3   OH239850   2.170   5.046  15.604 -0.3591 -0.4595  0.7281
 6120TIP3    H139851   2.235   5.045  15.533 -2.2118 -0.3570 -1.0615
 6120TIP3    H239852   2.150   4.953  15.618 -1.4961 -0.4103 -0.3914
 6121TIP3   OH239853   6.449   0.570   3.095  0.5333 -0.2282 -0.6238
 6121TIP3    H139854   6.421   0.662   3.093  0.2211 -0.2928  0.2547
 6121TIP3    H239855   6.368   0.521   3.112  0.8269 -0.6027 -0.3015
 6122TIP3   OH239856   3.684   5.598  14.788  0.0910 -0.5391 -0.4729
 6122TIP3    H139857   3.723   5.514  14.764 -1.2279 -1.0906 -0.7735
 6122TIP3    H239858   3.591   5.579  14.798 -0.2226  0.8894 -0.5069
 6123TIP3   OH239859   6.613   2.809   3.434  0.7026  0.3228 -0.4246
 6123TIP3    H139860   6.562   2.814   3.353  0.5457 -0.2617 -0.3703
 6123TIP3    H239861   6.691   2.860   3.417  0.1180  1.1956 -0.5266
 6124TIP3   OH239862   0.467   0.607   1.326 -0.0492 -0.0658  0.5447
 6124TIP3    H139863   0.461   0.511   1.328  0.5611 -0.1114  0.2468
 6124TIP3    H239864   0.495   0.631   1.413  4.0571 -0.4772 -0.4663
 6125TIP3   OH239865   3.350   5.014   5.933 -0.7282  0.1385 -0.0204
 6125TIP3    H139866   3.343   5.109   5.943  2.5401  0.6305 -1.2641
 6125TIP3    H239867   3.389   5.001   5.846  1.1825 -2.1634  1.0436
 6126TIP3   OH239868   4.373   2.585   0.938  0.2335 -0.2496 -0.2902
 6126TIP3    H139869   4.282   2.557   0.952 -0.2980  0.4473 -2.0732
 6126TIP3    H239870   4.374   2.677   0.965  0.6092 -0.4428  0.3889
 6127TIP3   OH239871   6.723   1.180   2.145  0.2347 -0.1018  0.0887
 6127TIP3    H139872   6.706   1.269   2.115  0.4880  0.4598  1.5376
 6127TIP3    H239873   6.653   1.127   2.106 -1.2340  1.1113  0.9843
 6128TIP3   OH239874   2.365   1.451   3.419 -0.6319  0.2205 -0.8618
 6128TIP3    H139875   2.372   1.459   3.514 -1.2813 -0.3265 -0.7568
 6128TIP3    H239876   2.272   1.468   3.400 -1.2574 -2.8200 -1.0107
 6129TIP3   OH239877   1.282   1.262  11.876  0.4863 -0.1558 -0.1252
 6129TIP3    H139878   1.274   1.205  11.800  0.6099 -1.3671  0.7463
 6129TIP3    H239879   1.370   1.246  11.909  0.9538  1.4155 -0.5124
 6130TIP3   OH239880   0.631   2.199  11.740  0.4948  0.2386 -1.2539
 6130TIP3    H139881   0.631   2.138  11.815  0.0539  0.0276 -1.4222
 6130TIP3    H239882   0.546   2.242  11.744  0.2640 -0.1444 -1.9320
 6131TIP3   OH239883   0.680   6.732  14.558  0.4818 -0.0460  0.1134
 6131TIP3    H139884   0.668   6.812  14.507  1.0163  0.9623  1.5224
 6131TIP3    H239885   0.592   6.703  14.580  0.3026  0.4453  0.0320
 6132TIP3   OH239886   6.186   1.104  14.616  0.2805  0.2459 -0.1872
 6132TIP3    H139887   6.230   1.184  14.643 -0.5292  0.3523  0.8939
 6132TIP3    H239888   6.254   1.053  14.572  1.1809  0.8927  0.4124
 6133TIP3   OH239889   6.652   5.217   1.673  0.3335  0.0422  0.0354
 6133TIP3    H139890   6.726   5.175   1.629  0.0200  0.8514 -1.3331
 6133TIP3    H239891   6.614   5.274   1.606  1.3247  3.2694  1.9882
 6134TIP3   OH239892   2.027   1.018  12.041  0.3045 -0.1560 -0.0274
 6134TIP3    H139893   2.067   1.045  11.959  0.2117 -0.7383 -0.2672
 6134TIP3    H239894   2.029   1.096  12.096 -0.5044  0.5010 -0.9092
 6135TIP3   OH239895   3.713   5.606   1.082 -0.3519  0.1462  0.2475
 6135TIP3    H139896   3.729   5.698   1.065  0.9472 -0.3440 -1.4199
 6135TIP3    H239897   3.750   5.591   1.169  1.7243  0.6760 -0.4991
 6136TIP3   OH239898   0.662   5.848   1.111  0.4523  0.1182  0.0708
 6136TIP3    H139899   0.613   5.923   1.078  0.4887 -0.4677 -1.3625
 6136TIP3    H239900   0.634   5.839   1.202 -2.1636 -0.2269 -0.7016
 6137TIP3   OH239901   1.193   1.140  12.244 -0.3864 -0.4679  0.0672
 6137TIP3    H139902   1.278   1.102  12.222  0.5495  1.4788  0.0783
 6137TIP3    H239903   1.159   1.172  12.160 -1.8110 -2.4242 -0.1818
 6138TIP3   OH239904   1.571   0.948  11.008  0.7747 -0.5787  0.7363
 6138TIP3    H139905   1.597   0.915  10.922 -1.3803  1.6151 -0.8516
 6138TIP3    H239906   1.644   1.004  11.035  0.8338 -0.1332 -0.3303
 6139TIP3   OH239907   2.806   6.708   3.971 -0.6808 -0.4297 -0.1269
 6139TIP3    H139908   2.814   6.628   3.920  1.1925  0.8707 -2.0302
 6139TIP3    H239909   2.869   6.769   3.932 -0.0734  1.1214  2.9237
 6140TIP3   OH239910   5.346   2.609  14.143  0.3114  0.3546  0.2057
 6140TIP3    H139911   5.355   2.678  14.077 -1.9390 -0.7421 -1.3904
 6140TIP3    H239912   5.271   2.558  14.113  0.7207 -1.6509  2.3650
 6141TIP3   OH239913   0.020   4.744  16.529 -0.7432 -0.0513  0.7477
 6141TIP3    H139914   0.039   4.670  16.471 -1.0922  0.1741  0.3396
 6141TIP3    H239915  -0.018   4.810  16.471 -0.4070  0.4599  1.1031
 6142TIP3   OH239916   0.810   5.680  14.706 -0.7342 -0.0516  0.7984
 6142TIP3    H139917   0.773   5.761  14.672 -1.2274 -0.4016  0.4812
 6142TIP3    H239918   0.764   5.611  14.659 -0.7290 -0.5273  1.4645
 6143TIP3   OH239919   2.327   2.943  13.761  0.4110  0.8406  0.1214
 6143TIP3    H139920   2.308   2.858  13.721  0.4278  0.6615  0.4984
 6143TIP3    H239921   2.414   2.966  13.730  0.9159  0.1509  0.9998
 6144TIP3   OH239922   4.647   0.703  12.803 -0.1906 -0.2329  0.6867
 6144TIP3    H139923   4.713   0.634  12.795 -0.2449 -0.3502  1.2273
 6144TIP3    H239924   4.565   0.656  12.819 -0.1142 -0.0266  1.7608
 6145TIP3   OH239925   6.269   1.324   5.284 -0.9219  0.1749  0.1750
 6145TIP3    H139926   6.236   1.235   5.280 -0.7793  0.0992  0.6311
 6145TIP3    H239927   6.331   1.324   5.357 -1.5666  0.8584  0.7403
 6146TIP3   OH239928   5.608   0.660   1.215 -0.4082  0.1236  0.1751
 6146TIP3    H139929   5.566   0.633   1.297 -1.1721  0.6677 -0.0331
 6146TIP3    H239930   5.701   0.638   1.228 -0.5227  0.1669  1.1650
 6147TIP3   OH239931   1.986   5.978   3.636  0.3543 -0.1509  0.0055
 6147TIP3    H139932   2.073   6.014   3.620  0.4551 -0.1756  0.4789
 6147TIP3    H239933   1.929   6.022   3.573  0.6787 -0.0114 -0.1916
 6148TIP3   OH239934   0.858   5.314   1.733 -0.5164  0.4385  0.6237
 6148TIP3    H139935   0.919   5.386   1.751 -1.6163  1.1433  1.6425
 6148TIP3    H239936   0.910   5.235   1.746  0.5850  1.0304 -0.0237
 6149TIP3   OH239937   5.866   6.088   3.130  0.1971  0.2707  0.1311
 6149TIP3    H139938   5.819   6.028   3.071 -0.5694  1.2491 -0.2928
 6149TIP3    H239939   5.849   6.054   3.217  0.5381 -0.6519 -0.1532
 6150TIP3   OH239940   4.450   3.412   5.236  0.1397 -0.4131 -0.5785
 6150TIP3    H139941   4.536   3.438   5.204 -0.1421  0.3658 -0.7392
 6150TIP3    H239942   4.430   3.331   5.189  0.5436 -0.2904 -0.9638
 6151TIP3   OH239943   0.623   5.731  11.378  0.2718 -0.2375 -0.0643
 6151TIP3    H139944   0.700   5.674  11.370  0.5158  0.1263 -0.3914
 6151TIP3    H239945   0.636   5.777  11.461  0.2585 -0.3945  0.0243
 6152TIP3   OH239946   2.472   3.430  12.903  0.5381 -0.1360 -0.0065
 6152TIP3    H139947   2.427   3.439  12.987 -1.4046 -2.5634 -0.6812
 6152TIP3    H239948   2.504   3.340  12.902 -0.6952 -0.6325 -2.3715
 6153TIP3   OH239949   3.895   3.749   0.530 -0.8717 -0.4784  0.8373
 6153TIP3    H139950   3.824   3.705   0.577 -0.8148 -0.1452  1.2429
 6153TIP3    H239951   3.916   3.690   0.457 -0.2298 -1.5444  1.8436
 6154TIP3   OH239952   4.360   0.792  13.473 -0.4399 -0.0602  0.0563
 6154TIP3    H139953   4.450   0.770  13.497 -0.4469 -0.1261  0.0233
 6154TIP3    H239954   4.368   0.842  13.392 -0.5411 -1.7267 -1.0274
 6155TIP3   OH239955   5.369   4.844  14.950  0.4624 -0.0946  0.1144
 6155TIP3    H139956   5.429   4.903  14.904  0.9437 -1.7556 -1.4614
 6155TIP3    H239957   5.286   4.892  14.952  0.9221  0.7762 -0.8551
 6156TIP3   OH239958   2.415   5.947  12.519  0.1292 -0.3655  0.5714
 6156TIP3    H139959   2.466   5.946  12.438  1.6504  0.4880  1.4809
 6156TIP3    H239960   2.373   5.861  12.521  0.7442 -0.7201 -0.7007
 6157TIP3   OH239961   5.445   2.199  12.177 -0.0529  0.4806 -0.3739
 6157TIP3    H139962   5.500   2.135  12.222  0.0015  0.2002 -0.8302
 6157TIP3    H239963   5.363   2.153  12.161 -0.3158  0.8008  0.0380
 6158TIP3   OH239964   0.673   2.645  16.219  0.0112 -0.6751  0.0933
 6158TIP3    H139965   0.751   2.656  16.165  0.3132 -0.0389  0.6458
 6158TIP3    H239966   0.603   2.686  16.169  0.5892  1.3504  0.8598
 6159TIP3   OH239967   4.583   5.727  14.621  0.1439  0.6374 -0.2162
 6159TIP3    H139968   4.504   5.696  14.666  0.4438 -1.6086 -1.1167
 6159TIP3    H239969   4.551   5.763  14.539 -0.0124  0.4162 -0.2532
 6160TIP3   OH239970   2.176   2.985  16.347  0.1231 -0.1267 -0.2524
 6160TIP3    H139971   2.129   2.933  16.283  0.1691 -0.1466 -0.2692
 6160TIP3    H239972   2.120   3.062  16.361 -0.7417 -0.9327  0.9692
 6161TIP3   OH239973   2.323   0.175  14.987  0.5757  0.1317  0.5183
 6161TIP3    H139974   2.233   0.187  15.018  1.5648  1.6543  3.1101
 6161TIP3    H239975   2.367   0.258  15.007  3.1363 -1.3576  1.5797
 6162TIP3   OH239976   4.714   0.408  13.217 -0.8560  0.0620  0.1762
 6162TIP3    H139977   4.702   0.356  13.297 -0.4851  2.1655  1.6814
 6162TIP3    H239978   4.669   0.491  13.236 -0.0719  0.9029 -1.4926
 6163TIP3   OH239979   2.218   2.675  16.893  0.1086 -0.1557 -1.0872
 6163TIP3    H139980   2.151   2.639  16.835  0.9030  0.3657 -2.3915
 6163TIP3    H239981   2.297   2.678  16.838  1.0458 -0.1727  0.2139
 6164TIP3   OH239982   0.896   3.306  10.917  0.6100 -0.3984 -0.4473
 6164TIP3    H139983   0.926   3.227  10.872  4.3379  1.1844 -1.1257
 6164TIP3    H239984   0.892   3.281  11.009 -0.1890 -1.8193 -0.8300
 6165TIP3   OH239985   0.500   0.065   6.079 -0.3412  0.3231 -0.0518
 6165TIP3    H139986   0.585   0.025   6.096 -0.8884 -0.4306  1.0607
 6165TIP3    H239987   0.438  -0.008   6.079 -1.2662  1.0496  1.3287
 6166TIP3   OH239988   3.515   3.847  14.536 -0.3240 -0.2644  0.0994
 6166TIP3    H139989   3.516   3.811  14.447 -1.3595  0.4670 -0.2180
 6166TIP3    H239990   3.511   3.942  14.524  1.9710  0.0186  0.9309
 6167TIP3   OH239991   1.462   2.771   5.581 -0.7907 -0.2010 -0.4704
 6167TIP3    H139992   1.526   2.722   5.634 -2.4166 -1.0917  0.7478
 6167TIP3    H239993   1.485   2.863   5.596 -1.4770 -0.3926  2.2565
 6168TIP3   OH239994   4.432   4.899   3.257  0.1225  0.0296  0.0943
 6168TIP3    H139995   4.488   4.952   3.200 -1.1235  0.5780 -0.6488
 6168TIP3    H239996   4.388   4.838   3.199 -2.2679  1.5407  0.1593
 6169TIP3   OH239997   3.005   3.309   1.287  0.4716 -0.3184 -0.2015
 6169TIP3    H139998   2.945   3.355   1.345 -0.7549 -1.8967 -0.1385
 6169TIP3    H239999   2.955   3.297   1.206  1.2199 -0.4309 -0.6552
 6170TIP3   OH240000   0.243   4.748  12.788  0.3332 -0.0495 -0.2668
 6170TIP3    H140001   0.224   4.841  12.805 -2.0805 -0.7765  1.4545
 6170TIP3    H240002   0.286   4.748  12.703  0.2866  2.6447 -0.3766
 6171TIP3   OH240003   5.392   3.376  12.324  0.3347 -0.0837 -0.2149
 6171TIP3    H140004   5.365   3.338  12.241 -0.1998 -1.3897  0.5216
 6171TIP3    H240005   5.380   3.471  12.313 -0.0874 -0.2760 -1.4850
 6172TIP3   OH240006   3.770   0.338   1.483 -0.3811  0.1270 -0.1120
 6172TIP3    H140007   3.787   0.407   1.418  0.8107 -1.1290 -1.2092
 6172TIP3    H240008   3.852   0.289   1.487 -1.4932 -1.8360 -0.1212
 6173TIP3   OH240009   6.018   1.757  14.034  0.3573  0.0963  0.0402
 6173TIP3    H140010   5.950   1.820  14.058 -0.2388  0.0202 -1.3595
 6173TIP3    H240011   6.012   1.689  14.101 -0.5757  0.3689  0.2496
 6174TIP3   OH240012   0.322   3.544   3.906 -0.6772 -0.5207 -0.2135
 6174TIP3    H140013   0.410   3.528   3.870 -0.0804  0.3283  0.7991
 6174TIP3    H240014   0.269   3.567   3.829 -0.2565 -1.9435 -0.9615
 6175TIP3   OH240015   2.355   6.768  16.860  0.3375  0.0502 -0.0560
 6175TIP3    H140016   2.280   6.813  16.821 -1.5538 -2.4392  0.4100
 6175TIP3    H240017   2.380   6.822  16.935 -0.8218  1.0584 -0.3710
 6176TIP3   OH240018   1.536   3.061   5.559 -0.0972 -0.4510  0.5803
 6176TIP3    H140019   1.539   3.155   5.541 -1.5587 -0.6619 -1.0171
 6176TIP3    H240020   1.450   3.033   5.528  0.3203 -2.3332  0.9850
 6177TIP3   OH240021   2.929   0.860   4.675 -0.2131  0.7262  0.1064
 6177TIP3    H140022   2.887   0.945   4.665  0.4714  1.1451  0.7904
 6177TIP3    H240023   2.872   0.812   4.736 -0.4150  0.8110 -0.0143
 6178TIP3   OH240024   0.256   1.535   4.186  0.7362 -0.1192 -0.0709
 6178TIP3    H140025   0.201   1.584   4.126  1.4402  0.6937 -0.0655
 6178TIP3    H240026   0.195   1.480   4.235  0.0786 -0.2248 -0.9888
 6179TIP3   OH240027   0.291   3.426   0.038  0.5436  0.4383  0.3073
 6179TIP3    H140028   0.291   3.504   0.094 -2.2064  0.9839 -0.2963
 6179TIP3    H240029   0.350   3.448  -0.034  0.7386  1.4836  0.7666
 6180TIP3   OH240030   5.817   6.176   5.317 -0.3429 -0.0614  0.1047
 6180TIP3    H140031   5.755   6.246   5.336 -0.7797 -0.1392 -0.9403
 6180TIP3    H240032   5.771   6.120   5.254  0.1676 -1.0351  0.5759
 6181TIP3   OH240033   0.738   4.328  15.920 -0.3269 -0.6278  0.0287
 6181TIP3    H140034   0.659   4.278  15.898 -0.8636 -0.3181  1.1510
 6181TIP3    H240035   0.706   4.416  15.939  0.2924 -0.4753  0.4081
 6182TIP3   OH240036   3.838   5.025   0.054 -0.1873  0.3549  0.1449
 6182TIP3    H140037   3.766   5.030   0.117  0.1321  1.6420  0.4475
 6182TIP3    H240038   3.915   5.008   0.107 -0.0984  0.1850 -0.0383
 6183TIP3   OH240039   5.909   0.023   1.205 -0.1095  1.2484  0.2623
 6183TIP3    H140040   5.929  -0.001   1.114 -0.2330  1.2636  0.2313
 6183TIP3    H240041   5.815   0.009   1.213 -0.0497  0.9664  0.4745
 6184TIP3   OH240042   6.488   2.544  11.164  0.2777 -0.8664 -0.1606
 6184TIP3    H140043   6.538   2.614  11.207 -1.1088  0.4993 -0.6549
 6184TIP3    H240044   6.492   2.567  11.070  1.1715 -2.3933 -0.5174
 6185TIP3   OH240045   4.500   4.131   3.888  0.1284  0.1413  0.4175
 6185TIP3    H140046   4.545   4.123   3.972 -1.8590  2.3516  1.8371
 6185TIP3    H240047   4.441   4.056   3.885 -0.3122  0.4325  1.3864
 6186TIP3   OH240048   1.831   5.378  13.382 -0.2333  0.0345  0.6411
 6186TIP3    H140049   1.854   5.370  13.474 -0.6849  1.3120  0.8904
 6186TIP3    H240050   1.851   5.293  13.344  1.6841  0.0431  1.5275
 6187TIP3   OH240051   5.676   1.030  11.058  0.1634  0.0287  0.3289
 6187TIP3    H140052   5.618   1.086  11.109  1.7810  1.7825  0.3386
 6187TIP3    H240053   5.731   0.987  11.123 -0.9073 -1.4766  0.3043
 6188TIP3   OH240054   2.830   3.117   4.889 -0.4652  0.0748 -0.2857
 6188TIP3    H140055   2.923   3.131   4.869 -0.1392 -1.2381  0.2347
 6188TIP3    H240056   2.786   3.133   4.806  0.1664  1.1287 -0.4420
 6189TIP3   OH240057   1.372   6.765  16.542 -0.2182 -0.6120  0.2178
 6189TIP3    H140058   1.312   6.797  16.474  1.4108 -0.5375 -1.2522
 6189TIP3    H240059   1.378   6.838  16.604  1.0874  0.8566 -1.5022
 6190TIP3   OH240060   2.395   2.370   5.391 -0.5270 -0.2017 -0.2554
 6190TIP3    H140061   2.380   2.296   5.448  0.4096 -0.9848 -0.9912
 6190TIP3    H240062   2.320   2.370   5.331 -0.4889 -0.6052 -0.3036
 6191TIP3   OH240063   0.809   4.611  13.905 -0.2499 -0.1356 -0.1037
 6191TIP3    H140064   0.903   4.613  13.925 -0.2884  0.1718  0.0389
 6191TIP3    H240065   0.771   4.682  13.956 -0.5180 -0.0706 -0.3889
 6192TIP3   OH240066   2.707   6.210   5.690 -0.4521 -0.7240  0.0426
 6192TIP3    H140067   2.691   6.230   5.598  0.8278 -2.3174 -0.5769
 6192TIP3    H240068   2.801   6.192   5.695 -0.6145 -1.3325  1.5340
 6193TIP3   OH240069   1.825   2.527  11.081 -0.2336  0.5541  0.5214
 6193TIP3    H140070   1.826   2.517  10.985  2.1585  1.7633  0.3360
 6193TIP3    H240071   1.916   2.511  11.107 -0.8834  0.1124  2.6260
 6194TIP3   OH240072   2.787   2.927  16.838 -0.1432 -0.3034  0.6352
 6194TIP3    H140073   2.737   2.850  16.809  2.0720 -0.8742 -2.1256
 6194TIP3    H240074   2.775   2.990  16.767 -0.2687  1.1536  1.9160
 6195TIP3   OH240075   2.231   0.636   0.542 -0.3172 -0.0682  1.0338
 6195TIP3    H140076   2.260   0.724   0.569  1.4168 -1.0076  2.4228
 6195TIP3    H240077   2.137   0.635   0.561 -0.2528  1.2963  1.5334
 6196TIP3   OH240078   1.583   5.343  12.602 -0.0430  0.4161 -0.0869
 6196TIP3    H140079   1.494   5.371  12.624  0.0568  0.0731  0.7737
 6196TIP3    H240080   1.640   5.396  12.658  0.1539 -1.4005  1.5422
 6197TIP3   OH240081   0.331   2.714   3.932 -0.5759  0.2447  0.2832
 6197TIP3    H140082   0.363   2.787   3.878  2.0225 -0.5362  0.5996
 6197TIP3    H240083   0.305   2.755   4.014  1.2605  0.8394  0.6228
 6198TIP3   OH240084   0.639   3.991  13.155 -0.6539  0.2908 -0.3302
 6198TIP3    H140085   0.614   3.920  13.097 -1.2368 -0.4622  0.8089
 6198TIP3    H240086   0.726   3.967  13.188 -0.5830  0.4123 -0.4294
 6199TIP3   OH240087   2.311   4.980   1.790 -0.0882 -0.4597 -0.3654
 6199TIP3    H140088   2.287   4.898   1.747 -0.9052 -0.7891  0.6741
 6199TIP3    H240089   2.273   4.973   1.878 -0.9641  1.4191 -0.5503
 6200TIP3   OH240090   0.006   2.897   1.035  0.1753  0.1878  0.7283
 6200TIP3    H140091  -0.055   2.936   0.972  0.7087  1.9861  1.2639
 6200TIP3    H240092  -0.048   2.836   1.086 -0.5096 -0.4461 -0.6827
 6201TIP3   OH240093   5.428   4.307   6.187 -0.7193 -0.6468  0.4177
 6201TIP3    H140094   5.464   4.387   6.227 -0.5086 -0.9125  0.7572
 6201TIP3    H240095   5.367   4.272   6.252  0.1080 -1.4318  0.7905
 6202TIP3   OH240096   6.240   6.584   0.666 -0.5393  0.5738  0.1600
 6202TIP3    H140097   6.330   6.573   0.694 -0.3804  0.6672 -0.3117
 6202TIP3    H240098   6.199   6.499   0.685  0.4620 -0.6479 -2.6248
 6203TIP3   OH240099   5.402   2.567   0.697  0.0561  1.0399 -0.3503
 6203TIP3    H140100   5.347   2.616   0.636  0.8622  1.0144 -1.1056
 6203TIP3    H240101   5.345   2.496   0.729 -0.5872  1.4742 -0.5200
 6204TIP3   OH240102   0.264   5.349   4.032  0.3557 -0.1579 -0.1829
 6204TIP3    H140103   0.317   5.281   4.075  1.1063  0.5012 -0.0607
 6204TIP3    H240104   0.198   5.372   4.098  0.0693 -0.7824 -0.2390
 6205TIP3   OH240105   4.465   4.158   2.165 -0.5277  0.0661  0.1190
 6205TIP3    H140106   4.380   4.118   2.183  0.5981 -1.2989  3.0349
 6205TIP3    H240107   4.449   4.252   2.173 -2.1915  0.0461 -1.8930
 6206TIP3   OH240108   3.069   1.581  15.778 -0.1410 -0.1342  0.2066
 6206TIP3    H140109   3.073   1.545  15.867 -0.1957  0.3360  0.4005
 6206TIP3    H240110   2.992   1.540  15.740 -0.2905 -0.1129  0.4791
 6207TIP3   OH240111   2.601   6.088   4.607  0.0406  0.1160 -0.4052
 6207TIP3    H140112   2.639   6.174   4.624  0.5676 -0.3504  0.8520
 6207TIP3    H240113   2.622   6.071   4.515 -0.9254  1.7361 -0.9553
 6208TIP3   OH240114   0.554   1.823   3.048  0.0441  0.1774  0.9146
 6208TIP3    H140115   0.502   1.903   3.050  1.2450  1.0659 -0.5028
 6208TIP3    H240116   0.611   1.829   3.125 -1.1034 -0.2246  1.8133
 6209TIP3   OH240117   0.670   0.877  13.642 -0.1406  0.4791 -0.2952
 6209TIP3    H140118   0.597   0.822  13.612 -0.8805  1.2782 -0.0111
 6209TIP3    H240119   0.699   0.836  13.724  1.5861 -1.4472 -1.7569
 6210TIP3   OH240120   6.361   3.323  14.208  0.4236 -0.0597 -0.0195
 6210TIP3    H140121   6.330   3.364  14.128  1.2994 -0.3608 -0.5182
 6210TIP3    H240122   6.308   3.243  14.216 -0.5710  0.6226  0.4134
 6211TIP3   OH240123   6.615   2.449   2.931 -0.2082 -0.5763  0.4719
 6211TIP3    H140124   6.696   2.475   2.975 -0.5083 -0.5793  1.0245
 6211TIP3    H240125   6.642   2.379   2.872  0.1519 -0.7467  0.8342
 6212TIP3   OH240126   5.105   0.159   5.559  0.2913  0.1256  0.5677
 6212TIP3    H140127   5.091   0.205   5.642 -3.8239  0.8174 -0.3120
 6212TIP3    H240128   5.137   0.072   5.585  2.1950  1.3334  2.6068
 6213TIP3   OH240129   1.844   4.335   1.114 -0.4321 -0.4953  0.0257
 6213TIP3    H140130   1.796   4.299   1.039 -1.5580  0.3412  0.3151
 6213TIP3    H240131   1.800   4.298   1.190 -0.6660  0.3364  0.3017
 6214TIP3   OH240132   3.651   4.404   1.484 -0.7851 -0.6912  0.0850
 6214TIP3    H140133   3.556   4.413   1.484 -0.7096  0.6257 -1.3096
 6214TIP3    H240134   3.683   4.486   1.520 -0.1705 -0.5911 -0.6597
 6215TIP3   OH240135   5.859   3.513   2.923 -0.1455  0.3303  0.5026
 6215TIP3    H140136   5.779   3.563   2.935 -0.5408 -0.2041  0.1330
 6215TIP3    H240137   5.830   3.426   2.897  0.5566  0.1709  0.2143
 6216TIP3   OH240138   6.809   1.016   3.191  0.3434  0.1712  0.3242
 6216TIP3    H140139   6.881   0.978   3.142  0.7227 -1.2677  1.8816
 6216TIP3    H240140   6.734   0.960   3.170 -0.7341  2.3119 -2.1786
 6217TIP3   OH240141   1.419   0.221  13.937  0.9070 -0.2993  0.1343
 6217TIP3    H140142   1.503   0.179  13.923  0.9097 -0.8185  1.5787
 6217TIP3    H240143   1.373   0.213  13.853  2.2847  0.0177 -0.6726
 6218TIP3   OH240144   5.784   4.976   6.097  0.3118 -0.0262 -0.0764
 6218TIP3    H140145   5.842   4.954   6.170  0.5290  0.0410 -0.2272
 6218TIP3    H240146   5.760   4.892   6.059 -0.1624 -0.0864  0.3474
 6219TIP3   OH240147   1.651   1.209  12.807 -0.1572  0.2219  0.2713
 6219TIP3    H140148   1.659   1.265  12.884 -0.2748  0.7599 -0.0950
 6219TIP3    H240149   1.730   1.229  12.756 -0.2307  0.0979  0.1116
 6220TIP3   OH240150   4.529   5.328  16.976  0.5710 -0.0801 -0.0883
 6220TIP3    H140151   4.467   5.257  16.990 -0.0151  0.3845 -0.3305
 6220TIP3    H240152   4.486   5.387  16.915  0.6338  0.9893  0.8599
 6221TIP3   OH240153   2.928   2.466  10.955  0.3387 -0.2282  0.1560
 6221TIP3    H140154   2.937   2.438  10.863 -0.8562 -0.7188  0.1732
 6221TIP3    H240155   2.855   2.527  10.954  1.0385  0.6416  0.6163
 6222TIP3   OH240156   4.848   3.351  13.739 -0.0642  0.3186  0.7384
 6222TIP3    H140157   4.811   3.295  13.672 -0.6149  1.6716 -0.1314
 6222TIP3    H240158   4.812   3.318  13.821  0.1353 -0.9718  0.3268
 6223TIP3   OH240159   5.455   5.954  11.919 -0.1523 -0.0552 -0.1526
 6223TIP3    H140160   5.381   5.895  11.934 -0.5456  0.5182  0.1705
 6223TIP3    H240161   5.525   5.919  11.975 -0.8957  0.7362  1.3314
 6224TIP3   OH240162   3.555   5.446   2.579  0.0111 -0.0410 -0.3146
 6224TIP3    H140163   3.502   5.439   2.659  0.8467  1.0475  0.3630
 6224TIP3    H240164   3.557   5.357   2.544 -1.8043 -0.2208 -0.0720
 6225TIP3   OH240165   4.465   6.053   1.604 -0.3084  0.0920  0.6704
 6225TIP3    H140166   4.483   6.146   1.611 -1.2786  0.2737  0.9857
 6225TIP3    H240167   4.434   6.041   1.514 -0.9706  0.2363  0.8695
 6226TIP3   OH240168   1.062   2.304   6.587  0.1797  0.2003  0.5812
 6226TIP3    H140169   1.138   2.354   6.556 -0.4472  0.1176 -1.1680
 6226TIP3    H240170   1.100   2.232   6.637  1.1552  1.4953  1.7963
 6227TIP3   OH240171   1.886   0.398   2.241  0.2659 -0.3935 -0.4983
 6227TIP3    H140172   1.950   0.468   2.232  0.2353 -0.3870 -0.6653
 6227TIP3    H240173   1.803   0.438   2.217  0.2179 -0.4357 -0.4042
 6228TIP3   OH240174   1.379   0.579   1.214 -0.3529 -0.2463  0.2814
 6228TIP3    H140175   1.319   0.522   1.166  1.2980 -1.5677 -0.3144
 6228TIP3    H240176   1.449   0.598   1.152  0.5686  0.0996  1.3934
 6229TIP3   OH240177   2.634   0.116  16.034  0.2132 -0.0353 -0.1802
 6229TIP3    H140178   2.650   0.136  16.127  0.3647  0.8170 -0.3808
 6229TIP3    H240179   2.662   0.195  15.988 -0.3864 -0.2421 -0.9078
 6230TIP3   OH240180   1.460   5.982  15.478  0.2144 -0.2873  0.0401
 6230TIP3    H140181   1.468   6.056  15.418  0.1239 -1.3729 -1.3633
 6230TIP3    H240182   1.365   5.972  15.491  0.2540  0.5767  1.2361
 6231TIP3   OH240183   4.644   2.437  12.901 -0.0414 -0.0857  0.1182
 6231TIP3    H140184   4.737   2.461  12.897  0.1031 -0.7443 -0.7777
 6231TIP3    H240185   4.608   2.493  12.969  1.2405 -0.5354  1.2196
 6232TIP3   OH240186   3.792   2.405   4.895 -0.0158 -0.1788  0.5372
 6232TIP3    H140187   3.879   2.435   4.870  0.4428 -2.9926 -1.8113
 6232TIP3    H240188   3.805   2.359   4.978  0.5874  0.1154  0.6064
 6233TIP3   OH240189   5.875   1.582   2.667  0.4513 -0.7939 -0.5969
 6233TIP3    H140190   5.919   1.586   2.582  0.7535  0.7839 -0.3968
 6233TIP3    H240191   5.922   1.646   2.721  0.6816 -2.2209  0.9700
 6234TIP3   OH240192   3.918   3.127   2.443  0.0228  0.9826  0.1659
 6234TIP3    H140193   3.853   3.103   2.377 -1.3262  0.8749  1.4707
 6234TIP3    H240194   3.952   3.043   2.474 -0.2393  0.9887  0.4676
 6235TIP3   OH240195   3.637   1.035   6.112  0.6227 -0.1708  0.3203
 6235TIP3    H140196   3.554   1.053   6.157  2.0862  0.9786  2.7894
 6235TIP3    H240197   3.663   0.948   6.145  1.4913  0.4911  1.4778
 6236TIP3   OH240198   2.075   2.203  11.961  0.5829 -0.0076  0.0967
 6236TIP3    H140199   2.063   2.225  12.053  1.2840 -0.6304  0.3503
 6236TIP3    H240200   2.166   2.227  11.943  0.9808 -1.4866  0.0496
 6237TIP3   OH240201   5.484   2.970   4.496 -0.7942 -0.2262 -0.3131
 6237TIP3    H140202   5.494   2.875   4.498 -0.0090 -0.1373  0.1937
 6237TIP3    H240203   5.448   2.988   4.409 -1.8418 -1.0570 -0.0849
 6238TIP3   OH240204   5.478   6.685  17.101 -0.1325 -0.5416 -0.2125
 6238TIP3    H140205   5.538   6.686  17.175 -1.3730 -0.3694  0.8120
 6238TIP3    H240206   5.391   6.686  17.140 -0.8175 -0.8060 -1.6664
 6239TIP3   OH240207   4.558   0.492   5.571 -0.4569 -0.2180 -0.2861
 6239TIP3    H140208   4.482   0.550   5.559  0.7983  2.5334  3.2917
 6239TIP3    H240209   4.539   0.445   5.652  0.1874 -2.2650 -1.2600
 6240TIP3   OH240210   4.320   3.295   0.035 -0.4526  0.0854  0.1639
 6240TIP3    H140211   4.237   3.326   0.071  0.1122  2.0275 -0.0501
 6240TIP3    H240212   4.383   3.307   0.106  0.1627  1.4080 -0.5658
 6241TIP3   OH240213   3.411   4.555  11.868  0.0049 -0.1001  0.7077
 6241TIP3    H140214   3.371   4.501  11.799  2.9077  0.6516 -1.8138
 6241TIP3    H240215   3.337   4.596  11.913 -2.0937 -1.5178 -1.2172
 6242TIP3   OH240216   5.529   6.117  11.455  0.5642  0.3376  0.2356
 6242TIP3    H140217   5.540   6.209  11.479  1.7234  0.8957 -2.1006
 6242TIP3    H240218   5.608   6.074  11.487 -0.6700 -0.2628  2.7301
 6243TIP3   OH240219   5.077   0.824  11.998  0.0369 -0.1928 -0.5403
 6243TIP3    H140220   4.994   0.843  12.042  0.4913  0.4519  0.0708
 6243TIP3    H240221   5.144   0.841  12.064  0.6164 -1.9683 -0.6047
 6244TIP3   OH240222   6.023   2.762   1.823  0.1453  0.2491  0.3870
 6244TIP3    H140223   6.007   2.748   1.917 -1.7993  0.8572  0.1890
 6244TIP3    H240224   5.963   2.833   1.799 -0.0480 -0.5130 -1.5154
 6245TIP3   OH240225   5.050   1.286  11.719 -0.1375 -0.9016  0.2281
 6245TIP3    H140226   5.020   1.195  11.722 -0.7109 -0.7092  0.2942
 6245TIP3    H240227   4.985   1.331  11.666 -0.0437 -0.4498  0.5011
 6246TIP3   OH240228   2.900   2.665   1.417  0.4319  0.1967 -0.0796
 6246TIP3    H140229   2.927   2.723   1.346  1.1015  2.1384  1.6775
 6246TIP3    H240230   2.805   2.660   1.409  0.5454 -0.2338 -1.5102
 6247TIP3   OH240231   2.899   5.350  13.911  0.5254 -0.0830  0.1690
 6247TIP3    H140232   2.905   5.435  13.956 -1.8776  0.6349 -0.6691
 6247TIP3    H240233   2.946   5.363  13.829  1.3398 -0.0268  0.6339
 6248TIP3   OH240234   2.250   2.376  16.246  0.1518  0.3941  0.2723
 6248TIP3    H140235   2.194   2.383  16.168 -1.3524 -1.2779  1.1170
 6248TIP3    H240236   2.189   2.382  16.320  1.4171  0.8884  1.3176
 6249TIP3   OH240237   2.644   6.655  14.652  0.2917 -0.0306  0.0682
 6249TIP3    H140238   2.628   6.636  14.560 -1.1558 -1.8080  0.6402
 6249TIP3    H240239   2.558   6.677  14.688  0.8511  0.7528  0.9883
 6250TIP3   OH240240   2.639   2.657  13.051 -0.1019 -0.1014  0.5073
 6250TIP3    H140241   2.622   2.715  13.125 -0.7570 -0.3708  0.5749
 6250TIP3    H240242   2.664   2.715  12.979 -1.1851  0.3156  0.4474
 6251TIP3   OH240243   2.400   2.140  13.059  0.0483 -0.2274 -0.6458
 6251TIP3    H140244   2.440   2.179  13.137 -0.2303 -1.0428 -0.0806
 6251TIP3    H240245   2.474   2.106  13.009  0.2623  0.6535 -0.9511
 6252TIP3   OH240246   1.245   3.738  14.219  0.4777  0.5437  0.0848
 6252TIP3    H140247   1.205   3.697  14.142  1.3348  0.2234 -0.2071
 6252TIP3    H240248   1.203   3.824  14.226 -0.3552  0.1613 -0.1144
 6253TIP3   OH240249   2.810   3.163   4.603  0.4806 -0.2833  0.2930
 6253TIP3    H140250   2.789   3.168   4.509  0.6336 -0.9627  0.2174
 6253TIP3    H240251   2.808   3.070   4.623 -0.9978 -0.0845  1.2992
 6254TIP3   OH240252   3.223   1.862   0.931  0.8585 -0.5050 -0.1490
 6254TIP3    H140253   3.179   1.786   0.968  0.3381 -0.3385 -0.4133
 6254TIP3    H240254   3.316   1.840   0.933  1.0074  0.0296  2.4701
 6255TIP3   OH240255   4.958   6.487  14.154 -0.5291 -0.7150 -0.1618
 6255TIP3    H140256   4.967   6.550  14.082  0.4068  3.7819  3.4579
 6255TIP3    H240257   4.863   6.480  14.168 -0.6426  0.1774 -0.4232
 6256TIP3   OH240258   1.570   5.427   0.441  0.4355 -0.1989 -0.1800
 6256TIP3    H140259   1.514   5.361   0.482  0.6838 -0.8153 -0.8196
 6256TIP3    H240260   1.614   5.381   0.369  1.9185  0.2279  0.4239
 6257TIP3   OH240261   1.228   0.596   2.782  0.3633 -0.4385 -0.0412
 6257TIP3    H140262   1.283   0.647   2.842  1.4381 -1.3374 -0.2311
 6257TIP3    H240263   1.182   0.534   2.838 -1.3199  1.0015  0.2525
 6258TIP3   OH240264   2.500   4.617   0.515  0.1230 -0.2088  0.1499
 6258TIP3    H140265   2.520   4.694   0.567  1.0363 -0.6845  0.5252
 6258TIP3    H240266   2.583   4.569   0.509  0.7951  1.0514 -3.9418
 6259TIP3   OH240267   3.440   2.085   2.867  0.7781  0.4080 -0.5693
 6259TIP3    H140268   3.405   2.065   2.954  0.0392 -1.7355 -1.3128
 6259TIP3    H240269   3.402   2.019   2.809  0.5929  2.2650 -2.7113
 6260TIP3   OH240270   3.878   2.254   5.113 -0.1976  0.3421  0.1808
 6260TIP3    H140271   3.821   2.182   5.086  1.0494 -0.3958 -0.6150
 6260TIP3    H240272   3.879   2.249   5.209 -0.0502 -0.7864  0.1384
 6261TIP3   OH240273   4.422   4.961   5.103 -0.4475 -0.2037 -0.4658
 6261TIP3    H140274   4.357   4.905   5.145  0.3999 -1.6449 -1.0304
 6261TIP3    H240275   4.372   5.012   5.039 -0.8487 -2.4093 -2.0172
 6262TIP3   OH240276   3.881   0.047  11.129  0.0498  0.2840  0.0444
 6262TIP3    H140277   3.927   0.129  11.108  0.1259  0.0244 -0.8536
 6262TIP3    H240278   3.881  -0.002  11.047 -0.5082 -0.3731  0.4244
 6263TIP3   OH240279   1.252   3.677  16.746 -0.1606 -0.0494 -0.4401
 6263TIP3    H140280   1.318   3.739  16.714 -0.3033  0.6095  0.4964
 6263TIP3    H240281   1.295   3.632  16.819 -1.0714  1.1409  0.8728
 6264TIP3   OH240282   1.639   3.366  12.724 -0.3251 -0.2000  0.0005
 6264TIP3    H140283   1.593   3.291  12.687  0.2899 -0.4539 -0.2537
 6264TIP3    H240284   1.678   3.411  12.649 -0.4240  0.1926  0.1816
 6265TIP3   OH240285   0.974   3.751  15.177  0.6465 -0.3022  0.0055
 6265TIP3    H140286   1.022   3.717  15.102 -0.9917 -0.1467 -1.1800
 6265TIP3    H240287   0.972   3.846  15.163  0.8318 -0.2136  0.5618
 6266TIP3   OH240288   1.712   2.550  14.736 -0.3921 -0.0670 -0.2735
 6266TIP3    H140289   1.636   2.497  14.760 -0.6237  0.8151  1.0763
 6266TIP3    H240290   1.774   2.538  14.808 -0.4866  1.4906  0.1188
 6267TIP3   OH240291   1.956   3.676   6.494  0.3917  0.4110 -0.0903
 6267TIP3    H140292   1.946   3.744   6.428  0.7388  0.2584 -0.3034
 6267TIP3    H240293   1.909   3.600   6.458  0.6020  0.3201 -0.1730
 6268TIP3   OH240294   5.086   5.703   4.531  0.2229 -0.1097 -0.0137
 6268TIP3    H140295   5.041   5.622   4.507 -1.0560  0.8292 -0.8994
 6268TIP3    H240296   5.045   5.730   4.613  1.2814 -0.7876  0.7832
 6269TIP3   OH240297   6.583   6.312  14.107 -0.2465  0.3892  0.3179
 6269TIP3    H140298   6.560   6.223  14.079 -0.5954  0.8159 -0.8261
 6269TIP3    H240299   6.664   6.302  14.156 -0.7609 -0.6665  0.9765
 6270TIP3   OH240300   6.747   5.412  12.172 -0.2232  0.4931 -0.1606
 6270TIP3    H140301   6.785   5.499  12.178  0.6771  0.0819  0.3423
 6270TIP3    H240302   6.781   5.376  12.090 -0.7957  0.7003 -0.4943
 6271TIP3   OH240303   1.077   4.924   1.209  0.2004  0.5710  0.1739
 6271TIP3    H140304   1.146   4.885   1.262 -0.1881 -1.2629 -0.6210
 6271TIP3    H240305   1.105   4.909   1.119 -1.7583 -1.2593 -0.1833
 6272TIP3   OH240306   1.650   2.571   4.203  0.1384  0.0200  0.0951
 6272TIP3    H140307   1.679   2.619   4.281  2.9353 -0.8112 -0.3210
 6272TIP3    H240308   1.657   2.479   4.228 -0.0317 -0.2351 -0.7699
 6273TIP3   OH240309   3.136   1.303   1.842 -0.4016 -0.3166  0.2109
 6273TIP3    H140310   3.047   1.303   1.878 -0.3435  2.4221  0.5752
 6273TIP3    H240311   3.180   1.373   1.888  2.2165 -2.0178  0.4972
 6274TIP3   OH240312   5.542   6.242   2.969  0.2952 -0.1288 -0.3363
 6274TIP3    H140313   5.585   6.210   2.890 -0.9305 -0.5005 -0.8804
 6274TIP3    H240314   5.575   6.332   2.979  1.0904 -0.3581 -0.7919
 6275TIP3   OH240315   1.775   5.375  10.825 -0.1463  0.0673 -0.3115
 6275TIP3    H140316   1.699   5.431  10.844 -0.9953 -0.8823 -0.7748
 6275TIP3    H240317   1.833   5.388  10.900 -1.4878 -0.3447  0.8767
 6276TIP3   OH240318   2.708   4.179   5.141 -0.6799 -0.2373 -0.0967
 6276TIP3    H140319   2.787   4.229   5.119 -1.3094  1.7327  1.7347
 6276TIP3    H240320   2.637   4.244   5.140 -1.5841 -1.0684  2.1888
 6277TIP3   OH240321   5.131   0.813   0.453 -0.5736 -0.2166 -0.2222
 6277TIP3    H140322   5.144   0.907   0.455  6.1686 -0.6315 -0.0897
 6277TIP3    H240323   5.166   0.782   0.537 -1.3175 -2.9018 -0.7817
 6278TIP3   OH240324   5.751   1.163  13.233  0.1713 -0.2685 -0.4331
 6278TIP3    H140325   5.814   1.136  13.166  0.5437 -0.5503  0.0197
 6278TIP3    H240326   5.775   1.111  13.310 -1.8536 -1.8884 -0.7959
 6279TIP3   OH240327   4.659   4.417  15.717  0.4013 -0.0008  0.4115
 6279TIP3    H140328   4.646   4.490  15.777 -0.7820  0.2392 -0.1139
 6279TIP3    H240329   4.719   4.451  15.651 -2.6286  1.7393 -1.7278
 6280TIP3   OH240330   1.601   1.825   0.093 -0.1279  0.5114  0.3118
 6280TIP3    H140331   1.661   1.817   0.019 -0.5900  1.7939 -0.2180
 6280TIP3    H240332   1.580   1.734   0.117  2.1260  0.0053  0.6216
 6281TIP3   OH240333   0.618   1.245  17.069  0.1063  1.2108  0.4616
 6281TIP3    H140334   0.578   1.162  17.045 -0.6832  1.7565 -0.1682
 6281TIP3    H240335   0.657   1.229  17.155 -0.3750  0.3055  0.5205
 6282TIP3   OH240336   5.608   2.628   4.374 -0.0735 -0.4922 -0.4041
 6282TIP3    H140337   5.701   2.650   4.386 -0.3884 -0.0805  1.6613
 6282TIP3    H240338   5.598   2.619   4.279  2.2608 -1.4101 -0.6315
 6283TIP3   OH240339   5.632   5.676   5.447 -0.1574 -0.1655 -0.0889
 6283TIP3    H140340   5.678   5.756   5.423  0.7623 -0.6789 -0.0893
 6283TIP3    H240341   5.541   5.702   5.455 -0.1101  0.5429 -1.6634
 6284TIP3   OH240342   0.933   1.952   6.078 -0.5618 -0.4131 -0.1367
 6284TIP3    H140343   0.848   1.996   6.076 -1.1126 -1.3236  1.5844
 6284TIP3    H240344   0.916   1.863   6.049 -0.6078 -1.1410  1.9341
 6285TIP3   OH240345   2.008   0.463  13.953 -0.2690  0.6991  0.1206
 6285TIP3    H140346   2.013   0.540  14.010  0.4548  0.5870  0.2140
 6285TIP3    H240347   1.981   0.498  13.868  0.0025  1.0510  0.1773
 6286TIP3   OH240348   0.051   0.113  14.543  0.5636  0.3776 -0.2281
 6286TIP3    H140349   0.015   0.030  14.513 -0.4645  0.4097  0.8726
 6286TIP3    H240350   0.109   0.090  14.616 -0.3029  0.6777  0.5685
 6287TIP3   OH240351   4.741   6.773   1.610 -0.1698 -0.1315  0.3054
 6287TIP3    H140352   4.660   6.819   1.589 -1.0394 -1.1856  1.1878
 6287TIP3    H240353   4.793   6.778   1.531 -1.1645  0.4494 -0.3336
 6288TIP3   OH240354   6.234   5.415   4.740 -0.1538  0.2637  0.2534
 6288TIP3    H140355   6.301   5.430   4.807 -0.2274  1.7189  0.0430
 6288TIP3    H240356   6.163   5.370   4.787 -1.3318  3.4851  1.9364
 6289TIP3   OH240357   1.858   4.258   5.145 -0.0798  0.5511  0.2454
 6289TIP3    H140358   1.947   4.225   5.157  0.2415  1.4058  0.2630
 6289TIP3    H240359   1.806   4.180   5.125  0.6416  0.0249  0.3881
 6290TIP3   OH240360   5.828   1.502  11.664 -0.3104 -0.0350 -0.0784
 6290TIP3    H140361   5.753   1.471  11.716 -0.7976 -2.6876 -2.1777
 6290TIP3    H240362   5.822   1.597  11.670 -3.4301 -0.1398  0.4466
 6291TIP3   OH240363   0.691   4.148  16.137 -0.4520  0.1300  0.4774
 6291TIP3    H140364   0.715   4.099  16.059  0.0698  0.5206  0.3941
 6291TIP3    H240365   0.773   4.183  16.170 -0.8804  1.3648  0.2629
 6292TIP3   OH240366   6.213   3.479   0.053  0.0187  0.5867  0.0178
 6292TIP3    H140367   6.290   3.535   0.063 -0.7198  1.8209 -0.7909
 6292TIP3    H240368   6.228   3.432  -0.029  0.7919 -0.6840  0.8675
 6293TIP3   OH240369   6.233   4.651  10.596 -1.1038  0.4449 -0.0599
 6293TIP3    H140370   6.245   4.561  10.566  1.8549  0.2249  1.4193
 6293TIP3    H240371   6.179   4.643  10.675  2.4424 -0.7281  2.5232
 6294TIP3   OH240372   0.642   4.176  15.055 -0.5621  0.2335  0.0495
 6294TIP3    H140373   0.670   4.229  14.980 -0.1327 -1.7285 -1.2377
 6294TIP3    H240374   0.587   4.235  15.106 -1.7691  1.3428 -2.3699
 6295TIP3   OH240375   2.792   3.486   6.223 -0.0141  0.1287  0.2308
 6295TIP3    H140376   2.732   3.421   6.260  0.5258 -1.2474 -1.1373
 6295TIP3    H240377   2.879   3.448   6.236  0.4167  1.1449  0.4199
 6296TIP3   OH240378   2.357   4.855  12.083 -0.3171  0.2920  0.7128
 6296TIP3    H140379   2.311   4.908  12.019 -0.5646  2.0476  2.2643
 6296TIP3    H240380   2.316   4.876  12.167 -0.8264 -2.8394  1.3687
 6297TIP3   OH240381   4.010   4.512   1.394 -0.0944  0.4612  0.5182
 6297TIP3    H140382   4.092   4.488   1.351 -0.6262 -0.6729  0.1009
 6297TIP3    H240383   3.985   4.435   1.444 -1.5844  0.2955 -0.4193
 6298TIP3   OH240384   3.626   2.773   1.476 -0.2464 -0.4167 -0.2930
 6298TIP3    H140385   3.655   2.831   1.546 -0.0821 -0.5425 -0.2583
 6298TIP3    H240386   3.533   2.758   1.494 -0.7973  1.3791 -1.3628
 6299TIP3   OH240387   5.110   3.536   1.808 -0.0782 -0.0791 -0.4068
 6299TIP3    H140388   5.051   3.487   1.865 -1.7970  1.6926 -0.5932
 6299TIP3    H240389   5.103   3.493   1.723 -0.2043 -0.5642 -0.1561
 6300TIP3   OH240390   5.755   4.713  13.019  0.4315  0.0937  0.3134
 6300TIP3    H140391   5.693   4.777  13.055  0.4090 -0.8306  1.9962
 6300TIP3    H240392   5.836   4.762  13.009  0.2787  0.5314  1.1004
 6301TIP3   OH240393   3.670   5.607   4.405  0.1577  0.2104  0.0580
 6301TIP3    H140394   3.591   5.617   4.460  0.5159  0.0373  0.6146
 6301TIP3    H240395   3.734   5.567   4.464  0.0836 -1.4284 -0.9287
 6302TIP3   OH240396   2.084   6.624  13.241  0.3561 -0.0475  0.2438
 6302TIP3    H140397   1.995   6.658  13.225  0.5919  0.1493 -0.7062
 6302TIP3    H240398   2.120   6.683  13.307  0.0836  0.4004 -0.0024
 6303TIP3   OH240399   6.040   6.699  16.565  0.1092  0.3249  0.6388
 6303TIP3    H140400   6.116   6.642  16.555  0.5838  0.7632  1.6477
 6303TIP3    H240401   6.006   6.680  16.652 -0.0259  1.2025  0.7944
 6304TIP3   OH240402   2.193   5.108  13.052  0.6189 -0.1476  0.1117
 6304TIP3    H140403   2.238   5.026  13.032 -0.7151 -0.7932 -0.3462
 6304TIP3    H240404   2.233   5.172  12.993  1.5291 -0.5018  0.3325
 6305TIP3   OH240405   5.087   4.603  11.150 -0.5516  0.3393 -0.2551
 6305TIP3    H140406   4.992   4.617  11.145 -0.7686 -0.1243  1.7404
 6305TIP3    H240407   5.104   4.588  11.243  1.3859 -0.3256 -0.6760
 6306TIP3   OH240408   0.541   0.770   6.331  0.0815  0.3993  0.3928
 6306TIP3    H140409   0.599   0.846   6.330  0.2459  0.2718 -0.0969
 6306TIP3    H240410   0.590   0.702   6.286  0.5950 -0.5167  2.2747
 6307TIP3   OH240411   5.560   4.402  11.786  0.0088 -0.0366  0.1496
 6307TIP3    H140412   5.540   4.469  11.721  0.1690 -0.2439 -0.1108
 6307TIP3    H240413   5.588   4.326  11.736  3.9697  0.9798  0.5300
 6308TIP3   OH240414   0.913   6.685  10.794  0.0237  0.4976  0.6523
 6308TIP3    H140415   0.873   6.616  10.741 -0.1250  0.9514  0.1569
 6308TIP3    H240416   1.001   6.652  10.813 -0.0450  0.1700  0.4190
 6309TIP3   OH240417   5.611   6.147  14.559 -0.2638 -0.1002 -0.4055
 6309TIP3    H140418   5.574   6.233  14.579 -0.1238 -0.1940  0.3114
 6309TIP3    H240419   5.537   6.095  14.528 -0.5825 -0.0560  0.2615
 6310TIP3   OH240420   0.830   3.983   0.477 -0.0960  0.2451 -0.1113
 6310TIP3    H140421   0.877   3.999   0.559  1.2517 -2.2519 -0.2832
 6310TIP3    H240422   0.804   4.070   0.446  3.2089  1.7073  0.7626
 6311TIP3   OH240423   3.814   5.221  10.777  0.2814  0.3230  0.1384
 6311TIP3    H140424   3.738   5.273  10.803  1.6125  2.2301  0.3701
 6311TIP3    H240425   3.841   5.259  10.693  1.8138  0.6248  0.7455
 6312TIP3   OH240426   3.631   2.055  13.402  0.1609  0.0055  0.0861
 6312TIP3    H140427   3.560   2.002  13.365 -0.4068  1.9437 -1.7809
 6312TIP3    H240428   3.708   1.998  13.396 -0.9125 -1.6317  0.8753
 6313TIP3   OH240429   3.095   1.200   4.743  0.9046 -0.1915 -0.4658
 6313TIP3    H140430   3.134   1.192   4.656 -0.9319 -1.1382 -1.2335
 6313TIP3    H240431   3.158   1.157   4.802  0.7354 -2.3133 -1.7586
 6314TIP3   OH240432   0.038   6.464  15.341 -0.5219 -0.5225 -0.2980
 6314TIP3    H140433  -0.022   6.539  15.342 -0.0855 -0.1675 -0.3492
 6314TIP3    H240434   0.052   6.446  15.248  1.9643  1.4665 -0.4299
 6315TIP3   OH240435   1.146   4.424   1.707  0.4536 -0.8058  0.0319
 6315TIP3    H140436   1.188   4.382   1.633 -1.0188 -1.0066 -0.7312
 6315TIP3    H240437   1.054   4.398   1.701  0.1606 -0.2529  1.5259
 6316TIP3   OH240438   2.918   4.641   2.525  0.7823 -0.0486 -0.1556
 6316TIP3    H140439   2.976   4.660   2.452  0.8294 -1.3401 -0.4711
 6316TIP3    H240440   2.843   4.597   2.486  0.7742 -0.6951  0.5537
 6317TIP3   OH240441   0.709   1.670  16.337 -0.3762 -0.1293 -0.4294
 6317TIP3    H140442   0.618   1.693  16.322 -0.4784 -0.6838 -0.6795
 6317TIP3    H240443   0.752   1.687  16.253 -0.5753 -1.4195 -0.8052
 6318TIP3   OH240444   2.930   3.590  16.723  0.0517  0.0771  0.4914
 6318TIP3    H140445   3.023   3.592  16.747 -0.4651  0.1903  2.7651
 6318TIP3    H240446   2.917   3.669  16.671  1.3375 -0.2597 -0.3823
 6319TIP3   OH240447   4.816   0.431   5.534  0.5514  0.2857 -0.0087
 6319TIP3    H140448   4.816   0.399   5.624 -0.6453  0.2212 -0.0159
 6319TIP3    H240449   4.723   0.436   5.510  0.8145  1.2782 -0.8914
 6320TIP3   OH240450   3.999   3.598   2.236  0.1269 -0.2903  0.5743
 6320TIP3    H140451   4.054   3.555   2.170  1.3923  0.0816  1.3571
 6320TIP3    H240452   3.979   3.529   2.299 -0.1569 -0.3807  0.3873
 6321TIP3   OH240453   0.540   2.574  12.152 -0.5556 -0.2497  0.1223
 6321TIP3    H140454   0.524   2.514  12.078 -1.0457 -1.0881  0.8896
 6321TIP3    H240455   0.590   2.522  12.214 -1.0076  0.1380  0.8170
 6322TIP3   OH240456   2.039   6.721   3.740 -0.1116 -0.5606 -1.0359
 6322TIP3    H140457   2.002   6.809   3.746 -0.5941 -0.7575 -1.0812
 6322TIP3    H240458   2.104   6.718   3.810  1.0243  0.3492 -2.0291
 6323TIP3   OH240459   3.579   0.811   5.061 -0.0423  0.4573 -0.0706
 6323TIP3    H140460   3.604   0.900   5.037  1.2639  0.3795  0.9028
 6323TIP3    H240461   3.486   0.817   5.082 -0.2373  1.3456 -1.1391
 6324TIP3   OH240462   4.262   0.977  11.512 -0.1638 -0.0265  0.4108
 6324TIP3    H140463   4.191   0.938  11.563 -0.8932 -1.5560 -1.6365
 6324TIP3    H240464   4.218   1.018  11.437  0.9773  0.7902  0.1617
 6325TIP3   OH240465   1.295   0.803   0.177  0.1663  0.3843  0.5670
 6325TIP3    H140466   1.209   0.818   0.138  0.7686  0.1756 -0.9359
 6325TIP3    H240467   1.352   0.785   0.102  1.1817 -1.1117  1.6381
 6326TIP3   OH240468   4.142   0.693  14.591 -0.0575 -0.1774 -0.0131
 6326TIP3    H140469   4.169   0.783  14.606 -0.7636 -0.1744  1.3697
 6326TIP3    H240470   4.162   0.677  14.499  3.1494  0.3038  0.4885
 6327TIP3   OH240471   5.425   3.431   3.410  0.1514  0.3672  0.1438
 6327TIP3    H140472   5.413   3.480   3.491  1.0856 -0.0572  0.5519
 6327TIP3    H240473   5.419   3.497   3.341 -2.5918  0.4673  0.3813
 6328TIP3   OH240474   2.128   4.387   2.953  0.1906  0.0420  0.2378
 6328TIP3    H140475   2.204   4.331   2.969 -0.6294 -0.6284  2.0091
 6328TIP3    H240476   2.077   4.339   2.888  0.7864  0.0382 -0.2446
 6329TIP3   OH240477   3.103   5.715   5.235 -0.0673  0.1826  0.7627
 6329TIP3    H140478   3.018   5.753   5.211  0.2639  0.6344  0.2867
 6329TIP3    H240479   3.099   5.708   5.330 -0.3677  0.8595  0.8064
 6330TIP3   OH240480   3.996   6.435   2.425 -0.2796  0.5944 -0.0378
 6330TIP3    H140481   4.021   6.408   2.513 -1.9399 -0.6217  0.0892
 6330TIP3    H240482   3.934   6.368   2.395  1.4814  0.0058 -2.7902
 6331TIP3   OH240483   1.463   0.319  11.607 -0.2795  0.1819 -0.6463
 6331TIP3    H140484   1.535   0.330  11.545  0.8348 -0.7464  0.4437
 6331TIP3    H240485   1.387   0.356  11.561  0.8388  1.0892 -1.8635
 6332TIP3   OH240486   3.775   1.148   0.937 -0.1828  0.6401 -0.1049
 6332TIP3    H140487   3.844   1.082   0.930 -0.4193  0.2983  0.6454
 6332TIP3    H240488   3.821   1.230   0.954  0.1071  0.6518 -0.9411
 6333TIP3   OH240489   2.023   3.662  16.008  0.7727 -0.3702 -0.0403
 6333TIP3    H140490   2.037   3.721  15.935  0.2179  1.9051  1.5922
 6333TIP3    H240491   1.964   3.595  15.974  0.2388  0.8231 -1.5683
 6334TIP3   OH240492   1.527   5.553   2.461  0.0088  0.2839  0.4120
 6334TIP3    H140493   1.494   5.473   2.500  0.8751 -1.0481 -1.4255
 6334TIP3    H240494   1.621   5.553   2.481  0.0865  0.6190  0.0802
 6335TIP3   OH240495   1.000   3.984   5.726  0.2797 -0.5827 -0.4315
 6335TIP3    H140496   1.093   3.996   5.705  0.4763 -1.8258 -0.3835
 6335TIP3    H240497   0.996   3.897   5.766 -1.0502 -0.9562 -1.3172
 6336TIP3   OH240498   3.893   6.679  13.179  0.3230 -0.3583  0.1643
 6336TIP3    H140499   3.913   6.741  13.109  0.6496  0.9472  1.3741
 6336TIP3    H240500   3.798   6.683  13.188  0.4290  0.8206  0.9631
 6337TIP3   OH240501   4.272   0.479  11.431 -0.4895  0.5278  0.0159
 6337TIP3    H140502   4.310   0.547  11.375 -1.0344 -0.4897 -1.6543
 6337TIP3    H240503   4.211   0.525  11.488  0.9622  1.7583  0.6597
 6338TIP3   OH240504   2.238   4.808  11.668 -0.3624  0.3069  0.2856
 6338TIP3    H140505   2.190   4.730  11.642 -0.1138  0.2974 -0.1562
 6338TIP3    H240506   2.180   4.853  11.729 -0.5226 -0.2017  0.5182
 6339TIP3   OH240507   4.060   1.837   4.833 -0.0774  0.2250  0.5350
 6339TIP3    H140508   4.044   1.750   4.796 -0.5154  0.5178  0.0130
 6339TIP3    H240509   4.151   1.834   4.863  0.1375 -0.1778 -0.1402
 6340TIP3   OH240510   0.540   0.353  15.015  0.2401  0.0018  0.5249
 6340TIP3    H140511   0.454   0.330  15.050  1.0584 -1.4827  1.7195
 6340TIP3    H240512   0.544   0.448  15.024 -1.1652  0.0727  0.6983
 6341TIP3   OH240513   3.470   0.152   5.873 -0.0226 -0.3324  0.0963
 6341TIP3    H140514   3.419   0.230   5.852 -0.0360 -0.5856 -0.8684
 6341TIP3    H240515   3.508   0.170   5.959 -0.9648  0.2512  0.4066
 6342TIP3   OH240516   3.766   6.297   4.526 -0.1532  0.0295  0.2968
 6342TIP3    H140517   3.779   6.385   4.562 -3.7580  0.3983  1.1818
 6342TIP3    H240518   3.792   6.304   4.435 -0.3311  2.0572  0.3444
 6343TIP3   OH240519   2.677   1.077  14.213 -0.2232  0.0177 -0.0176
 6343TIP3    H140520   2.642   0.989  14.199 -0.9593  0.1857  0.7143
 6343TIP3    H240521   2.605   1.135  14.187  0.2884  0.4127 -0.5748
 6344TIP3   OH240522   3.805   0.573  12.600  0.0280  0.0601 -0.1756
 6344TIP3    H140523   3.838   0.660  12.577 -0.7824  0.2460 -0.6770
 6344TIP3    H240524   3.739   0.590  12.668  1.1658 -0.3344  1.0627
 6345TIP3   OH240525   5.309   6.358  11.191  0.2389 -0.2793 -0.0608
 6345TIP3    H140526   5.302   6.401  11.106 -0.3537 -2.3128 -1.0872
 6345TIP3    H240527   5.381   6.296  11.181  1.6666  0.9570  1.6780
 6346TIP3   OH240528   5.117   4.952  15.007 -0.0260  0.2643 -0.4930
 6346TIP3    H140529   5.033   4.957  15.052  0.4790  0.8732  0.4117
 6346TIP3    H240530   5.096   4.968  14.915 -0.7252  1.8594 -0.0758
 6347TIP3   OH240531   4.449   5.417  15.185 -0.3391 -0.7186 -0.1030
 6347TIP3    H140532   4.363   5.379  15.199 -0.3499 -1.2066 -1.3576
 6347TIP3    H240533   4.480   5.440  15.273 -2.1534  0.4260  0.2823
 6348TIP3   OH240534   5.927   1.114  11.531  0.0737 -0.1093 -0.1647
 6348TIP3    H140535   5.837   1.146  11.536  0.3645  1.3949 -2.6849
 6348TIP3    H240536   5.919   1.021  11.508 -0.7829 -0.2532  0.6579
 6349TIP3   OH240537   6.826   4.190   2.627 -0.1259 -0.1290 -0.5244
 6349TIP3    H140538   6.824   4.125   2.696  1.1597  0.2938 -0.0690
 6349TIP3    H240539   6.795   4.271   2.669  0.6547  0.1277 -0.4302
 6350TIP3   OH240540   3.631   1.725  15.658 -0.1013 -1.0122 -0.6699
 6350TIP3    H140541   3.651   1.726  15.751 -0.7896 -1.3762 -0.5102
 6350TIP3    H240542   3.622   1.632  15.637  0.7358 -0.9712 -1.2567
 6351TIP3   OH240543   6.533   4.748   0.955  0.2650 -0.5388 -0.0583
 6351TIP3    H140544   6.497   4.745   1.044 -1.8925 -2.6600 -0.9006
 6351TIP3    H240545   6.595   4.675   0.952 -1.1555 -1.7539 -0.8230
 6352TIP3   OH240546   2.121   2.719  12.710 -0.3013  0.1026 -0.2101
 6352TIP3    H140547   2.062   2.649  12.683  0.3895 -0.0348 -1.4558
 6352TIP3    H240548   2.070   2.800  12.697 -1.3963 -0.1401  2.0201
 6353TIP3   OH240549   3.244   0.958  11.986 -0.4607 -0.3760 -0.1220
 6353TIP3    H140550   3.289   1.042  11.989 -1.1104 -0.0115 -0.3600
 6353TIP3    H240551   3.312   0.894  12.006  0.3811  0.0763 -1.4254
 6354TIP3   OH240552   4.404   1.118   2.897  0.4473  0.0803 -0.3200
 6354TIP3    H140553   4.477   1.073   2.855  1.9591  1.6457  0.5154
 6354TIP3    H240554   4.418   1.106   2.991 -1.4006 -1.1008 -0.1393
 6355TIP3   OH240555   1.319   0.697  14.222 -0.0209  0.0255 -0.5088
 6355TIP3    H140556   1.411   0.723  14.222 -0.2343  0.8109 -1.0492
 6355TIP3    H240557   1.279   0.748  14.292  0.3209 -1.7964  1.1250
 6356TIP3   OH240558   1.354   5.651   5.980 -0.6851 -0.0264 -0.2508
 6356TIP3    H140559   1.363   5.686   5.891 -0.0171  0.4806  0.0096
 6356TIP3    H240560   1.440   5.666   6.021 -0.7071 -1.0586  0.1969
 6357TIP3   OH240561   5.399   5.538  11.118 -0.2405  0.0120 -0.1450
 6357TIP3    H140562   5.393   5.591  11.197 -0.2875 -1.1642  0.6495
 6357TIP3    H240563   5.493   5.533  11.100  0.1035 -2.6322  1.8882
 6358TIP3   OH240564   5.203   2.292   0.235 -0.6446  0.2856 -0.2716
 6358TIP3    H140565   5.198   2.275   0.141 -1.9376  1.4518 -0.4459
 6358TIP3    H240566   5.211   2.387   0.241 -2.4456  0.4164  0.8189
 6359TIP3   OH240567   5.098   0.871  16.319 -0.1634 -0.2985 -0.1369
 6359TIP3    H140568   5.156   0.939  16.285 -0.8087  0.1419 -0.3783
 6359TIP3    H240569   5.157   0.803  16.350  0.4877  0.2150 -0.2163
 6360TIP3   OH240570   5.673   0.638  14.630 -0.2722  0.3385 -0.3706
 6360TIP3    H140571   5.646   0.662  14.719 -0.8939  0.2440 -0.5245
 6360TIP3    H240572   5.590   0.632  14.582  0.0559  0.2897 -0.9281
 6361TIP3   OH240573   2.361   4.853   5.537  0.1597  0.5126  0.0893
 6361TIP3    H140574   2.399   4.809   5.612 -1.8071  0.2075  0.9635
 6361TIP3    H240575   2.275   4.813   5.526 -0.1820  1.5589 -1.4202
 6362TIP3   OH240576   0.650   3.437   5.359  0.6921 -0.7797 -0.2272
 6362TIP3    H140577   0.574   3.455   5.413  0.9940 -0.8494  0.2273
 6362TIP3    H240578   0.621   3.370   5.297  0.2846 -0.5408 -0.2938
 6363TIP3   OH240579   3.682   0.985   2.110 -0.0022 -0.8501 -0.2170
 6363TIP3    H140580   3.705   0.905   2.063 -0.2842 -0.7236 -0.5775
 6363TIP3    H240581   3.652   0.955   2.196  5.1652 -0.9091  1.9442
 6364TIP3   OH240582   5.981   6.802   2.006 -0.3356  0.1904 -0.0815
 6364TIP3    H140583   6.023   6.755   2.078 -1.4510  0.9820  1.1307
 6364TIP3    H240584   6.033   6.881   1.996  1.0198 -0.8363 -1.5363
 6365TIP3   OH240585   5.591   0.795   6.346 -0.4522  0.1571  0.2067
 6365TIP3    H140586   5.537   0.717   6.360 -1.3436  0.4122 -1.5592
 6365TIP3    H240587   5.592   0.838   6.432 -0.2751 -1.5595  1.1148
 6366TIP3   OH240588   4.293   6.170  12.933  0.1536  0.4136  0.0431
 6366TIP3    H140589   4.342   6.092  12.908 -0.0925  0.8988 -2.1141
 6366TIP3    H240590   4.206   6.158  12.894 -0.2911  1.2110  0.7430
 6367TIP3   OH240591   5.325   5.339   3.256 -0.1533 -0.2141  0.1787
 6367TIP3    H140592   5.260   5.395   3.299  0.4548 -0.4573  1.4654
 6367TIP3    H240593   5.281   5.255   3.245 -0.8033  0.2607 -1.0459
 6368TIP3   OH240594   3.339   3.234   0.759  0.1022  0.1647 -0.3595
 6368TIP3    H140595   3.404   3.302   0.740  2.4166 -1.4954  1.1339
 6368TIP3    H240596   3.390   3.156   0.778 -2.3249 -1.1176  1.4591
 6369TIP3   OH240597   2.888   5.739   3.321  0.1923 -0.1036  0.1056
 6369TIP3    H140598   2.825   5.674   3.290 -1.1011  1.6947 -1.1911
 6369TIP3    H240599   2.973   5.703   3.298 -0.5403 -0.8979 -1.4900
 6370TIP3   OH240600   3.962   2.674   3.585  0.7383  0.5251  0.1227
 6370TIP3    H140601   3.972   2.626   3.667  2.6142  0.5988 -0.0350
 6370TIP3    H240602   3.914   2.614   3.527 -0.1739  0.2934  1.0905
 6371TIP3   OH240603   3.089   2.283  16.676  0.3428 -0.5186 -0.0016
 6371TIP3    H140604   3.081   2.190  16.652 -0.7705 -0.3202 -0.5054
 6371TIP3    H240605   3.052   2.330  16.601 -2.4716  0.1711  1.6706
 6372TIP3   OH240606   1.790   6.522  11.459 -0.0698 -0.2544  0.4148
 6372TIP3    H140607   1.846   6.554  11.388 -0.1178 -0.8665  0.0912
 6372TIP3    H240608   1.846   6.524  11.537  0.1880 -0.2084  0.2284
 6373TIP3   OH240609   1.909   6.816  13.436  0.0188  0.0726  0.0926
 6373TIP3    H140610   1.866   6.825  13.521 -0.7604 -0.1805 -0.2688
 6373TIP3    H240611   1.857   6.750  13.389 -0.0814  0.8365 -0.9023
 6374TIP3   OH240612   4.600   5.462   0.289 -0.3855 -0.0135 -0.1367
 6374TIP3    H140613   4.672   5.480   0.229 -0.2978  0.5829  0.1347
 6374TIP3    H240614   4.526   5.514   0.255 -0.4248  0.0804  0.0876
 6375TIP3   OH240615   2.916   1.085   1.810 -0.5407 -0.0075 -0.1602
 6375TIP3    H140616   2.949   1.157   1.863 -1.9541  0.5016  0.0693
 6375TIP3    H240617   2.936   1.007   1.861 -1.8854  0.4748  1.1641
 6376TIP3   OH240618   5.320   4.295  16.685  0.2061  0.0101  0.8567
 6376TIP3    H140619   5.264   4.226  16.650 -0.8530  0.9049  0.7283
 6376TIP3    H240620   5.272   4.376  16.667  1.4233  0.7847  0.9899
 6377TIP3   OH240621   5.748   3.983  13.832 -0.0901 -0.1166  0.1080
 6377TIP3    H140622   5.724   4.048  13.766 -3.2609 -1.3568 -0.1420
 6377TIP3    H240623   5.734   4.028  13.916 -2.6114 -0.4412 -0.0538
 6378TIP3   OH240624   6.192   4.041   3.120  0.5204  0.2130 -0.2778
 6378TIP3    H140625   6.212   3.954   3.086  1.4260  0.3058 -0.0136
 6378TIP3    H240626   6.140   4.025   3.199  2.3360 -0.1944  0.8964
 6379TIP3   OH240627   1.092   0.220   4.794 -0.2193 -0.3844 -0.2315
 6379TIP3    H140628   1.174   0.171   4.787  0.6665  0.9784  0.3950
 6379TIP3    H240629   1.032   0.173   4.736  0.1472 -3.0518  1.3946
 6380TIP3   OH240630   1.371   5.703   3.548  0.0373  0.1088  0.6031
 6380TIP3    H140631   1.284   5.739   3.563 -1.6371 -2.9643 -0.7063
 6380TIP3    H240632   1.377   5.629   3.609  0.4337 -1.5065 -1.2878
 6381TIP3   OH240633   2.907   0.798  12.441  0.7728  0.0143 -0.0463
 6381TIP3    H140634   2.918   0.704  12.427 -0.6452 -0.1649 -0.1300
 6381TIP3    H240635   2.832   0.804  12.501 -0.0911  1.1108 -1.1831
 6382TIP3   OH240636   6.806   0.590  12.863  0.3187  0.5384  0.1163
 6382TIP3    H140637   6.817   0.646  12.939 -2.1996 -0.1965  1.1103
 6382TIP3    H240638   6.717   0.607  12.832  0.8805 -0.0067 -2.0067
 6383TIP3   OH240639   3.295   5.585   4.534  0.1735  0.5530 -0.3966
 6383TIP3    H140640   3.326   5.517   4.474 -2.4356  1.2232 -2.7342
 6383TIP3    H240641   3.268   5.657   4.477  0.9263  2.7704  1.8750
 6384TIP3   OH240642   5.251   3.213   2.286  0.4179 -0.1904  0.0019
 6384TIP3    H140643   5.306   3.135   2.286  0.7559 -0.0127 -2.3746
 6384TIP3    H240644   5.236   3.232   2.379  3.4934 -0.8346  0.7253
 6385TIP3   OH240645   3.072   0.815  16.195 -0.4674 -0.3736 -0.5095
 6385TIP3    H140646   3.095   0.907  16.185 -2.3241  0.0754 -0.9897
 6385TIP3    H240647   3.045   0.807  16.286 -0.6409 -0.3531 -0.5581
 6386TIP3   OH240648   2.971   1.277  16.719  0.1918 -0.0406 -0.4849
 6386TIP3    H140649   3.027   1.316  16.787  0.5962 -2.7462  0.8719
 6386TIP3    H240650   2.882   1.304  16.743  0.6376  2.3262 -1.2755
 6387TIP3   OH240651   6.697   2.080  12.899  0.1036  0.2604 -0.0904
 6387TIP3    H140652   6.750   2.159  12.883  1.2278 -0.4324  0.1036
 6387TIP3    H240653   6.733   2.045  12.981 -1.2400  0.2322  0.5050
 6388TIP3   OH240654   3.163   4.625  15.124 -0.0928  0.4332  0.0007
 6388TIP3    H140655   3.236   4.682  15.102  0.2404  1.3100  2.9089
 6388TIP3    H240656   3.177   4.546  15.072  3.7286 -0.0024  1.3467
 6389TIP3   OH240657   6.629   6.169  13.842  0.1045 -0.3885  0.1370
 6389TIP3    H140658   6.626   6.111  13.917  0.5746 -0.6179 -0.0113
 6389TIP3    H240659   6.542   6.165  13.804  0.2940 -1.4596 -0.2126
 6390TIP3   OH240660   3.035   2.256  15.568  0.4847 -0.3078 -0.1514
 6390TIP3    H140661   3.124   2.277  15.596  0.4476  0.9330 -0.9069
 6390TIP3    H240662   3.011   2.326  15.508 -1.3487 -0.1217  0.7305
 6391TIP3   OH240663   4.612   1.163  12.957 -0.0594 -0.7015 -0.4370
 6391TIP3    H140664   4.662   1.084  12.935 -0.8320 -1.0632 -0.9469
 6391TIP3    H240665   4.613   1.166  13.052  1.9731 -0.0156 -0.4381
 6392TIP3   OH240666   3.375   6.739   3.856  0.3064  0.0877 -0.6103
 6392TIP3    H140667   3.340   6.657   3.891  0.3106  1.0453  1.8184
 6392TIP3    H240668   3.343   6.741   3.765 -0.6364 -2.0341 -0.4024
 6393TIP3   OH240669   6.286   2.323   2.464  0.6536  0.7066 -0.0445
 6393TIP3    H140670   6.240   2.398   2.427  2.6983  2.3980  0.6369
 6393TIP3    H240671   6.277   2.334   2.559  1.9594  0.7802  0.0838
 6394TIP3   OH240672   5.838   0.244  14.908 -0.1232  0.4451 -0.7367
 6394TIP3    H140673   5.927   0.227  14.877 -0.6015 -2.2792 -0.8149
 6394TIP3    H240674   5.798   0.158  14.914 -2.1446  1.4450  1.2627
 6395TIP3   OH240675   3.463   0.372  13.992 -0.1320 -0.4082 -0.2973
 6395TIP3    H140676   3.470   0.464  14.015 -0.3535 -0.0162 -1.7203
 6395TIP3    H240677   3.479   0.369  13.898 -2.1957 -1.5269 -0.6914
 6396TIP3   OH240678   4.778   3.468   1.265  0.4535  0.4442  0.4474
 6396TIP3    H140679   4.796   3.375   1.278 -0.3427  0.3442  0.8584
 6396TIP3    H240680   4.684   3.473   1.248  0.8822  0.9105 -2.1613
 6397TIP3   OH240681   6.019   0.259  14.487  0.0432  0.0580 -0.3928
 6397TIP3    H140682   6.008   0.329  14.552  0.3057 -0.4217  0.1761
 6397TIP3    H240683   5.931   0.226  14.471  0.1130 -0.7016  0.7114
 6398TIP3   OH240684   2.529   6.606  13.548  0.1640  0.2148 -0.1436
 6398TIP3    H140685   2.535   6.515  13.517  0.8891  0.3123 -0.3069
 6398TIP3    H240686   2.536   6.600  13.643  0.4618  0.1142 -0.1706
 6399TIP3   OH240687   3.498   0.939   4.533 -0.0866  0.4004  0.2431
 6399TIP3    H140688   3.545   0.876   4.588 -1.8504  0.6327  2.1121
 6399TIP3    H240689   3.406   0.925   4.553 -0.7160  1.4556 -1.6771
 6400TIP3   OH240690   5.750   4.446   1.054 -0.0693  0.5019  0.2583
 6400TIP3    H140691   5.672   4.404   1.090  0.2645 -0.0894  0.3029
 6400TIP3    H240692   5.812   4.374   1.040  0.4103  0.9439  0.0716
 6401TIP3   OH240693   1.285   5.870   3.083 -0.1273 -0.3667  0.1583
 6401TIP3    H140694   1.378   5.859   3.063 -0.3130 -0.8278 -0.4944
 6401TIP3    H240695   1.240   5.853   3.000 -0.7345  0.9655  0.1872
 6402TIP3   OH240696   3.325   6.396   3.707 -0.1944  0.1262 -0.1844
 6402TIP3    H140697   3.410   6.419   3.745  0.2301 -1.4978 -0.0754
 6402TIP3    H240698   3.304   6.470   3.649  1.1677  0.6628 -0.0343
 6403TIP3   OH240699   4.924   0.345   1.877  0.4642  0.0946 -0.0379
 6403TIP3    H140700   4.978   0.318   1.952  1.3273 -0.8783 -0.9680
 6403TIP3    H240701   4.898   0.262   1.836  0.4969  0.6161 -1.1442
 6404TIP3   OH240702   1.181   5.972  14.123  0.3696 -0.0805  0.0123
 6404TIP3    H140703   1.187   5.877  14.138 -0.1780  0.2336  2.7832
 6404TIP3    H240704   1.106   6.000  14.176  1.3059  2.0708  0.3083
 6405TIP3   OH240705   0.977   1.560  11.896 -0.1136  0.2276  0.3701
 6405TIP3    H140706   0.905   1.590  11.841 -1.0814  0.0135  1.4669
 6405TIP3    H240707   0.935   1.500  11.958  1.2270 -0.8905  0.2422
 6406TIP3   OH240708   1.562   1.670   1.745  0.9207  0.0552 -0.0793
 6406TIP3    H140709   1.471   1.684   1.719  0.6735  1.1022  1.2396
 6406TIP3    H240710   1.576   1.576   1.735  0.3814  0.1458 -2.3652
 6407TIP3   OH240711   2.994   4.208  15.868 -0.1530  0.7089 -0.1309
 6407TIP3    H140712   2.963   4.118  15.877 -0.7365  0.7968 -1.1147
 6407TIP3    H240713   3.085   4.199  15.838 -0.4806  0.4243 -1.0956
 6408TIP3   OH240714   0.886   1.720   1.945  0.3634  0.3258 -0.5863
 6408TIP3    H140715   0.972   1.742   1.982  0.6473 -0.0523 -1.0244
 6408TIP3    H240716   0.826   1.728   2.020  1.1448 -1.9267  0.3908
 6409TIP3   OH240717   2.895   1.674   3.552 -0.0077 -0.6672 -0.5977
 6409TIP3    H140718   2.948   1.643   3.479 -0.9496  0.3482 -1.7596
 6409TIP3    H240719   2.956   1.724   3.606  0.1365  1.2557 -2.3895
 6410TIP3   OH240720   5.563   6.173   1.377  0.4549 -0.2296 -0.4343
 6410TIP3    H140721   5.591   6.117   1.449 -0.6117 -1.4946 -0.9604
 6410TIP3    H240722   5.471   6.151   1.364  0.5137  0.2847 -1.8968
 6411TIP3   OH240723   4.013   4.018  11.590  0.1061 -0.0869 -0.0694
 6411TIP3    H140724   3.980   3.951  11.650 -0.8461  1.3760  1.1433
 6411TIP3    H240725   4.105   4.029  11.615 -0.5052  1.1635  1.8619
 6412TIP3   OH240726   2.729   0.045  15.382  0.0665  0.1012  0.1857
 6412TIP3    H140727   2.777   0.074  15.305  0.2740  3.3484  1.3653
 6412TIP3    H240728   2.640   0.078  15.369  0.4504  2.0254  1.8555
 6413TIP3   OH240729   5.937   1.103  13.040 -0.3044  0.1876  0.2755
 6413TIP3    H140730   6.028   1.090  13.067  0.5102 -0.3704 -2.4685
 6413TIP3    H240731   5.932   1.065  12.953 -3.1783  0.3012  0.2925
 6414TIP3   OH240732   5.189   3.580   2.749 -0.1786  0.0662  0.0744
 6414TIP3    H140733   5.208   3.632   2.670 -1.0867  0.0556 -0.1696
 6414TIP3    H240734   5.195   3.489   2.720  2.7728 -0.0754  0.8210
 6415TIP3   OH240735   3.104   6.506   4.017  0.5626  0.0508  0.1670
 6415TIP3    H140736   3.179   6.489   4.073 -0.7397 -3.0361  1.2184
 6415TIP3    H240737   3.028   6.488   4.072 -0.8410 -1.2084 -2.0097
 6416TIP3   OH240738   3.130   6.780  16.409 -0.4610 -0.2745 -0.3857
 6416TIP3    H140739   3.191   6.812  16.475 -0.5373  2.8350 -1.6655
 6416TIP3    H240740   3.185   6.738  16.344 -0.0151 -0.1903 -0.0677
 6417TIP3   OH240741   4.361   5.982   4.991 -0.3658  0.3661 -0.1968
 6417TIP3    H140742   4.282   5.938   4.959 -1.1372  2.3986 -1.3309
 6417TIP3    H240743   4.412   5.999   4.912  1.1368 -0.6861  0.5006
 6418TIP3   OH240744   3.863   6.172  11.202 -0.0139 -0.1986  0.3700
 6418TIP3    H140745   3.934   6.199  11.143  0.4703 -1.1428  0.5009
 6418TIP3    H240746   3.888   6.083  11.230 -1.2777 -0.5688  0.3626
 6419TIP3   OH240747   5.164   3.801  13.261  0.1484  0.2005  0.3116
 6419TIP3    H140748   5.118   3.883  13.244  0.8752  0.4607 -0.5024
 6419TIP3    H240749   5.109   3.754  13.324 -0.1114  1.4512  1.0378
 6420TIP3   OH240750   1.780   0.472  11.581  0.0806 -0.4587 -0.0448
 6420TIP3    H140751   1.776   0.553  11.532  0.9486 -0.5314 -0.2493
 6420TIP3    H240752   1.789   0.404  11.515  0.1424 -0.6533  0.1606
 6421TIP3   OH240753   4.848   6.830   2.267  0.0526  0.0598 -0.1648
 6421TIP3    H140754   4.800   6.843   2.349 -1.2632  0.3600 -0.9486
 6421TIP3    H240755   4.936   6.803   2.294 -0.3769  0.0899  1.3351
 6422TIP3   OH240756   4.117   4.439  15.818 -0.3591 -0.1348  0.0552
 6422TIP3    H140757   4.102   4.394  15.901  1.5256  0.4129  0.7471
 6422TIP3    H240758   4.209   4.423  15.798  0.2182  2.7554 -0.0365
 6423TIP3   OH240759   2.929   3.011  14.361 -0.7560  0.6940 -0.2750
 6423TIP3    H140760   3.024   3.025  14.359 -0.5037 -0.9296 -1.4184
 6423TIP3    H240761   2.914   2.963  14.442 -0.2806 -0.7962 -1.0241
 6424TIP3   OH240762   5.751   3.684  11.092 -0.9379  0.0647 -0.2530
 6424TIP3    H140763   5.844   3.675  11.070 -0.9203  0.3978 -0.3193
 6424TIP3    H240764   5.719   3.594  11.094 -0.4919 -0.0933  0.3101
 6425TIP3   OH240765   4.644   2.777  14.920 -0.8605  0.3204  0.2193
 6425TIP3    H140766   4.699   2.699  14.934 -1.0737 -0.0034 -0.6673
 6425TIP3    H240767   4.670   2.808  14.833 -0.7796  1.2473  0.5659
 6426TIP3   OH240768   5.963   3.753   2.821  0.1736  0.4921 -0.1656
 6426TIP3    H140769   5.921   3.688   2.878  0.9637  0.9814  1.0079
 6426TIP3    H240770   5.895   3.819   2.805 -0.8203 -0.8315 -1.8241
 6427TIP3   OH240771   2.254   3.474  14.286  0.0444  0.3391 -0.0921
 6427TIP3    H140772   2.229   3.487  14.377  0.2774  0.7443 -0.0850
 6427TIP3    H240773   2.217   3.549  14.240 -0.9823 -0.3927 -0.5127
 6428TIP3   OH240774   6.673   2.319   3.414 -0.1929  0.2293 -0.2211
 6428TIP3    H140775   6.629   2.403   3.404 -1.2535 -0.3396 -0.4550
 6428TIP3    H240776   6.766   2.341   3.414 -0.4003  1.2835 -1.6240
 6429TIP3   OH240777   3.407   0.101  13.198  0.2090  0.3629  0.6508
 6429TIP3    H140778   3.339   0.156  13.158 -1.8503  0.5235  4.0150
 6429TIP3    H240779   3.364   0.017  13.215  1.9324 -0.7449 -0.1817
 6430TIP3   OH240780   1.713   4.226   3.601  0.1373  0.0861  0.8811
 6430TIP3    H140781   1.671   4.285   3.664  0.8382  0.0712  1.3707
 6430TIP3    H240782   1.740   4.284   3.530 -0.1787  0.1853  0.8383
 6431TIP3   OH240783   4.198   6.149  14.391 -0.3585  0.3070 -0.9570
 6431TIP3    H140784   4.197   6.216  14.459  3.1220  1.4270 -1.7862
 6431TIP3    H240785   4.138   6.182  14.324 -1.9109  0.4211  0.4253
 6432TIP3   OH240786   5.535   3.708  15.496  0.3022  0.1798 -0.2107
 6432TIP3    H140787   5.549   3.665  15.580 -0.8674  1.0445  0.4610
 6432TIP3    H240788   5.572   3.796  15.507  0.3598  0.2187 -0.6846
 6433TIP3   OH240789   1.692   5.050   0.295 -0.1232 -0.1685  0.3556
 6433TIP3    H140790   1.597   5.047   0.303 -0.3108 -0.3536 -1.5148
 6433TIP3    H240791   1.715   5.142   0.310 -0.6911  0.0366 -0.0125
 6434TIP3   OH240792   2.320   1.144  11.899  0.5423 -0.5256 -0.3201
 6434TIP3    H140793   2.231   1.128  11.867 -0.1857 -2.5912  2.3701
 6434TIP3    H240794   2.376   1.112  11.828 -0.7742  0.8994 -2.1118
 6435TIP3   OH240795   0.596   1.989  16.496  0.1108  0.2353 -0.6176
 6435TIP3    H140796   0.555   1.963  16.579 -1.4716  0.4566 -1.3077
 6435TIP3    H240797   0.646   2.067  16.518  1.9479 -1.1921  0.6918
 6436TIP3   OH240798   2.956   6.813   1.415 -0.3588 -0.0536 -0.6168
 6436TIP3    H140799   2.954   6.903   1.448  1.1934 -0.5089  0.8839
 6436TIP3    H240800   2.864   6.787   1.410 -0.8188  0.0804  3.5878
 6437TIP3   OH240801   3.779   2.153  11.010  0.5345 -0.3617  0.0720
 6437TIP3    H140802   3.853   2.099  10.981 -0.0250 -0.4748 -1.2092
 6437TIP3    H240803   3.705   2.093  11.012  0.5042 -0.3064  1.6123
 6438TIP3   OH240804   4.559   5.752   2.286  0.4602  0.2876 -0.6223
 6438TIP3    H140805   4.555   5.846   2.270  0.0599  0.3996  0.0689
 6438TIP3    H240806   4.468   5.726   2.300  0.5451 -0.2451 -1.0148
 6439TIP3   OH240807   4.534   0.600  16.837  0.1902  0.1624 -0.8599
 6439TIP3    H140808   4.609   0.566  16.788  0.4362  0.4846 -0.7124
 6439TIP3    H240809   4.552   0.694  16.846  0.2368  0.0787 -0.0069
 6440TIP3   OH240810   1.615   5.380   6.912 -0.6446 -0.4802  0.0319
 6440TIP3    H140811   1.670   5.437   6.858 -3.1622  1.1417 -0.9491
 6440TIP3    H240812   1.572   5.321   6.850 -1.1725 -0.7231  0.6214
 6441TIP3   OH240813   2.440   3.671  13.873  0.1383  0.0767 -0.0710
 6441TIP3    H140814   2.367   3.711  13.920 -0.3201  0.1575 -0.8261
 6441TIP3    H240815   2.426   3.576  13.883  2.8160 -0.1031  4.1949
 6442TIP3   OH240816   2.369   1.046   3.594 -0.3635 -0.7687  0.2038
 6442TIP3    H140817   2.432   1.058   3.665  1.0186  0.6258 -1.1809
 6442TIP3    H240818   2.350   1.135   3.564 -1.4654 -1.2942 -0.7243
 6443TIP3   OH240819   5.924   3.854   5.655 -0.3348 -0.7503  0.6489
 6443TIP3    H140820   5.996   3.880   5.597 -1.5562 -0.3930 -0.7450
 6443TIP3    H240821   5.878   3.785   5.607 -2.1112  0.4109  0.6250
 6444TIP3   OH240822   6.675   2.959  16.423  0.1819 -0.2691  0.2471
 6444TIP3    H140823   6.588   2.929  16.451  0.7509 -1.3878  0.9025
 6444TIP3    H240824   6.716   2.990  16.504  0.3176  0.4970 -0.1034
 6445TIP3   OH240825   5.559   6.534  13.243 -0.0717 -1.1349 -0.5450
 6445TIP3    H140826   5.597   6.525  13.156  2.3215 -0.3512  0.3426
 6445TIP3    H240827   5.517   6.620  13.241  3.3877  0.7566  0.1380
 6446TIP3   OH240828   3.244   6.588   2.774 -0.9298 -0.1136  0.5820
 6446TIP3    H140829   3.281   6.503   2.798  2.2981  1.5592  2.1939
 6446TIP3    H240830   3.298   6.618   2.701 -3.2418 -0.1225 -1.2652
 6447TIP3   OH240831   1.526   3.170  11.157 -0.2236  0.7323 -0.1037
 6447TIP3    H140832   1.582   3.138  11.228  0.4155  0.3242 -0.7712
 6447TIP3    H240833   1.530   3.265  11.165  0.8287  0.7208 -0.3180
 6448TIP3   OH240834   2.571   1.282   5.394  0.3928  0.0555 -0.9459
 6448TIP3    H140835   2.624   1.361   5.390 -0.2333  0.6239  0.8686
 6448TIP3    H240836   2.615   1.226   5.459 -1.3347  0.7145  0.9241
 6449TIP3   OH240837   4.428   0.650   2.686 -0.3172 -0.2436  0.0571
 6449TIP3    H140838   4.389   0.685   2.767 -2.8768 -2.8557  0.1079
 6449TIP3    H240839   4.516   0.623   2.712  0.2005  2.0979  1.0247
 6450TIP3   OH240840   3.747   6.453  12.037 -0.1767 -0.1540 -0.8738
 6450TIP3    H140841   3.717   6.416  12.121  1.4074  0.9152  0.2258
 6450TIP3    H240842   3.828   6.406  12.019  0.2937  0.6939 -0.9983
 6451TIP3   OH240843   5.795   1.330  17.068 -0.1606 -0.1069  0.1317
 6451TIP3    H140844   5.796   1.267  17.140  0.5228 -0.8770 -0.5232
 6451TIP3    H240845   5.809   1.415  17.109  1.5101 -0.6762  0.7955
 6452TIP3   OH240846   6.426   5.001  13.849 -0.4863  0.4867  0.3207
 6452TIP3    H140847   6.512   5.011  13.890 -0.4172 -0.4654  0.4374
 6452TIP3    H240848   6.385   5.087  13.858 -0.5385  0.2789  2.5595
 6453TIP3   OH240849   2.084   2.983   4.232 -0.1349 -0.3136  0.1348
 6453TIP3    H140850   2.018   3.030   4.283  0.1218  1.0900 -0.7648
 6453TIP3    H240851   2.149   3.049   4.210  0.7272 -1.3044 -0.4011
 6454TIP3   OH240852   6.194   3.979  13.507 -0.0435  0.1746  0.9313
 6454TIP3    H140853   6.112   3.983  13.458  0.7226  0.1184 -0.4043
 6454TIP3    H240854   6.232   4.066  13.499  0.8210 -0.2637  0.0890
 6455TIP3   OH240855   6.790   4.746  15.307  0.0811  0.1391  0.0201
 6455TIP3    H140856   6.740   4.674  15.267 -2.3303  1.3961  0.5430
 6455TIP3    H240857   6.880   4.714  15.310 -0.3109 -1.5909 -2.6754
 6456TIP3   OH240858   5.875   6.032   3.649 -0.3217  0.3491 -0.1013
 6456TIP3    H140859   5.889   5.957   3.707 -0.3741  1.4189  1.3271
 6456TIP3    H240860   5.961   6.075   3.645 -0.2449  0.1439 -1.0703
 6457TIP3   OH240861   3.337   0.524  12.687  0.0565 -0.3904  0.2246
 6457TIP3    H140862   3.318   0.572  12.768 -1.6456  1.3370 -1.1036
 6457TIP3    H240863   3.306   0.435  12.704 -0.9210  0.1248  1.2499
 6458TIP3   OH240864   1.668   2.527  10.630 -0.4001 -0.1068 -0.4896
 6458TIP3    H140865   1.695   2.448  10.678 -0.2557 -0.8882 -1.8000
 6458TIP3    H240866   1.592   2.499  10.579  0.2227  0.3194 -1.6955
 6459TIP3   OH240867   3.183   2.227   5.346 -0.3973 -0.0530 -0.1947
 6459TIP3    H140868   3.233   2.181   5.414  0.0459  1.6630  0.6935
 6459TIP3    H240869   3.098   2.244   5.385 -0.0384  1.2118  0.0771
 6460TIP3   OH240870   1.978   5.845  12.522  0.1496 -0.7203 -0.2579
 6460TIP3    H140871   1.933   5.907  12.465  0.8155 -0.2477 -0.2779
 6460TIP3    H240872   2.064   5.834  12.481  0.4173 -0.8359  0.3364
 6461TIP3   OH240873   0.677   1.506  12.557 -0.1735 -0.0926  0.1162
 6461TIP3    H140874   0.595   1.459  12.568  1.1342 -2.3601  0.8822
 6461TIP3    H240875   0.742   1.437  12.542  1.6251  1.6027 -0.3032
 6462TIP3   OH240876   3.561   4.154  11.218 -0.0390  0.1254 -0.2572
 6462TIP3    H140877   3.531   4.134  11.129 -0.0645 -0.7977 -0.0519
 6462TIP3    H240878   3.481   4.150  11.271  0.2204 -1.0130  0.0736
 6463TIP3   OH240879   5.925   2.541  11.674 -0.1288 -0.0413  0.4454
 6463TIP3    H140880   5.833   2.566  11.678  0.3547  2.8486 -2.4549
 6463TIP3    H240881   5.938   2.509  11.585  1.9327  1.1629  0.2316
 6464TIP3   OH240882   3.501   2.163  13.612 -0.4651 -0.3145 -0.2292
 6464TIP3    H140883   3.565   2.124  13.552 -0.6750  0.2327 -0.8179
 6464TIP3    H240884   3.552   2.185  13.690 -0.3907 -2.0243  0.2467
 6465TIP3   OH240885   6.657   4.809   4.230 -0.6124  0.4438  0.5159
 6465TIP3    H140886   6.617   4.887   4.193 -1.1423  0.0919  0.3497
 6465TIP3    H240887   6.726   4.843   4.287 -0.1611  1.0034 -0.3390
 6466TIP3   OH240888   3.784   5.191  11.494 -0.1990  0.0857  0.2287
 6466TIP3    H140889   3.762   5.246  11.418 -0.8521 -3.2124 -2.1695
 6466TIP3    H240890   3.851   5.132  11.462 -2.1177 -2.9553  1.3932
 6467TIP3   OH240891   3.252   2.777   3.289 -0.2110 -0.6639 -0.0870
 6467TIP3    H140892   3.190   2.704   3.295 -1.0034 -0.2485 -2.2280
 6467TIP3    H240893   3.200   2.854   3.312 -0.8513 -0.1955 -2.7723
 6468TIP3   OH240894   4.764   0.614   4.031 -0.1547  0.0347 -0.0163
 6468TIP3    H140895   4.689   0.558   4.049  0.6074 -0.9094  0.3065
 6468TIP3    H240896   4.807   0.625   4.116  0.2287  0.3388 -0.2446
 6469TIP3   OH240897   1.282   1.292  15.756 -0.0292  0.2601 -0.1455
 6469TIP3    H140898   1.210   1.236  15.728 -1.5987  1.9734  0.2247
 6469TIP3    H240899   1.242   1.379  15.768  2.4116  1.6665 -1.3937
 6470TIP3   OH240900   6.800   3.177   0.517 -0.2289 -0.2523  0.3777
 6470TIP3    H140901   6.724   3.197   0.572  1.1266 -0.9563  2.6556
 6470TIP3    H240902   6.800   3.081   0.511  0.7594 -0.3007  0.8967
 6471TIP3   OH240903   6.094   1.625   4.967 -0.4293  0.1280  0.6722
 6471TIP3    H140904   6.174   1.577   4.992 -0.1321  0.0242 -0.4385
 6471TIP3    H240905   6.101   1.708   5.015 -0.5444 -0.5896  1.9738
 6472TIP3   OH240906   3.605   3.741   0.222  0.0915 -0.1098 -0.4975
 6472TIP3    H140907   3.583   3.757   0.130 -1.3982 -0.8898 -0.2984
 6472TIP3    H240908   3.635   3.651   0.225 -1.0130 -0.4794 -0.0450
 6473TIP3   OH240909   1.195   5.659   1.688  0.5543  0.4261 -0.0991
 6473TIP3    H140910   1.250   5.734   1.709  0.4416  0.0806  1.6146
 6473TIP3    H240911   1.251   5.601   1.638  1.0401  1.0857 -0.3240
 6474TIP3   OH240912   5.990   1.429  12.688 -0.5189 -0.0392 -0.1283
 6474TIP3    H140913   5.963   1.520  12.692 -1.0705 -0.2502  1.3209
 6474TIP3    H240914   5.939   1.385  12.755  1.5509 -0.9428  0.9552
 6475TIP3   OH240915   1.610   3.426  15.694 -0.2977  0.6999 -0.1324
 6475TIP3    H140916   1.591   3.332  15.691 -1.4421  0.9158  0.0477
 6475TIP3    H240917   1.624   3.450  15.602 -0.4174  0.4400 -0.2203
 6476TIP3   OH240918   2.491   2.852  12.419  0.1027 -0.1578 -0.0528
 6476TIP3    H140919   2.484   2.788  12.490  1.3289  0.4906  0.6880
 6476TIP3    H240920   2.451   2.809  12.344 -2.6586 -0.2850  1.3576
 6477TIP3   OH240921   1.807   2.352  15.766 -0.0231  0.4642  0.0843
 6477TIP3    H140922   1.875   2.370  15.831 -0.7732  0.3277  0.9121
 6477TIP3    H240923   1.763   2.273  15.798 -0.5482  0.5240 -0.4687
 6478TIP3   OH240924   4.167   2.412   3.163  0.1212 -0.3707  0.2382
 6478TIP3    H140925   4.229   2.464   3.112  0.7267 -1.0680  0.2502
 6478TIP3    H240926   4.102   2.475   3.193 -0.0333  0.1197 -1.0679
 6479TIP3   OH240927   4.188   3.152  14.721  0.2857  0.0354  0.3302
 6479TIP3    H140928   4.152   3.115  14.641  1.7769  1.1938 -0.9413
 6479TIP3    H240929   4.273   3.110  14.731  1.0419  1.4337  0.0819
 6480TIP3   OH240930   3.113   6.623  15.570  0.3574 -0.3675 -0.8426
 6480TIP3    H140931   3.060   6.617  15.650  0.1295 -2.3620 -1.1033
 6480TIP3    H240932   3.069   6.688  15.517 -1.1471 -1.0983 -0.5284
 6481TIP3   OH240933   1.992   5.190  12.476  0.1146 -0.4491 -0.1923
 6481TIP3    H140934   1.960   5.101  12.461 -0.7009 -0.1361 -0.4225
 6481TIP3    H240935   1.972   5.207  12.568 -0.5673 -0.1945 -0.3783
 6482TIP3   OH240936   4.213   4.104   0.394  0.6086  0.7462  0.1522
 6482TIP3    H140937   4.244   4.110   0.304  2.9100  1.5048  0.9262
 6482TIP3    H240938   4.134   4.050   0.389  1.3161 -0.1781 -2.1500
 6483TIP3   OH240939   1.540   4.145   3.886 -0.2522  0.3273  0.0514
 6483TIP3    H140940   1.482   4.136   3.810 -0.4712 -0.1821  0.2733
 6483TIP3    H240941   1.588   4.226   3.869 -1.4059  1.0636  0.1205
 6484TIP3   OH240942   0.905   6.209   5.274  0.0747 -0.4327 -0.4556
 6484TIP3    H140943   0.892   6.127   5.226 -0.2601 -0.0628 -1.0153
 6484TIP3    H240944   0.817   6.248   5.278  0.2736  0.0154 -0.4150
 6485TIP3   OH240945   1.907   1.601  11.759 -0.1170 -0.2900  0.4682
 6485TIP3    H140946   1.960   1.589  11.838 -0.4393  1.1393  0.9280
 6485TIP3    H240947   1.970   1.624  11.691 -0.0867  1.2088  0.9694
 6486TIP3   OH240948   1.181   5.882   1.188 -0.1216 -0.1663  0.4678
 6486TIP3    H140949   1.122   5.957   1.191  0.2007  0.0914  0.2964
 6486TIP3    H240950   1.243   5.896   1.259 -0.3925 -0.5461  0.7861
 6487TIP3   OH240951   3.506   1.496   2.001 -0.0683 -0.2390  0.3777
 6487TIP3    H140952   3.509   1.556   2.075  1.0003  0.2729 -0.0647
 6487TIP3    H240953   3.574   1.527   1.941  0.7415 -2.0731  0.2852
 6488TIP3   OH240954   4.371   4.645  17.056  0.5630 -0.5096 -0.6193
 6488TIP3    H140955   4.397   4.660  16.965  0.4429 -0.7456 -0.6955
 6488TIP3    H240956   4.326   4.560  17.054  2.1294 -1.3869 -0.0332
 6489TIP3   OH240957   4.407   5.935  13.493  0.3252  0.0322 -0.4033
 6489TIP3    H140958   4.399   5.895  13.580 -1.3035 -0.0404 -0.5700
 6489TIP3    H240959   4.367   5.872  13.433 -0.3278  0.9364 -0.9412
 6490TIP3   OH240960   1.920   6.297   4.944  0.3226 -0.2237  0.1293
 6490TIP3    H140961   1.981   6.332   5.008  0.7371 -1.1781  0.2709
 6490TIP3    H240962   1.976   6.255   4.878 -0.1497 -0.3630 -0.1899
 6491TIP3   OH240963   6.104   5.148  15.132  0.1259  0.4442  0.5223
 6491TIP3    H140964   6.023   5.137  15.181  0.1560  2.5440  1.1635
 6491TIP3    H240965   6.118   5.243  15.131  2.6289  0.1279  0.4905
 6492TIP3   OH240966   1.007   2.381  12.706  0.3819  0.0525  0.2302
 6492TIP3    H140967   0.986   2.430  12.786 -2.3092  0.2592 -0.5215
 6492TIP3    H240968   1.102   2.386  12.700  0.4225  2.9532  1.5997
 6493TIP3   OH240969   4.638   6.077   1.209 -0.4867 -0.1671  0.1388
 6493TIP3    H140970   4.684   6.071   1.125  0.7779  0.0862  0.7855
 6493TIP3    H240971   4.703   6.049   1.274 -1.2549  0.1925  1.0848
 6494TIP3   OH240972   1.459   6.022  14.967  0.5262  0.0004 -0.5211
 6494TIP3    H140973   1.369   5.990  14.964  0.4216  0.3338 -2.6559
 6494TIP3    H240974   1.475   6.040  15.060 -2.5986  2.5952 -0.2800
 6495TIP3   OH240975   3.971   1.779   3.102 -0.0941  0.1771  0.4693
 6495TIP3    H140976   3.960   1.754   3.194  0.7379  0.3844  0.6361
 6495TIP3    H240977   3.886   1.814   3.076 -0.1936  0.5934  1.3179
 6496TIP3   OH240978   1.853   2.841   4.774 -0.3978 -0.1218 -0.1595
 6496TIP3    H140979   1.903   2.909   4.731  0.0116 -0.3785 -0.0954
 6496TIP3    H240980   1.866   2.856   4.868  1.3770 -1.4941 -0.1398
 6497TIP3   OH240981   5.272   5.731  16.776  0.1760  0.2559 -0.8351
 6497TIP3    H140982   5.235   5.673  16.710  2.1184 -1.9074 -0.1624
 6497TIP3    H240983   5.305   5.673  16.844  0.3445  2.2835  0.9344
 6498TIP3   OH240984   0.406   1.798  16.398  0.1531  0.3475 -0.2720
 6498TIP3    H140985   0.314   1.818  16.416  0.0986 -0.7947  0.8907
 6498TIP3    H240986   0.455   1.870  16.437 -0.1126 -0.7093  2.2054
 6499TIP3   OH240987   4.726   4.794  16.133 -0.1155  0.7359  0.2242
 6499TIP3    H140988   4.801   4.795  16.192 -0.4612 -0.6886  0.7244
 6499TIP3    H240989   4.762   4.817  16.047  1.1241 -1.0317  0.2328
 6500TIP3   OH240990   5.104   3.340  12.974  0.1697 -0.5896 -0.0014
 6500TIP3    H140991   5.113   3.334  12.879  1.4183  0.3794  0.0399
 6500TIP3    H240992   5.177   3.289  13.009  1.5835  1.5859  0.3917
 6501TIP3   OH240993   5.933   2.399  10.598  0.1146  0.5911 -0.2558
 6501TIP3    H140994   5.879   2.443  10.532 -1.2336 -0.2375  0.2722
 6501TIP3    H240995   6.001   2.355  10.548 -0.5673  0.4316 -1.0565
 6502TIP3   OH240996   2.615   6.619   3.135 -0.7530 -0.2986  0.7658
 6502TIP3    H140997   2.693   6.574   3.167 -0.6215 -1.3628 -0.9224
 6502TIP3    H240998   2.562   6.550   3.096 -0.9809  0.8627 -1.0917
 6503TIP3   OH240999   1.026   0.525  15.244 -0.1510 -0.1485  0.2934
 6503TIP3    H141000   1.060   0.535  15.333  0.1794 -0.6458  0.2273
 6503TIP3    H241001   1.102   0.499  15.192 -0.2261  0.6445 -0.2426
 6504TIP3   OH241002   6.695   2.970  16.709 -0.3603 -0.0526  0.0632
 6504TIP3    H141003   6.648   2.949  16.790 -1.4367  0.9624 -0.2736
 6504TIP3    H241004   6.787   2.976  16.735 -0.5436 -0.8879  0.9721
 6505TIP3   OH241005   2.614   3.501  17.143  0.0990  0.4576 -1.3110
 6505TIP3    H141006   2.648   3.506  17.054  1.8439  2.0369 -0.6284
 6505TIP3    H241007   2.651   3.420  17.179 -0.7873 -0.2960 -2.0630
 6506TIP3   OH241008   2.713   5.651   2.485  0.0993 -0.8998  0.2908
 6506TIP3    H141009   2.805   5.666   2.507 -0.1144  2.1815 -0.4211
 6506TIP3    H241010   2.666   5.666   2.567  0.1348 -1.2391  0.3745
 6507TIP3   OH241011   2.648   4.942   1.771 -0.1273  0.0078  0.7332
 6507TIP3    H141012   2.717   4.981   1.824  0.0973  0.4653  0.1135
 6507TIP3    H241013   2.646   4.994   1.691 -0.5082 -0.6254  0.3181
 6508TIP3   OH241014   2.626   5.278  13.975  0.6515  0.4739  0.1282
 6508TIP3    H141015   2.601   5.370  13.978 -0.2186  0.2438  0.1623
 6508TIP3    H241016   2.718   5.279  13.946  0.4884  1.3257 -0.4005
 6509TIP3   OH241017   1.065   4.207  10.882  0.1204 -0.1030  0.0839
 6509TIP3    H141018   0.987   4.263  10.877  0.1810 -0.1278 -2.6567
 6509TIP3    H241019   1.139   4.268  10.874  0.2451 -0.3867 -1.0133
 6510TIP3   OH241020   2.365   5.362   1.333  0.2587 -0.3558 -0.0946
 6510TIP3    H141021   2.381   5.374   1.427 -1.0553 -1.7399  0.3252
 6510TIP3    H241022   2.271   5.348   1.326  0.3270 -0.1736 -1.6533
 6511TIP3   OH241023   1.948   5.880  14.497  0.6643  0.1562 -0.6691
 6511TIP3    H141024   1.997   5.814  14.545 -3.2907 -1.6146  1.4051
 6511TIP3    H241025   1.887   5.830  14.443 -1.9801  2.0005  0.3983
 6512TIP3   OH241026   1.771   4.341   4.062  0.3494  0.5006  0.2049
 6512TIP3    H141027   1.791   4.247   4.060  0.9922  0.6337 -1.5029
 6512TIP3    H241028   1.697   4.348   4.122  0.1668 -1.1311  0.2250
 6513TIP3   OH241029   4.878   1.550  15.252  0.1131 -0.2052  0.3936
 6513TIP3    H141030   4.861   1.540  15.346  1.1515 -1.1006  0.5111
 6513TIP3    H241031   4.845   1.637  15.231 -1.7252 -0.6500  1.2056
 6514TIP3   OH241032   6.155   1.829  11.999  0.1317  0.5795  0.0745
 6514TIP3    H141033   6.075   1.880  11.987 -0.6601 -0.4447  0.7965
 6514TIP3    H241034   6.167   1.827  12.094 -1.0280 -2.2279  0.2569
 6515TIP3   OH241035   4.682   0.574   0.982 -0.6236 -0.4951  0.1325
 6515TIP3    H141036   4.586   0.584   0.983 -0.5022  0.8579  0.7170
 6515TIP3    H241037   4.714   0.659   0.952  0.4703 -0.1501  2.1166
 6516TIP3   OH241038   6.192   6.625  12.671  0.3003 -0.1321  1.0302
 6516TIP3    H141039   6.103   6.590  12.670 -0.1497  0.8416 -2.3369
 6516TIP3    H241040   6.183   6.712  12.710  0.3854 -1.0878  3.4117
 6517TIP3   OH241041   2.491   1.739   0.131  0.6719 -0.3784 -0.2555
 6517TIP3    H141042   2.534   1.701   0.055 -1.4039 -0.0754 -1.6593
 6517TIP3    H241043   2.550   1.719   0.204  0.0141 -5.9889 -0.8439
 6518TIP3   OH241044   4.265   1.480   2.825  0.4031  0.0041  0.2508
 6518TIP3    H141045   4.249   1.572   2.844 -1.0536 -0.3785  1.0263
 6518TIP3    H241046   4.348   1.461   2.870  1.9042  1.4254 -1.7548
 6519TIP3   OH241047   1.220   5.915   3.366  0.1067 -0.7425  0.0156
 6519TIP3    H141048   1.172   5.951   3.291  1.9267  0.1653 -0.7794
 6519TIP3    H241049   1.297   5.873   3.326  0.7027 -0.9338  1.3314
 6520TIP3   OH241050   2.717   0.072  16.976 -0.0683  0.6391  0.2282
 6520TIP3    H141051   2.686   0.114  17.055 -3.8024  0.2635 -0.8725
 6520TIP3    H241052   2.708   0.139  16.908 -0.5318 -0.1564 -0.5119
 6521TIP3   OH241053   4.673   1.654   3.191 -0.1620 -0.0997 -0.9548
 6521TIP3    H141054   4.594   1.701   3.164 -0.7753  0.5316  1.6359
 6521TIP3    H241055   4.679   1.671   3.285  1.7139 -2.1741 -0.6363
 6522TIP3   OH241056   6.803   3.580   3.089 -0.1954  0.1177  0.0089
 6522TIP3    H141057   6.771   3.636   3.018 -0.9858 -0.6823 -0.2721
 6522TIP3    H241058   6.772   3.492   3.067  0.0527 -0.2427  1.0418
 6523TIP3   OH241059   0.986   0.506   4.068  0.1416 -0.5751 -0.0499
 6523TIP3    H141060   0.971   0.418   4.032  0.5119 -0.0261 -1.6488
 6523TIP3    H241061   0.966   0.565   3.995 -2.9374  0.8966  1.7801
 6524TIP3   OH241062   3.093   5.380  15.356 -0.4414 -1.1166  0.2085
 6524TIP3    H141063   3.047   5.433  15.422  0.3912  0.8117 -0.6935
 6524TIP3    H241064   3.024   5.355  15.294 -1.3085 -3.2503  1.8643
 6525TIP3   OH241065   5.077   0.521  11.116  0.3755 -0.1624 -0.3745
 6525TIP3    H141066   5.073   0.491  11.207  1.0790 -0.1606 -0.3359
 6525TIP3    H241067   5.052   0.613  11.120 -1.4618 -0.6193 -0.4487
 6526TIP3   OH241068   5.236   0.182   6.368 -0.2231  0.6289 -0.2237
 6526TIP3    H141069   5.253   0.089   6.384  0.0906  0.8544  0.8487
 6526TIP3    H241070   5.273   0.227   6.444 -0.6460  1.6102 -0.5739
 6527TIP3   OH241071   2.613   4.501  16.659 -0.1877 -0.3112  0.4952
 6527TIP3    H141072   2.589   4.589  16.630  0.4476  0.1613  1.3492
 6527TIP3    H241073   2.709   4.501  16.658 -0.1488 -1.6458 -1.3631
 6528TIP3   OH241074   1.410   6.639  16.877 -0.4589  0.4874  0.9065
 6528TIP3    H141075   1.453   6.562  16.913 -0.5703  0.3899  0.8341
 6528TIP3    H241076   1.346   6.603  16.815 -0.6895  0.6269  1.0642
 6529TIP3   OH241077   5.127   1.792   0.544  0.5484 -0.0513  0.5278
 6529TIP3    H141078   5.178   1.779   0.624  1.0681 -2.1411 -0.0885
 6529TIP3    H241079   5.104   1.704   0.515 -1.3827  0.7331 -0.5413
 6530TIP3   OH241080   0.143   4.325  15.678 -0.4793 -0.7130  0.5221
 6530TIP3    H141081   0.156   4.407  15.724 -0.7989 -0.8913  0.9312
 6530TIP3    H241082   0.113   4.264  15.745 -1.9994 -0.6914 -0.1059
 6531TIP3   OH241083   3.853   4.328   5.629  0.4279 -0.1855 -0.8861
 6531TIP3    H141084   3.886   4.311   5.718 -0.9253  0.7678 -0.1765
 6531TIP3    H241085   3.769   4.372   5.642 -1.9281 -3.6746 -2.5521
 6532TIP3   OH241086   5.961   2.286   0.122  0.5592  0.0781 -0.5513
 6532TIP3    H141087   5.944   2.268   0.030 -1.2550 -2.0219  0.0907
 6532TIP3    H241088   5.882   2.332   0.152  0.6709 -0.1902  0.1701
 6533TIP3   OH241089   1.161   6.043  15.256  0.0838  0.0037 -0.0274
 6533TIP3    H141090   1.076   6.067  15.292  0.3731 -1.2467  1.6096
 6533TIP3    H241091   1.217   6.030  15.332  2.2722  2.4123 -1.0669
 6534TIP3   OH241092   2.721   2.318   0.968  0.3695 -0.9416 -0.1688
 6534TIP3    H141093   2.651   2.253   0.973 -0.4704 -0.0230  0.0914
 6534TIP3    H241094   2.756   2.309   0.879  0.3359 -1.8053 -0.1076
 6535TIP3   OH241095   1.627   5.493   0.156 -0.1366  0.0259  0.2570
 6535TIP3    H141096   1.677   5.548   0.095 -0.8819  0.2075 -0.2062
 6535TIP3    H241097   1.606   5.415   0.105  0.2157 -0.3325  0.6534
 6536TIP3   OH241098   2.037   2.391  12.670 -0.2401 -0.1120 -0.4243
 6536TIP3    H141099   2.098   2.348  12.730  0.1468  0.9745 -0.0111
 6536TIP3    H241100   1.955   2.397  12.719 -0.1613  0.0327 -0.3095
 6537TIP3   OH241101   0.386   6.557  12.434  0.2581 -0.2485  0.3882
 6537TIP3    H141102   0.467   6.509  12.421  0.6203  0.3535  0.3977
 6537TIP3    H241103   0.370   6.554  12.528  2.5157  3.1441  1.0622
 6538TIP3   OH241104   3.785   6.131  15.318  0.7744  0.0508  0.4846
 6538TIP3    H141105   3.857   6.163  15.264  0.3319 -0.3903 -0.3762
 6538TIP3    H241106   3.800   6.037  15.325  1.1869  0.1841  1.6863
 6539TIP3   OH241107   1.664   0.210  14.555 -0.0873 -0.2374 -0.2145
 6539TIP3    H141108   1.628   0.122  14.544  1.9013 -1.0664 -0.5833
 6539TIP3    H241109   1.593   0.261  14.593 -1.2084 -2.0690  0.2552
 6540TIP3   OH241110   0.076   2.988   4.702  0.3078 -0.1259  1.0086
 6540TIP3    H141111   0.093   3.033   4.785  0.1664  1.0145  0.4322
 6540TIP3    H241112  -0.005   3.028   4.669  1.3582  0.7751 -0.5853
 6541TIP3   OH241113   3.803   0.407   2.659 -0.4110 -0.1254 -0.6790
 6541TIP3    H141114   3.736   0.368   2.603 -1.0134 -0.1725  0.0509
 6541TIP3    H241115   3.793   0.501   2.646 -1.4231 -0.0765  0.2992
 6542TIP3   OH241116   5.890   0.349  13.587 -0.4260  0.2621  0.3860
 6542TIP3    H141117   5.795   0.336  13.590 -0.3230 -0.3226  2.1243
 6542TIP3    H241118   5.926   0.272  13.630  0.8520  0.5204 -0.1782
 6543TIP3   OH241119   1.746   4.459  11.680 -0.3394 -0.3309  0.2527
 6543TIP3    H141120   1.819   4.497  11.729 -1.4677 -0.5553  2.2141
 6543TIP3    H241121   1.786   4.392  11.625  1.1471  0.8779 -0.2287
 6544TIP3   OH241122   0.914   1.332   5.569  0.3619  0.1982  0.2857
 6544TIP3    H141123   0.967   1.261   5.533 -1.0634 -0.9540  0.3756
 6544TIP3    H241124   0.964   1.365   5.643  0.9032 -0.9248  0.4327
 6545TIP3   OH241125   5.506   5.071  11.262 -0.0910 -0.3757  0.3426
 6545TIP3    H141126   5.568   5.143  11.248 -0.8808  0.9155  2.8526
 6545TIP3    H241127   5.488   5.038  11.174 -0.4377  3.1462 -1.0997
 6546TIP3   OH241128   3.721   5.125   0.992  0.4343 -0.1482 -0.0827
 6546TIP3    H141129   3.713   5.217   0.967  3.6914  0.5253  0.9529
 6546TIP3    H241130   3.734   5.126   1.087  2.1323 -1.4731 -0.2419
 6547TIP3   OH241131   0.552   2.999  15.276  0.4165  0.5960  0.0432
 6547TIP3    H141132   0.546   3.004  15.181 -1.2551  0.1187  0.0840
 6547TIP3    H241133   0.462   3.009  15.306  0.9403  0.9172  1.5940
 6548TIP3   OH241134   1.086   4.360  13.493  0.4701  0.4755 -0.0105
 6548TIP3    H141135   0.996   4.375  13.522  0.4217  0.8978 -0.3598
 6548TIP3    H241136   1.140   4.385  13.568  0.3371  1.3218 -0.1842
 6549TIP3   OH241137   5.648   0.278   3.892  0.8845 -0.1160 -0.4654
 6549TIP3    H141138   5.640   0.274   3.987  0.1036 -1.4523 -0.5721
 6549TIP3    H241139   5.612   0.364   3.869 -2.7491 -1.3042  0.1283
 6550TIP3   OH241140   2.641   2.160  16.686 -0.1668 -0.2588 -0.1116
 6550TIP3    H141141   2.693   2.212  16.747 -0.9547 -0.0688  0.4189
 6550TIP3    H241142   2.704   2.103  16.644  0.5874  0.5142 -0.0638
 6551TIP3   OH241143   1.755   5.604  12.409 -1.1207 -0.4080 -0.6173
 6551TIP3    H141144   1.797   5.620  12.325  0.4114  0.7259  0.3053
 6551TIP3    H241145   1.747   5.509  12.415  0.7727 -0.6393 -1.1382
 6552TIP3   OH241146   0.969   5.055   6.627  0.3845 -0.0292  0.3600
 6552TIP3    H141147   0.993   4.998   6.699  1.2618 -1.2049 -0.8089
 6552TIP3    H241148   1.042   5.117   6.619  0.1838  0.2431  0.6085
 6553TIP3   OH241149   4.023   1.816  10.479 -0.0037  0.1199 -0.1471
 6553TIP3    H141150   4.034   1.728  10.513  1.9801  0.3922  0.0393
 6553TIP3    H241151   3.993   1.804  10.389 -1.1301 -0.6864  0.3164
 6554TIP3   OH241152   4.610   1.684  12.171 -0.5599  0.2148 -0.0553
 6554TIP3    H141153   4.700   1.701  12.143 -0.3981  1.8900  1.2984
 6554TIP3    H241154   4.568   1.770  12.170 -1.3501 -0.0902  1.9071
 6555TIP3   OH241155   0.873   1.437  16.099 -0.2054  0.0817 -0.4280
 6555TIP3    H141156   0.805   1.375  16.127 -0.3541  0.7573  0.7173
 6555TIP3    H241157   0.955   1.395  16.124 -0.3323  0.6624  1.0544
 6556TIP3   OH241158   5.544   2.938  11.219 -0.1016 -0.0401  0.5750
 6556TIP3    H141159   5.548   2.843  11.210 -1.4045  0.0499 -1.7575
 6556TIP3    H241160   5.450   2.958  11.220  0.1395  1.1698  2.2216
 6557TIP3   OH241161   5.162   2.083   5.362  1.0455 -0.5255 -0.0217
 6557TIP3    H141162   5.112   2.049   5.288  0.5537  1.9749 -0.9421
 6557TIP3    H241163   5.098   2.095   5.432  1.0140 -0.4954 -0.0563
 6558TIP3   OH241164   0.586   4.887   5.270 -0.1585 -0.6300  0.2162
 6558TIP3    H141165   0.677   4.858   5.274  0.6659  1.6924  0.1557
 6558TIP3    H241166   0.589   4.978   5.299 -2.0981  0.1961 -1.8546
 6559TIP3   OH241167   6.490   2.137   5.537  0.1257 -0.0688  0.3537
 6559TIP3    H141168   6.462   2.094   5.456 -0.7656  0.5478  0.3086
 6559TIP3    H241169   6.542   2.212   5.507  0.5975 -0.3783  0.3899
 6560TIP3   OH241170   5.473   0.053   0.678  0.6040 -0.0033  0.2205
 6560TIP3    H141171   5.381   0.039   0.657  0.6979  0.0806 -0.2477
 6560TIP3    H241172   5.510  -0.036   0.684  0.5217 -0.0335  0.2922
 6561TIP3   OH241173   3.408   6.258   1.288 -0.4905  0.2364  0.1728
 6561TIP3    H141174   3.377   6.174   1.322  0.1847  0.2442  0.8112
 6561TIP3    H241175   3.393   6.320   1.359 -1.0511  0.6810 -0.3212
 6562TIP3   OH241176   4.228   2.746   1.835 -0.4072  0.7099 -0.5614
 6562TIP3    H141177   4.254   2.796   1.912  0.7971  1.6147 -1.5056
 6562TIP3    H241178   4.154   2.692   1.864 -0.0746  1.1375  1.1605
 6563TIP3   OH241179   4.937   6.218  16.818 -0.6550 -0.1699 -0.4108
 6563TIP3    H141180   4.986   6.148  16.774 -0.8819 -2.4161  2.5766
 6563TIP3    H241181   4.989   6.297  16.804  0.9208 -1.3924 -1.8760
 6564TIP3   OH241182   0.429   5.710   3.056  0.3593  0.1505 -0.2823
 6564TIP3    H141183   0.426   5.695   3.151 -0.6354  2.3151  0.1085
 6564TIP3    H241184   0.444   5.624   3.018  0.5634 -0.8101  1.8314
 6565TIP3   OH241185   6.782   1.641  10.724 -0.6348 -0.1195 -0.0446
 6565TIP3    H141186   6.750   1.731  10.721 -1.2189 -0.2978  0.6248
 6565TIP3    H241187   6.868   1.647  10.765 -1.1987  0.0065  1.1627
 6566TIP3   OH241188   1.802   1.087  14.407 -0.0414  0.2670  0.0358
 6566TIP3    H141189   1.788   1.039  14.325 -0.3859 -2.4775  1.5737
 6566TIP3    H241190   1.736   1.051  14.467 -0.6217  3.0813  1.2243
 6567TIP3   OH241191   4.012   2.657  12.725  0.2646  0.6639  0.1066
 6567TIP3    H141192   4.104   2.660  12.699  0.2986 -2.0825 -0.3686
 6567TIP3    H241193   4.009   2.593  12.797 -1.3697  0.0339 -0.4744
 6568TIP3   OH241194   0.482   0.222  14.730  0.1597  0.4598 -0.0306
 6568TIP3    H141195   0.427   0.278  14.786 -0.1711 -0.2378  0.3687
 6568TIP3    H241196   0.569   0.229  14.768 -0.1420 -0.3306  0.8538
 6569TIP3   OH241197   2.830   2.680  12.668  0.2999  0.0102 -0.0173
 6569TIP3    H141198   2.858   2.653  12.755 -1.1446  0.4486  0.6226
 6569TIP3    H241199   2.775   2.758  12.683 -0.5122 -0.2823 -1.2405
 6570TIP3   OH241200   0.343   0.834   4.945 -0.3248 -0.9551 -0.2028
 6570TIP3    H141201   0.345   0.880   4.861  1.0124 -0.0139  0.3093
 6570TIP3    H241202   0.349   0.903   5.011 -2.3681 -1.5913  0.7489
 6571TIP3   OH241203   6.801   6.113  15.960  0.0930 -0.5278  0.0703
 6571TIP3    H141204   6.712   6.106  15.925  0.5540  2.1690 -1.9292
 6571TIP3    H241205   6.796   6.185  16.023  0.9411 -0.0285 -0.4189
 6572TIP3   OH241206   2.032   2.400   2.193  0.6814 -0.0403 -0.3181
 6572TIP3    H141207   2.058   2.384   2.102  2.1959 -1.4290  0.2981
 6572TIP3    H241208   1.964   2.335   2.210  1.0663 -0.4244 -0.2085
 6573TIP3   OH241209   1.469   1.794   1.403 -0.0829  0.3379  0.4318
 6573TIP3    H141210   1.385   1.805   1.446  0.2053 -0.0592  1.1053
 6573TIP3    H241211   1.448   1.793   1.310 -1.3821 -3.9379  0.5841
 6574TIP3   OH241212   3.558   6.456   4.384 -0.2135 -0.6944 -0.5039
 6574TIP3    H141213   3.622   6.384   4.378  1.8389  0.9083  0.7237
 6574TIP3    H241214   3.507   6.436   4.463  1.5156  0.0101  0.8540
 6575TIP3   OH241215   2.676   2.402   6.002 -0.1020 -0.0252 -0.4780
 6575TIP3    H141216   2.588   2.382   6.034 -0.2427 -0.7074 -1.2385
 6575TIP3    H241217   2.733   2.338   6.045  0.0562  0.5268  0.1469
 6576TIP3   OH241218   3.437   5.009  13.617 -0.1494 -0.0071  0.0966
 6576TIP3    H141219   3.517   5.056  13.642  1.0837 -1.5540 -0.8001
 6576TIP3    H241220   3.368   5.050  13.670  1.4048  0.6468  1.7144
 6577TIP3   OH241221   1.826   4.533   4.638  0.4397  0.7709 -0.0842
 6577TIP3    H141222   1.903   4.501   4.592  0.9853 -0.2454  1.4438
 6577TIP3    H241223   1.856   4.613   4.681  1.1060 -0.3357  1.6214
 6578TIP3   OH241224   5.204   5.807  14.640  0.3543 -0.0328  0.5369
 6578TIP3    H141225   5.120   5.764  14.626  0.6427 -0.0865 -1.2725
 6578TIP3    H241226   5.249   5.750  14.702 -0.6987 -0.3374  1.0443
 6579TIP3   OH241227   2.021   2.530  13.650  0.3828 -0.2589 -0.4102
 6579TIP3    H141228   1.930   2.530  13.681  0.6301  0.8434  0.3927
 6579TIP3    H241229   2.020   2.590  13.576  0.4697 -0.1370 -0.3140
 6580TIP3   OH241230   0.730   5.152   2.853 -0.5347  0.7568  0.0971
 6580TIP3    H141231   0.764   5.189   2.771 -2.0334  1.6710 -0.1539
 6580TIP3    H241232   0.789   5.184   2.921  0.3357  0.5390 -0.5412
 6581TIP3   OH241233   3.462   2.403  15.932  0.4204 -0.2772  0.2164
 6581TIP3    H141234   3.489   2.337  15.995 -0.6868 -0.2921  0.7040
 6581TIP3    H241235   3.475   2.486  15.977 -2.2131 -0.3568  1.2748
 6582TIP3   OH241236   5.725   6.831   3.879 -0.0451 -0.2452  0.4032
 6582TIP3    H141237   5.676   6.913   3.884 -0.7832 -0.7245  1.4847
 6582TIP3    H241238   5.765   6.821   3.965  1.8582  0.0401 -0.4039
 6583TIP3   OH241239   3.922   2.124  15.736 -0.2878  0.4231 -0.2509
 6583TIP3    H141240   3.954   2.182  15.667 -0.1785 -0.3108 -0.8368
 6583TIP3    H241241   3.853   2.174  15.780 -0.2291  0.9728 -0.7780
 6584TIP3   OH241242   1.346   6.242   3.718  0.0757  0.0099 -0.0568
 6584TIP3    H141243   1.252   6.222   3.722  0.1537 -0.4523 -0.5478
 6584TIP3    H241244   1.354   6.324   3.767 -1.0951  1.8825 -2.7397
 6585TIP3   OH241245   0.804   1.815  13.839 -0.4055 -0.4373  0.6443
 6585TIP3    H141246   0.764   1.785  13.757 -0.9662  1.1129  0.3133
 6585TIP3    H241247   0.733   1.859  13.886  0.1604 -0.4308  1.5206
 6586TIP3   OH241248   3.802   2.675  13.978 -0.8482 -0.0090  0.3027
 6586TIP3    H141249   3.799   2.666  14.073 -1.0783  1.1705  0.4185
 6586TIP3    H241250   3.718   2.641  13.948  0.3048 -3.1918  0.2065
 6587TIP3   OH241251   2.701   4.035  13.909  0.1509 -0.3633 -0.2161
 6587TIP3    H141252   2.750   4.115  13.923 -0.7781  0.2688 -0.4591
 6587TIP3    H241253   2.673   4.039  13.818 -0.2696 -0.7502 -0.1108
 6588TIP3   OH241254   4.812   2.338  15.830  0.1868 -0.4346 -0.3543
 6588TIP3    H141255   4.835   2.410  15.772  3.0129 -1.5270 -0.7415
 6588TIP3    H241256   4.802   2.263  15.772 -1.6277 -0.6586  0.1700
 6589TIP3   OH241257   4.164   3.964   3.003 -0.4857 -0.0712  0.0525
 6589TIP3    H141258   4.209   4.048   2.995 -1.2052  0.5212  1.7365
 6589TIP3    H241259   4.202   3.909   2.934  1.6290  0.9151  0.3686
 6590TIP3   OH241260   6.110   4.370   2.087 -0.0320 -0.3610 -0.5530
 6590TIP3    H141261   6.018   4.353   2.108 -0.5083 -1.7415 -3.3617
 6590TIP3    H241262   6.107   4.429   2.011  1.3797 -0.7500 -0.9394
 6591TIP3   OH241263   1.576   4.987  12.119  0.0461  0.3023 -0.1214
 6591TIP3    H141264   1.573   4.898  12.083 -0.6824  0.7949 -1.3513
 6591TIP3    H241265   1.526   4.981  12.201 -1.2835 -0.1273 -0.9275
 6592TIP3   OH241266   5.155   3.795  14.090 -0.1136  0.2067 -0.2769
 6592TIP3    H141267   5.232   3.807  14.145 -1.1101  0.5262  1.1068
 6592TIP3    H241268   5.161   3.866  14.026 -0.3265  1.5493  1.1324
 6593TIP3   OH241269   4.636   4.592   0.590 -0.3509  0.3592 -0.0788
 6593TIP3    H141270   4.647   4.674   0.639 -0.5172  1.1826 -1.3908
 6593TIP3    H241271   4.581   4.538   0.647  0.5689  0.7654  1.2351
 6594TIP3   OH241272   2.625   2.735   3.848  0.4290 -0.3059 -0.6908
 6594TIP3    H141273   2.622   2.814   3.794  2.0385  1.2710  1.3617
 6594TIP3    H241274   2.715   2.703   3.837  0.2384 -0.9683 -0.3013
 6595TIP3   OH241275   0.150   5.232  13.459  0.2324  0.3689 -0.2967
 6595TIP3    H141276   0.102   5.264  13.383  1.5198 -0.3496 -1.4548
 6595TIP3    H241277   0.194   5.310  13.494 -1.0295  0.8597  0.2442
 6596TIP3   OH241278   3.803   3.206   6.015 -0.4054  0.5744  0.2343
 6596TIP3    H141279   3.768   3.259   6.087 -0.1926  0.7033  0.2425
 6596TIP3    H241280   3.815   3.267   5.943 -1.8270  0.2208 -0.3427
 6597TIP3   OH241281   3.546   6.218  14.371 -0.1179 -0.6240 -0.0801
 6597TIP3    H141282   3.616   6.157  14.396  0.5008  0.3713  0.6893
 6597TIP3    H241283   3.539   6.208  14.276  2.9944  1.1376 -0.6623
 6598TIP3   OH241284   1.410   3.983   5.141  0.6672 -0.1107 -0.2071
 6598TIP3    H141285   1.389   4.037   5.065  0.7766 -1.9195 -1.5875
 6598TIP3    H241286   1.342   4.004   5.205  0.8474  1.8112 -0.5684
 6599TIP3   OH241287   0.922   0.531   1.752  1.0077  0.5376 -0.3909
 6599TIP3    H141288   0.969   0.450   1.768 -1.0692 -0.2124  3.2164
 6599TIP3    H241289   0.975   0.599   1.794  1.2607  0.5393 -0.7115
 6600TIP3   OH241290   3.671   3.402  13.780 -0.4367  0.4623  0.5558
 6600TIP3    H141291   3.593   3.453  13.802 -0.7313  0.7184 -0.9253
 6600TIP3    H241292   3.653   3.315  13.815 -0.9544  0.7794  1.0998
 6601TIP3   OH241293   1.490   1.805   2.605 -0.2151  0.3672  0.3243
 6601TIP3    H141294   1.422   1.768   2.662  0.0559 -2.5547 -1.0594
 6601TIP3    H241295   1.572   1.768   2.639  0.2029  0.5180 -0.5002
 6602TIP3   OH241296   4.824   4.069   3.237 -0.0428 -0.3587  0.1130
 6602TIP3    H141297   4.824   4.025   3.322 -0.9963 -0.0399  0.2823
 6602TIP3    H241298   4.736   4.104   3.227  0.9575  2.5175  0.4922
 6603TIP3   OH241299   0.753   0.360  12.971 -0.0616 -0.4897  0.5107
 6603TIP3    H141300   0.780   0.364  13.062  0.1377 -1.0787  0.4876
 6603TIP3    H241301   0.659   0.377  12.972  0.1243  0.5382  0.7085
 6604TIP3   OH241302   0.599   3.107   1.290 -0.2725  0.4880 -0.3670
 6604TIP3    H141303   0.571   3.171   1.356  1.3063  0.6536  0.1771
 6604TIP3    H241304   0.619   3.160   1.212  0.0630  0.5341 -0.2467
 6605TIP3   OH241305   4.964   4.458  14.462 -0.1915  0.2735 -0.0179
 6605TIP3    H141306   5.017   4.479  14.539 -0.5412 -1.0560  0.6223
 6605TIP3    H241307   4.899   4.396  14.495 -1.7426  1.3643 -0.9253
 6606TIP3   OH241308   6.079   6.356   6.382  0.1076 -0.3539  0.0964
 6606TIP3    H141309   5.999   6.346   6.332  0.0140 -2.7460  0.6049
 6606TIP3    H241310   6.148   6.325   6.324  0.8323  2.3852 -0.6142
 6607TIP3   OH241311   4.401   6.301   3.422  0.6031  0.0092  0.3045
 6607TIP3    H141312   4.361   6.269   3.503 -0.8934  4.3919  1.6002
 6607TIP3    H241313   4.495   6.298   3.439  0.3495 -0.1146  1.8526
 6608TIP3   OH241314   5.468   1.536   2.397  0.4057  0.0843 -0.0587
 6608TIP3    H141315   5.393   1.554   2.341  0.1484 -1.2709 -0.1680
 6608TIP3    H241316   5.493   1.622   2.432 -2.0144  0.4178  1.0291
 6609TIP3   OH241317   1.602   6.485  15.978 -0.7341 -0.5385 -0.7039
 6609TIP3    H141318   1.583   6.523  16.064  1.2554 -0.7314 -0.1295
 6609TIP3    H241319   1.691   6.514  15.958  0.0680 -3.1132 -1.2124
 6610TIP3   OH241320   3.796   0.198  16.523  0.3618 -0.4132  0.0946
 6610TIP3    H141321   3.739   0.123  16.503 -0.7160  0.5757 -0.6674
 6610TIP3    H241322   3.780   0.259  16.451 -0.6822  1.6223  1.9334
 6611TIP3   OH241323   4.872   4.044   5.656  0.0310 -0.0809 -0.2375
 6611TIP3    H141324   4.866   4.136   5.682  0.5990 -0.4095  1.1685
 6611TIP3    H241325   4.956   4.014   5.691  0.7307 -0.6839 -2.2661
 6612TIP3   OH241326   6.260   0.237   3.888 -0.0792  0.0666 -0.8662
 6612TIP3    H141327   6.213   0.296   3.947  0.0940 -0.4987 -0.1483
 6612TIP3    H241328   6.212   0.155   3.892  0.3142 -0.1744 -0.9991
 6613TIP3   OH241329   2.292   2.862  13.374  0.3233 -0.5263 -0.1950
 6613TIP3    H141330   2.244   2.858  13.292 -0.9206 -0.9900  0.5243
 6613TIP3    H241331   2.298   2.955  13.395 -2.2234 -0.4947  0.7682
 6614TIP3   OH241332   6.394   2.668  12.041 -0.1285 -0.3979  0.4724
 6614TIP3    H141333   6.368   2.700  12.128 -1.3380 -1.4080  0.5120
 6614TIP3    H241334   6.312   2.642  12.000  0.5001 -0.4520 -0.7717
 6615TIP3   OH241335   2.000   3.546  11.413 -0.5648  0.0797  0.3154
 6615TIP3    H141336   1.985   3.567  11.321 -0.2166 -0.8781  0.0304
 6615TIP3    H241337   1.935   3.599  11.461 -0.9837  0.3135 -0.4963
 6616TIP3   OH241338   6.686   1.056   6.450  0.2955  0.0763 -0.2972
 6616TIP3    H141339   6.704   1.135   6.501  2.9685 -1.3914  1.2937
 6616TIP3    H241340   6.617   1.011   6.498 -0.2908  0.7793 -0.4678
 6617TIP3   OH241341   1.422   4.916  11.158 -0.0014  0.3919 -0.9183
 6617TIP3    H141342   1.333   4.933  11.125  0.2249  3.1745 -0.4060
 6617TIP3    H241343   1.409   4.879  11.245 -0.6852  0.9788 -0.7595
 6618TIP3   OH241344   4.524   1.912   5.166 -0.3579 -0.6452  0.6824
 6618TIP3    H141345   4.457   1.890   5.102  0.4026 -1.4896  0.1326
 6618TIP3    H241346   4.487   1.982   5.218 -0.7440  0.5647 -1.1276
 6619TIP3   OH241347   3.031   1.767   0.238  0.1530 -0.0393  0.0909
 6619TIP3    H141348   2.951   1.813   0.213  0.1308  0.2244  0.6333
 6619TIP3    H241349   3.043   1.700   0.170 -1.3234 -1.0361  0.7602
 6620TIP3   OH241350   5.458   1.080  17.003  0.4533 -0.1700  0.9572
 6620TIP3    H141351   5.417   1.133  17.071  0.6708  0.2731  0.7462
 6620TIP3    H241352   5.384   1.040  16.957  0.2579 -3.8200  3.9527
 6621TIP3   OH241353   1.870   1.087  13.213  0.1526 -0.0870 -0.3569
 6621TIP3    H141354   1.885   1.119  13.124  0.1765  0.6505 -0.0899
 6621TIP3    H241355   1.860   1.166  13.266  2.5912 -0.4420  0.7462
 6622TIP3   OH241356   4.741   0.399   2.224 -0.0224 -0.1518  0.3836
 6622TIP3    H141357   4.664   0.456   2.214  0.4396  0.3933 -0.0970
 6622TIP3    H241358   4.790   0.438   2.297 -0.1391 -0.4403  0.6214
 6623TIP3   OH241359   0.728   6.171   3.616 -0.3961 -0.4954  0.4800
 6623TIP3    H141360   0.648   6.223   3.617 -0.4907 -0.6365  1.1151
 6623TIP3    H241361   0.732   6.134   3.528 -0.1450  0.8370 -0.0908
 6624TIP3   OH241362   5.539   1.964   0.932  0.6558 -0.2097 -0.1316
 6624TIP3    H141363   5.625   1.989   0.967  0.4271  0.8490 -0.2867
 6624TIP3    H241364   5.546   1.870   0.916  0.4412 -1.0496  3.7232
 6625TIP3   OH241365   1.861   4.255  11.288 -0.1807 -0.2874  0.7412
 6625TIP3    H141366   1.890   4.310  11.216  1.3131 -0.2336  1.3569
 6625TIP3    H241367   1.927   4.267  11.356  0.0535 -2.6127  1.0161
 6626TIP3   OH241368   1.126   6.127  16.931  0.4161  0.8253  0.3486
 6626TIP3    H141369   1.100   6.102  16.842 -0.5815  0.6628  0.6722
 6626TIP3    H241370   1.153   6.218  16.924  0.6369  0.7269 -0.1681
 6627TIP3   OH241371   6.296   3.767  16.878  0.3082 -0.1935 -0.2510
 6627TIP3    H141372   6.256   3.690  16.839 -0.4182  0.0511 -0.0029
 6627TIP3    H241373   6.364   3.732  16.936 -1.0821 -0.7674  1.1217
 6628TIP3   OH241374   4.049   3.676  13.373  0.3680  0.3814  0.6644
 6628TIP3    H141375   3.963   3.647  13.344  0.6547  1.2855 -1.2438
 6628TIP3    H241376   4.106   3.600  13.360  0.3078  0.4992 -0.3667
 6629TIP3   OH241377   5.612   1.256   2.405 -0.0228  0.2918  0.4910
 6629TIP3    H141378   5.583   1.344   2.378  2.6039  1.6014  1.4955
 6629TIP3    H241379   5.687   1.238   2.347 -1.6236 -2.2197 -0.9873
 6630TIP3   OH241380   0.211   0.043   3.771 -0.3673  0.2020 -0.5960
 6630TIP3    H141381   0.217  -0.008   3.691  0.2992  1.0041 -1.0663
 6630TIP3    H241382   0.254   0.126   3.751  0.0692  0.3103  0.6759
 6631TIP3   OH241383   0.054   0.541   5.371 -0.8791  0.0711 -0.0756
 6631TIP3    H141384   0.133   0.593   5.389 -1.6066  1.2868 -0.3206
 6631TIP3    H241385   0.085   0.450   5.374  0.0088  0.3671  2.4945
 6632TIP3   OH241386   6.657   6.731   2.266 -0.0866  0.0075  0.3727
 6632TIP3    H141387   6.615   6.785   2.199  0.0480  0.2823  0.5052
 6632TIP3    H241388   6.638   6.641   2.241 -2.2162  0.1288  1.3403
 6633TIP3   OH241389   3.576   4.517  17.004 -0.5562 -0.0237 -0.8493
 6633TIP3    H141390   3.646   4.557  17.055 -0.0522 -0.7642 -0.9495
 6633TIP3    H241391   3.526   4.591  16.969 -0.9599  0.4896  0.7592
 6634TIP3   OH241392   5.707   0.788   4.149  0.0209 -0.3404  0.1757
 6634TIP3    H141393   5.783   0.795   4.207 -0.0605  2.0942  0.0950
 6634TIP3    H241394   5.733   0.723   4.084  0.9798 -1.4948  1.6295
 6635TIP3   OH241395   5.925   6.598  11.613  0.3236 -0.9565 -0.2191
 6635TIP3    H141396   5.861   6.666  11.595  2.3974  1.1151 -0.2278
 6635TIP3    H241397   5.903   6.566  11.701 -0.7385 -0.3528 -0.2588
 6636TIP3   OH241398   0.107   4.672  14.577  0.0206  0.7114  0.1469
 6636TIP3    H141399   0.187   4.673  14.630 -0.7705 -0.2450  1.4124
 6636TIP3    H241400   0.132   4.631  14.495  1.1276  1.6392  0.0002
 6637TIP3   OH241401   3.877   5.413   5.233  0.0604  0.1789  0.3080
 6637TIP3    H141402   3.901   5.336   5.284 -0.7523  0.3705  0.9993
 6637TIP3    H241403   3.948   5.475   5.249  1.0626 -0.6422 -0.7912
 6638TIP3   OH241404   6.354   3.198  13.375  0.4202 -0.7871 -0.0971
 6638TIP3    H141405   6.414   3.217  13.303  0.7742 -1.1644  0.0903
 6638TIP3    H241406   6.268   3.189  13.334 -0.1143  2.7944 -0.0179
 6639TIP3   OH241407   0.591   0.923   5.146  0.2519 -0.7471 -0.4806
 6639TIP3    H141408   0.523   0.986   5.167  1.2804  0.0825  0.4603
 6639TIP3    H241409   0.582   0.854   5.211  1.1961  0.0770  0.5554
 6640TIP3   OH241410   3.451   5.346   0.249 -0.7037  0.6070 -0.0709
 6640TIP3    H141411   3.464   5.268   0.303 -1.4039 -1.5582 -2.8135
 6640TIP3    H241412   3.356   5.349   0.235 -0.8244  2.6730  0.8976
 6641TIP3   OH241413   4.506   5.076   3.036  0.7097  0.7250  0.2140
 6641TIP3    H141414   4.419   5.110   3.016  0.6457 -0.3437 -1.5657
 6641TIP3    H241415   4.557   5.154   3.059 -0.3551  1.5414 -0.0732
 6642TIP3   OH241416   2.623   6.293   3.247 -0.3449 -0.0279  0.5059
 6642TIP3    H141417   2.590   6.334   3.326 -0.2626  1.6090 -0.2664
 6642TIP3    H241418   2.688   6.355   3.213 -0.1820 -0.8174 -0.6919
 6643TIP3   OH241419   0.254   2.271  11.353  0.1278 -0.4912  0.4125
 6643TIP3    H141420   0.210   2.341  11.304  0.2169 -1.8222 -1.7187
 6643TIP3    H241421   0.188   2.241  11.416 -0.2283  0.8566  0.7211
 6644TIP3   OH241422   3.824   4.247   3.493  0.2748 -0.0538  0.0759
 6644TIP3    H141423   3.822   4.341   3.511 -0.3514  0.3746 -1.9133
 6644TIP3    H241424   3.740   4.215   3.526  0.1948  0.2167  0.1371
 6645TIP3   OH241425   3.945   4.974  11.769 -0.0747  0.1126  0.1722
 6645TIP3    H141426   3.867   4.939  11.725 -0.6426  0.5066  0.8436
 6645TIP3    H241427   3.958   5.061  11.731 -0.6065  0.4809  0.8201
 6646TIP3   OH241428   2.992   6.044  15.492  0.2957  0.3690  0.3033
 6646TIP3    H141429   2.924   6.111  15.497 -0.8029 -0.6132 -0.7502
 6646TIP3    H241430   3.037   6.060  15.409 -1.0473 -1.1124 -0.7784
 6647TIP3   OH241431   6.298   1.714  16.284  0.5370 -0.2031  0.1189
 6647TIP3    H141432   6.358   1.690  16.214 -0.3415  0.0244 -0.7355
 6647TIP3    H241433   6.282   1.632  16.331  1.9992 -0.1387  0.7658
 6648TIP3   OH241434   0.262   3.371   2.402  0.4599 -0.1855  0.0393
 6648TIP3    H141435   0.226   3.385   2.490  0.3027  0.1641 -0.0788
 6648TIP3    H241436   0.309   3.453   2.382 -0.3018  0.1097 -0.5814
 6649TIP3   OH241437   4.810   1.989   3.162 -0.2066 -0.1044  0.7018
 6649TIP3    H141438   4.896   2.025   3.184 -0.7586  1.3236  0.6649
 6649TIP3    H241439   4.764   1.984   3.245  0.5934 -2.9895  1.0904
 6650TIP3   OH241440   2.510   5.713  16.406 -0.0448 -0.3337  0.0445
 6650TIP3    H141441   2.600   5.698  16.435  0.4181 -0.3045 -1.2826
 6650TIP3    H241442   2.493   5.642  16.344 -1.7925 -1.7273  1.9973
 6651TIP3   OH241443   2.316   6.695  11.681 -0.3228 -0.3339 -0.3698
 6651TIP3    H141444   2.245   6.739  11.635  0.1196  0.1700 -0.5795
 6651TIP3    H241445   2.388   6.694  11.618  0.1815  0.0658  0.1922
 6652TIP3   OH241446   0.152   3.097  11.732 -0.3977  0.0869  0.3338
 6652TIP3    H141447   0.092   3.116  11.805 -1.3125 -2.0271  0.1798
 6652TIP3    H241448   0.110   3.136  11.656 -0.4911  0.4749  0.5808
 6653TIP3   OH241449   1.251   5.253   6.199 -0.5242 -0.4724 -0.4933
 6653TIP3    H141450   1.179   5.200   6.235  0.3556 -2.3965 -1.4124
 6653TIP3    H241451   1.234   5.255   6.105  0.2427 -0.3254 -0.6297
 6654TIP3   OH241452   3.556   3.979   4.783  0.3104  0.1993  0.3262
 6654TIP3    H141453   3.576   4.053   4.841  1.3695  1.4646 -1.5287
 6654TIP3    H241454   3.525   4.020   4.702 -0.4701 -1.4703 -0.2560
 6655TIP3   OH241455   0.742   1.543   5.727 -0.4279 -0.4827 -0.8772
 6655TIP3    H141456   0.761   1.451   5.710  1.4718 -0.0144 -1.5262
 6655TIP3    H241457   0.772   1.589   5.648 -0.4398  0.7881 -0.1773
 6656TIP3   OH241458   3.722   2.636   3.368  0.2331 -0.4001  0.0454
 6656TIP3    H141459   3.630   2.661   3.375  0.8705  1.7098  2.0563
 6656TIP3    H241460   3.737   2.626   3.274 -1.8528 -0.0961 -0.3649
 6657TIP3   OH241461   6.396   2.888   5.150 -0.3836  0.0999  0.0544
 6657TIP3    H141462   6.437   2.955   5.205 -0.5354  0.0950  0.1716
 6657TIP3    H241463   6.447   2.891   5.068  0.3640 -0.4560  0.4823
 6658TIP3   OH241464   0.656   6.592  12.055  0.0366  0.0109  0.1144
 6658TIP3    H141465   0.624   6.625  11.971  0.9162 -0.6777 -0.5152
 6658TIP3    H241466   0.586   6.536  12.087 -0.9688  1.5237  0.6201
 6659TIP3   OH241467   4.697   5.885   4.570  0.2032  0.0606  0.3167
 6659TIP3    H141468   4.779   5.923   4.601  1.3028 -0.5853 -1.5913
 6659TIP3    H241469   4.721   5.842   4.487 -2.3411  1.1303 -1.0952
 6660TIP3   OH241470   5.794   3.963  15.865 -0.0699  0.0750  0.0698
 6660TIP3    H141471   5.813   4.004  15.949 -0.0105  0.1994 -0.0041
 6660TIP3    H241472   5.794   3.869  15.883  1.6958  0.0003 -0.1417
 6661TIP3   OH241473   0.757   3.949   2.577  0.2628 -0.3614 -0.5464
 6661TIP3    H141474   0.679   3.903   2.610 -0.3777 -0.4527 -2.1179
 6661TIP3    H241475   0.725   4.035   2.551  1.1102  0.3535  0.6749
 6662TIP3   OH241476   1.478   2.881  16.291  0.2826 -0.0653  0.4480
 6662TIP3    H141477   1.459   2.788  16.295 -2.5708  0.3116 -1.4877
 6662TIP3    H241478   1.528   2.892  16.210 -2.9467  0.4263 -1.6541
 6663TIP3   OH241479   2.817   0.352   3.254  0.2488  0.3105 -0.0309
 6663TIP3    H141480   2.891   0.296   3.231 -0.3483 -1.2222  1.5444
 6663TIP3    H241481   2.744   0.316   3.204  0.2712  0.9471 -0.5275
 6664TIP3   OH241482   1.070   5.205   1.225 -0.3134  0.1072 -0.1533
 6664TIP3    H141483   1.061   5.110   1.225 -1.3147  0.1854  0.8843
 6664TIP3    H241484   0.979   5.238   1.223 -0.0181  1.0239  0.6321
 6665TIP3   OH241485   2.300   6.327  16.822 -0.4516 -0.1774  0.1691
 6665TIP3    H141486   2.218   6.376  16.837 -1.1838 -0.7757 -1.6121
 6665TIP3    H241487   2.280   6.269  16.749  1.7158 -0.0369 -0.5990
 6666TIP3   OH241488   1.870   1.282   0.147 -0.5066 -0.3814 -0.0739
 6666TIP3    H141489   1.946   1.273   0.205  0.0614  2.3841 -0.2538
 6666TIP3    H241490   1.795   1.264   0.203  0.2131 -3.0645  0.1374
 6667TIP3   OH241491   6.441   5.056   5.588  0.1458  0.4340  0.9869
 6667TIP3    H141492   6.383   4.994   5.631  0.0199  0.1051  0.3618
 6667TIP3    H241493   6.529   5.021   5.603 -0.0084 -0.8130 -0.7196
 6668TIP3   OH241494   6.707   0.811  13.441 -0.2547  0.5943  0.7862
 6668TIP3    H141495   6.793   0.783  13.409  0.2737  1.7552  1.1390
 6668TIP3    H241496   6.709   0.906  13.435 -1.1873  0.6843  1.6371
 6669TIP3   OH241497   4.046   0.594  11.603 -0.1907 -0.4214 -0.6603
 6669TIP3    H141498   3.964   0.557  11.573  0.6033 -2.0684 -0.8954
 6669TIP3    H241499   4.067   0.546  11.683  1.4286 -1.3548 -1.5936
 6670TIP3   OH241500   4.910   6.371  11.341  0.9609  0.7973  0.4067
 6670TIP3    H141501   4.919   6.383  11.246 -0.0783 -0.2646  0.1482
 6670TIP3    H241502   4.968   6.298  11.362  1.6331  1.4066  0.6994
 6671TIP3   OH241503   0.742   4.130   5.659 -0.0146 -0.1083  0.3468
 6671TIP3    H141504   0.760   4.210   5.709 -2.1743 -0.6228  2.1124
 6671TIP3    H241505   0.794   4.063   5.702  2.2342  0.3617 -1.4807
 6672TIP3   OH241506   3.220   6.316  13.944  0.1897 -0.4047  0.6058
 6672TIP3    H141507   3.236   6.344  13.854 -1.7023  2.6462  1.0884
 6672TIP3    H241508   3.294   6.351  13.994 -0.1954  0.4067  0.6217
 6673TIP3   OH241509   2.044   6.017  11.299 -0.1405  0.7530  0.1417
 6673TIP3    H141510   2.062   6.111  11.299  0.3230  0.6762  1.1829
 6673TIP3    H241511   1.956   6.010  11.336 -0.8385  0.8616 -1.4014
 6674TIP3   OH241512   3.411   1.648   6.286  0.1007  0.1111 -0.2872
 6674TIP3    H141513   3.402   1.716   6.352  0.1114  0.2565 -0.4366
 6674TIP3    H241514   3.504   1.648   6.264  0.6322 -1.6439  1.5293
 6675TIP3   OH241515   1.864   3.321  11.153 -0.2612 -0.7426 -0.4875
 6675TIP3    H141516   1.920   3.397  11.134 -1.6754  0.2094 -1.0182
 6675TIP3    H241517   1.780   3.342  11.111 -0.6364 -2.7003 -0.8128
 6676TIP3   OH241518   4.503   0.454   3.130 -0.1908  0.5367 -0.1903
 6676TIP3    H141519   4.506   0.416   3.218 -0.7518  0.5090 -0.1766
 6676TIP3    H241520   4.428   0.411   3.088 -0.8332  1.6135 -0.1784
 6677TIP3   OH241521   6.441   2.679   3.805 -0.1397 -0.9913 -0.0878
 6677TIP3    H141522   6.419   2.734   3.881 -1.0839 -0.8755 -0.4352
 6677TIP3    H241523   6.480   2.739   3.742 -0.8477 -0.7800 -0.3290
 6678TIP3   OH241524   4.598   2.481  10.854 -0.0130  0.2031 -0.5063
 6678TIP3    H141525   4.531   2.413  10.857  0.9272 -0.7349 -0.0660
 6678TIP3    H241526   4.620   2.490  10.761 -0.5074  0.2661 -0.6156
 6679TIP3   OH241527   5.593   4.565  15.906 -0.1051 -0.5228 -0.0019
 6679TIP3    H141528   5.559   4.651  15.883 -0.0939 -0.2846  0.8204
 6679TIP3    H241529   5.628   4.530  15.825  0.1120  0.3504 -0.2974
 6680TIP3   OH241530   4.125   4.877  11.956 -0.0926 -0.7446 -0.4186
 6680TIP3    H141531   4.091   4.807  12.012 -0.6907  0.0667  0.2376
 6680TIP3    H241532   4.062   4.884  11.885 -1.0178  0.3544  0.4838
 6681TIP3   OH241533   6.173   5.109   4.992 -0.7404 -0.2499  0.2371
 6681TIP3    H141534   6.207   5.188   5.035 -0.4792 -0.2798  0.0885
 6681TIP3    H241535   6.126   5.063   5.061  1.0120 -1.1013  0.9378
 6682TIP3   OH241536   2.345   0.527  14.691 -0.0373 -0.1593  0.0378
 6682TIP3    H141537   2.274   0.585  14.666  0.4136  0.4521  0.1629
 6682TIP3    H241538   2.310   0.476  14.764 -0.4758 -0.1321 -0.1525
 6683TIP3   OH241539   5.896   5.520  12.780 -0.3381  0.6047  0.1498
 6683TIP3    H141540   5.986   5.486  12.781 -0.4821  0.1447 -1.0390
 6683TIP3    H241541   5.845   5.454  12.826 -0.0162  1.0415  1.1500
 6684TIP3   OH241542   3.273   5.022   0.412  0.5994 -0.5730 -0.7125
 6684TIP3    H141543   3.270   4.963   0.337  1.3462  0.5290 -1.6410
 6684TIP3    H241544   3.232   5.103   0.381  1.2015  0.0022 -0.0440
 6685TIP3   OH241545   1.684   3.174  16.935  0.0361 -0.2164  0.3014
 6685TIP3    H141546   1.635   3.239  16.885  0.0554  0.5512  1.2443
 6685TIP3    H241547   1.750   3.140  16.874  0.5570  1.2356  0.0281
 6686TIP3   OH241548   3.352   2.381   4.905  0.4594  0.2027 -0.7090
 6686TIP3    H141549   3.285   2.368   4.838 -1.0825 -0.2203  0.8384
 6686TIP3    H241550   3.334   2.468   4.941 -0.9897 -0.9475  1.5034
 6687TIP3   OH241551   4.462   6.168   3.885  0.7656  0.1652 -0.1470
 6687TIP3    H141552   4.472   6.101   3.818  0.4733  0.3598 -0.3900
 6687TIP3    H241553   4.507   6.133   3.962 -0.3424 -0.8055  0.0805
 6688TIP3   OH241554   1.636   3.191  14.070 -0.1825  0.0242  0.5207
 6688TIP3    H141555   1.698   3.264  14.066 -0.0858 -0.1176 -2.5092
 6688TIP3    H241556   1.592   3.202  14.155  1.2396  2.3967  1.0396
 6689TIP3   OH241557   3.629   2.413  11.862  0.5028 -0.0013  0.6221
 6689TIP3    H141558   3.692   2.485  11.851  0.7281 -0.2103  0.5274
 6689TIP3    H241559   3.684   2.335  11.867  0.1766 -0.4360 -1.6407
 6690TIP3   OH241560   5.489   5.299  13.201  0.9643 -0.3124  0.3441
 6690TIP3    H141561   5.503   5.381  13.153  0.6048 -0.6409 -0.3416
 6690TIP3    H241562   5.575   5.256  13.199  0.6740 -0.8869 -1.1148
 6691TIP3   OH241563   4.239   4.220   3.625  0.2281  0.0170 -0.0652
 6691TIP3    H141564   4.315   4.216   3.682 -0.5870  1.7547  1.2289
 6691TIP3    H241565   4.276   4.233   3.537  1.4487 -1.5142  0.1602
 6692TIP3   OH241566   1.392   6.166  14.328  0.6279 -0.0372 -0.5329
 6692TIP3    H141567   1.338   6.244  14.331  0.4074 -0.2003 -0.2130
 6692TIP3    H241568   1.457   6.184  14.260 -0.3019 -0.1483 -1.4707
 6693TIP3   OH241569   4.787   0.385   0.215  0.2081  0.1760 -0.0817
 6693TIP3    H141570   4.778   0.335   0.297  1.6970 -0.7102 -0.4121
 6693TIP3    H241571   4.723   0.345   0.156 -0.1752  0.1562  0.3376
 6694TIP3   OH241572   6.449   2.461  12.232  0.8985  0.0793 -0.2972
 6694TIP3    H141573   6.367   2.453  12.282  0.6569  0.0730 -0.6822
 6694TIP3    H241574   6.438   2.542  12.182  1.9476  1.1199  1.0992
 6695TIP3   OH241575   3.941   5.672  16.869  0.0725 -0.2049 -0.5177
 6695TIP3    H141576   3.864   5.627  16.903  0.7898 -2.8364 -2.0544
 6695TIP3    H241577   4.015   5.631  16.914  0.7202  0.1002 -1.2643
 6696TIP3   OH241578   5.937   1.601   4.309 -0.1691  0.3209 -0.3191
 6696TIP3    H141579   5.961   1.666   4.376 -0.0472  0.3973 -0.4351
 6696TIP3    H241580   5.897   1.653   4.239  1.2774  0.4655 -1.0697
 6697TIP3   OH241581   5.123   1.605   5.665 -0.2089  0.2651  1.0687
 6697TIP3    H141582   5.195   1.553   5.630  0.0421 -0.3219  2.4073
 6697TIP3    H241583   5.158   1.694   5.670  0.2862  0.0597  1.3110
 6698TIP3   OH241584   4.063   3.915  16.637 -0.0070  0.2900  0.6593
 6698TIP3    H141585   3.988   3.953  16.592 -0.1230  0.1127  0.6989
 6698TIP3    H241586   4.101   3.854  16.574  1.5185  2.0899 -0.2353
 6699TIP3   OH241587   4.940   4.406  12.099 -0.6045 -0.9014 -0.1105
 6699TIP3    H141588   4.979   4.390  12.185  1.8290 -1.5295 -1.2403
 6699TIP3    H241589   4.874   4.337  12.089  0.1290 -1.7392  0.6570
 6700TIP3   OH241590   0.269   0.080  16.116  0.6211  0.3017  0.1457
 6700TIP3    H141591   0.361   0.059  16.130  1.4399  2.8070 -0.9190
 6700TIP3    H241592   0.236   0.008  16.063  2.4271  0.1611 -0.8742
 6701TIP3   OH241593   1.375   3.801  12.257 -0.0792  0.0902 -0.5604
 6701TIP3    H141594   1.371   3.712  12.291  0.3001  0.7178  1.2846
 6701TIP3    H241595   1.283   3.826  12.245 -0.3194  0.2565  1.3103
 6702TIP3   OH241596   1.280   6.641  13.147  0.3156  0.6127 -0.3784
 6702TIP3    H141597   1.220   6.716  13.154 -0.8209 -0.4534  3.3088
 6702TIP3    H241598   1.358   6.669  13.196  0.1756 -0.2900  0.3848
 6703TIP3   OH241599   3.555   0.857  14.580  0.2956  0.0108  0.0070
 6703TIP3    H141600   3.482   0.817  14.533  0.8892 -1.1601  0.0216
 6703TIP3    H241601   3.627   0.856  14.517  1.0764 -1.4845  0.8559
 6704TIP3   OH241602   3.553   4.780   0.111  0.3022  0.5362 -0.2043
 6704TIP3    H141603   3.589   4.803   0.025  0.4764  1.5928  0.1418
 6704TIP3    H241604   3.579   4.852   0.168 -1.5612  0.8659  0.2873
 6705TIP3   OH241605   1.105   5.058  14.725 -0.0639  0.3682  0.0375
 6705TIP3    H141606   1.193   5.025  14.741 -0.1802  0.3628  0.6866
 6705TIP3    H241607   1.119   5.147  14.692  0.1513  1.4127  2.6935
 6706TIP3   OH241608   4.052   0.940   4.155 -0.1245  0.4238  0.3105
 6706TIP3    H141609   4.029   0.862   4.205 -0.6230  1.2159  1.3661
 6706TIP3    H241610   3.970   0.989   4.147  0.5404  1.8646  1.5673
 6707TIP3   OH241611   4.418   5.883   5.900 -0.5239 -0.0622 -0.0348
 6707TIP3    H141612   4.461   5.969   5.905  0.9919 -0.8316  0.8255
 6707TIP3    H241613   4.338   5.899   5.849  1.0249  1.3186 -2.1752
 6708TIP3   OH241614   3.450   4.454  12.150 -0.3863 -0.7609 -0.5685
 6708TIP3    H141615   3.461   4.501  12.068  0.7724 -0.5436 -0.3161
 6708TIP3    H241616   3.423   4.366  12.124 -2.4011 -0.0533 -1.0482
 6709TIP3   OH241617   5.737   3.920   3.692 -0.0247 -0.2571  0.1807
 6709TIP3    H141618   5.733   3.978   3.616  1.0177  1.5333  1.4221
 6709TIP3    H241619   5.763   3.835   3.656 -1.4670  0.0295 -1.6773
 6710TIP3   OH241620   5.849   0.051   0.570 -0.4827  0.0685 -0.0828
 6710TIP3    H141621   5.941   0.064   0.547 -0.6369  0.0544 -0.7485
 6710TIP3    H241622   5.848  -0.024   0.629 -0.0674  0.0652 -0.0823
 6711TIP3   OH241623   2.837   5.878   0.695 -0.3281 -0.1933  0.8464
 6711TIP3    H141624   2.872   5.791   0.709  1.6699  0.7235  1.9840
 6711TIP3    H241625   2.742   5.864   0.685 -0.4236 -2.2939  3.3743
 6712TIP3   OH241626   3.130   6.285  12.619 -0.3077  0.1330  0.4965
 6712TIP3    H141627   3.115   6.231  12.697  0.9150  0.0902  0.7169
 6712TIP3    H241628   3.136   6.222  12.547 -0.0820  0.0705  0.5712
 6713TIP3   OH241629   1.460   5.665   2.048  0.2459  0.2141  0.6973
 6713TIP3    H141630   1.487   5.573   2.042  1.4682  0.5576  0.5894
 6713TIP3    H241631   1.407   5.669   2.127 -1.1462 -0.8833 -0.1348
 6714TIP3   OH241632   1.326   3.624   4.025  0.4857 -0.1583 -0.0786
 6714TIP3    H141633   1.328   3.595   3.934 -0.5383 -0.7591  0.0788
 6714TIP3    H241634   1.235   3.615   4.052  0.4280  1.6309  0.5076
 6715TIP3   OH241635   5.492   4.031  14.496  0.3113  0.1298  0.5127
 6715TIP3    H141636   5.581   3.998  14.503  1.2719  2.2457 -0.7317
 6715TIP3    H241637   5.478   4.042  14.402 -1.6089 -0.9370  0.6178
 6716TIP3   OH241638   3.188   4.639   4.800  0.1342 -0.1716  0.0855
 6716TIP3    H141639   3.274   4.599   4.799  0.2427  0.0707 -0.4930
 6716TIP3    H241640   3.142   4.597   4.873  0.7104 -0.3567  0.3406
 6717TIP3   OH241641   2.445   1.808   5.344 -0.0583  0.1528  0.2387
 6717TIP3    H141642   2.410   1.719   5.337  2.0206 -0.5860 -2.3769
 6717TIP3    H241643   2.413   1.852   5.266 -0.1425  1.4048  0.9547
 6718TIP3   OH241644   1.919   1.579  12.859 -0.0948 -0.5450 -0.0872
 6718TIP3    H141645   1.871   1.630  12.793 -1.2047 -1.9059 -0.3856
 6718TIP3    H241646   1.933   1.494  12.818 -0.4063 -1.2764  1.2466
 6719TIP3   OH241647   6.302   0.170   5.188  0.2800  0.8856  0.2226
 6719TIP3    H141648   6.223   0.126   5.158  1.2672 -0.1434 -0.9527
 6719TIP3    H241649   6.271   0.227   5.259 -1.2491 -0.6646  0.8875
 6720TIP3   OH241650   1.146   1.373  14.279 -0.6112 -0.0886 -0.0703
 6720TIP3    H141651   1.085   1.373  14.205  2.0768 -1.7416 -2.4969
 6720TIP3    H241652   1.186   1.460  14.276  1.2503 -0.9035 -2.3383
 6721TIP3   OH241653   3.054   5.547  10.459  0.7384  0.6392 -1.0674
 6721TIP3    H141654   3.138   5.583  10.429  0.1135  0.8783 -2.6634
 6721TIP3    H241655   3.050   5.460  10.418  1.2394 -0.3967  0.9536
 6722TIP3   OH241656   2.920   4.717   3.721  0.6604 -0.5045 -0.5816
 6722TIP3    H141657   2.848   4.778   3.741  1.0185 -0.0203 -0.7622
 6722TIP3    H241658   2.893   4.635   3.762 -0.9506 -0.9064 -2.3088
 6723TIP3   OH241659   6.006   4.383  15.033  0.3227  0.1715  0.5143
 6723TIP3    H141660   6.018   4.477  15.047  0.8287  0.1478  0.2691
 6723TIP3    H241661   5.913   4.368  15.049 -0.0307  0.9411 -0.6654
 6724TIP3   OH241662   6.432   3.326  11.427 -0.5220  0.0714 -0.8521
 6724TIP3    H141663   6.508   3.323  11.485 -0.7814 -0.7652 -0.5392
 6724TIP3    H241664   6.454   3.394  11.363  0.0594  0.5286 -0.1872
 6725TIP3   OH241665   6.249   1.584  12.345 -0.1328  0.1506 -0.0803
 6725TIP3    H141666   6.258   1.679  12.347  0.2679  0.1061  0.4554
 6725TIP3    H241667   6.154   1.569  12.348 -0.3241  0.5602 -2.3238
 6726TIP3   OH241668   3.695   1.769  14.955 -0.3096 -0.2786  0.2236
 6726TIP3    H141669   3.617   1.713  14.956 -1.2769  1.0267  0.4804
 6726TIP3    H241670   3.701   1.804  15.044 -1.6717  2.5487 -0.6645
 6727TIP3   OH241671   1.778   6.651   6.404  0.5210  0.2889  0.1189
 6727TIP3    H141672   1.716   6.712   6.365 -1.3499 -0.7160  1.3935
 6727TIP3    H241673   1.756   6.566   6.366 -1.0697 -0.6395  2.8498
 6728TIP3   OH241674   3.057   4.132  15.207  0.1864  0.2869 -0.6860
 6728TIP3    H141675   3.109   4.188  15.265 -0.7051 -1.3768  1.9003
 6728TIP3    H241676   2.980   4.186  15.185 -0.3425  0.3885  1.2204
 6729TIP3   OH241677   5.154   3.648  14.338 -0.3933 -0.0479 -0.5038
 6729TIP3    H141678   5.080   3.683  14.287 -1.1329 -1.1554 -0.2146
 6729TIP3    H241679   5.120   3.640  14.427  0.0707 -0.5952 -0.3719
 6730TIP3   OH241680   1.450   6.600   4.364  0.3615 -0.1783  0.6058
 6730TIP3    H141681   1.468   6.518   4.318 -0.7759 -0.4905  0.6703
 6730TIP3    H241682   1.425   6.661   4.294 -0.8295 -0.4964  0.7328
 6731TIP3   OH241683   4.015   0.592  12.823 -0.5009  0.3290 -0.0407
 6731TIP3    H141684   4.070   0.668  12.846  1.1896 -0.6994 -0.4889
 6731TIP3    H241685   3.967   0.620  12.746 -2.1554  1.9364  1.4768
 6732TIP3   OH241686   1.037   5.850   0.678 -0.4032  0.0241 -0.2468
 6732TIP3    H141687   1.092   5.852   0.756  1.6062  0.1898 -1.5661
 6732TIP3    H241688   1.030   5.942   0.652  1.6424 -0.1984 -1.9246
 6733TIP3   OH241689   5.029   6.069   5.814  0.3985  0.2902 -0.7360
 6733TIP3    H141690   5.064   6.017   5.886  0.4325 -0.6548 -1.4228
 6733TIP3    H241691   4.939   6.038   5.803  0.3228  0.5799 -0.9646
 6734TIP3   OH241692   4.126   3.033  12.802 -0.1974 -0.9029 -0.1154
 6734TIP3    H141693   4.133   3.111  12.748 -2.7397  0.1664  0.9899
 6734TIP3    H241694   4.088   2.967  12.744 -1.2179 -0.3004 -0.1464
 6735TIP3   OH241695   2.781   0.737   1.999 -0.2146 -0.3060 -0.3856
 6735TIP3    H141696   2.711   0.672   2.007  0.2579 -0.7423  0.4010
 6735TIP3    H241697   2.736   0.822   2.007 -0.4277 -0.5835  2.9961
 6736TIP3   OH241698   5.838   0.067  13.913 -0.8024 -0.4779 -0.0170
 6736TIP3    H141699   5.885   0.085  13.995  0.3038  0.1672 -0.7716
 6736TIP3    H241700   5.759   0.121  13.919  1.0390  2.5740 -0.9373
 6737TIP3   OH241701   2.067   4.279  17.016  0.0263  0.2688  0.1018
 6737TIP3    H141702   2.134   4.310  16.955 -0.8949  2.2080 -0.0085
 6737TIP3    H241703   1.994   4.340  17.004 -1.8121 -1.7776  0.1785
 6738TIP3   OH241704   2.400   5.201   4.477 -0.9479 -0.1673  0.0176
 6738TIP3    H141705   2.399   5.105   4.471 -0.3187 -0.1789  0.0441
 6738TIP3    H241706   2.474   5.227   4.422 -1.0492  0.2970  0.1034
 6739TIP3   OH241707   4.728   2.173  14.415 -0.1813  0.5093  0.1356
 6739TIP3    H141708   4.709   2.238  14.483  0.1126  0.4509  0.2724
 6739TIP3    H241709   4.700   2.215  14.334 -0.8466  0.4489  0.3288
 6740TIP3   OH241710   3.662   1.196   2.992 -0.0688 -0.7478  0.0935
 6740TIP3    H141711   3.608   1.131   2.947  0.5613 -2.8644  2.2177
 6740TIP3    H241712   3.601   1.245   3.047 -0.4453  0.1093 -1.0347
 6741TIP3   OH241713   4.687   4.761   3.878  0.4461 -0.2631 -0.6541
 6741TIP3    H141714   4.767   4.756   3.929  0.8402 -2.2007 -1.3880
 6741TIP3    H241715   4.626   4.701   3.922 -0.2640  0.3946 -0.7086
 6742TIP3   OH241716   6.209   6.219  16.675  0.2408 -0.0896  0.0100
 6742TIP3    H141717   6.264   6.160  16.624  1.8435  2.8650 -1.9229
 6742TIP3    H241718   6.130   6.230  16.622  0.4647  0.4074 -0.2234
 6743TIP3   OH241719   5.062   1.299   4.204  0.0163  0.3044 -0.1245
 6743TIP3    H141720   5.078   1.286   4.298  1.1846  0.6363 -0.2634
 6743TIP3    H241721   5.138   1.262   4.161 -1.1023 -1.0413 -1.0557
 6744TIP3   OH241722   2.574   6.326  13.261 -0.5531  0.1448 -0.2059
 6744TIP3    H141723   2.547   6.244  13.302 -0.1598  0.6032  1.0122
 6744TIP3    H241724   2.492   6.366  13.231 -0.6548 -1.1815 -1.8110
 6745TIP3   OH241725   6.666   2.371  12.063 -0.3099 -0.4178 -0.4419
 6745TIP3    H141726   6.616   2.446  12.095  0.0427  0.0085 -0.8793
 6745TIP3    H241727   6.698   2.328  12.142 -0.6365 -0.1910 -0.1855
 6746TIP3   OH241728   4.808   3.309   0.151 -0.0839  0.4695 -0.6346
 6746TIP3    H141729   4.867   3.377   0.119  0.6232 -0.5651 -1.6343
 6746TIP3    H241730   4.804   3.323   0.245 -1.3140  2.9237 -0.9805
 6747TIP3   OH241731   6.124   2.155  16.487  0.1787 -0.5240  0.3025
 6747TIP3    H141732   6.041   2.196  16.509 -0.3079 -1.8125  0.9363
 6747TIP3    H241733   6.122   2.146  16.391  0.3496  0.9849  0.1352
 6748TIP3   OH241734   6.267   4.618   5.713  0.2453  0.4986 -0.0367
 6748TIP3    H141735   6.340   4.644   5.769  0.7333 -1.0382  0.0859
 6748TIP3    H241736   6.190   4.658   5.752  1.0692  2.6889 -0.5271
 6749TIP3   OH241737   1.965   0.857   0.326 -0.3637 -0.1480 -0.4190
 6749TIP3    H141738   1.918   0.778   0.353 -0.9648  0.0616 -0.8285
 6749TIP3    H241739   2.050   0.852   0.371 -0.1163 -1.3810 -1.0021
 6750TIP3   OH241740   5.897   4.677   5.120  0.0900 -0.1391 -0.3420
 6750TIP3    H141741   5.963   4.645   5.181 -0.6714  0.2267  0.7033
 6750TIP3    H241742   5.833   4.722   5.175 -0.5598  0.3078 -1.4266
 6751TIP3   OH241743   6.511   4.158  15.153  0.6608 -0.6228  0.2533
 6751TIP3    H141744   6.532   4.211  15.230  0.9743 -1.2261  0.5832
 6751TIP3    H241745   6.432   4.109  15.178 -1.6227  2.0144 -1.1410
 6752TIP3   OH241746   5.676   0.958  12.604  0.6208  0.2545  0.2853
 6752TIP3    H141747   5.728   0.914  12.537 -0.0374 -2.0450  1.1816
 6752TIP3    H241748   5.741   0.998  12.662  1.3270 -0.6334  0.1264
 6753TIP3   OH241749   0.084   6.191  13.815 -0.1119 -0.4619 -0.1120
 6753TIP3    H141750  -0.002   6.185  13.857  0.5123 -0.3346  1.2328
 6753TIP3    H241751   0.065   6.182  13.722 -1.4080 -2.1812  0.2684
 6754TIP3   OH241752   6.746   6.475  14.911 -0.2938 -0.1310  0.2821
 6754TIP3    H141753   6.762   6.545  14.848  0.3589 -0.1100  0.4625
 6754TIP3    H241754   6.657   6.490  14.942 -0.9998 -0.7411 -1.3749
 6755TIP3   OH241755   1.675   0.482  13.462 -1.1187  0.0172  0.0216
 6755TIP3    H141756   1.674   0.510  13.553 -2.9869  0.7709 -0.1844
 6755TIP3    H241757   1.714   0.556  13.415  2.2347 -1.3553  0.4120
 6756TIP3   OH241758   3.803   2.666   2.361  0.2160 -0.0955  0.1387
 6756TIP3    H141759   3.793   2.582   2.317  0.1026 -1.4384  2.5362
 6756TIP3    H241760   3.794   2.646   2.454 -0.5953  2.7014  0.7811
 6757TIP3   OH241761   6.343   4.910   1.410 -0.5037  0.3910 -0.0830
 6757TIP3    H141762   6.436   4.922   1.427 -0.4387  1.9802 -1.3617
 6757TIP3    H241763   6.300   4.941   1.490  0.0398 -1.5571  1.0462
 6758TIP3   OH241764   0.928   6.344   2.525 -0.1715 -0.4565 -0.0989
 6758TIP3    H141765   0.855   6.402   2.546  0.1548  0.2499 -0.8825
 6758TIP3    H241766   0.899   6.258   2.553 -1.8609 -0.4352 -1.6247
 6759TIP3   OH241767   2.515   6.659   4.305  0.2320 -0.0915 -0.5831
 6759TIP3    H141768   2.516   6.686   4.397  1.5257 -0.5117 -0.4556
 6759TIP3    H241769   2.423   6.664   4.280 -0.0704  0.5868  0.5652
 6760TIP3   OH241770   0.351   4.701   4.905  0.2445 -0.1125  0.5218
 6760TIP3    H141771   0.395   4.786   4.908  0.2650 -0.1045  0.0623
 6760TIP3    H241772   0.342   4.676   4.996 -1.5852  1.3241  0.8070
 6761TIP3   OH241773   2.785   3.164   0.765  0.2314 -0.1106 -0.5800
 6761TIP3    H141774   2.762   3.238   0.709 -0.7640  0.3362  0.3778
 6761TIP3    H241775   2.729   3.174   0.842  2.1916 -0.1600  0.9468
 6762TIP3   OH241776   1.451   6.031   5.685 -0.3991  0.1533  0.5605
 6762TIP3    H141777   1.369   6.078   5.671  0.0711  0.0366 -3.7228
 6762TIP3    H241778   1.516   6.082   5.638  1.6380 -0.9411  2.0303
 6763TIP3   OH241779   3.575   0.683  11.505 -0.4004  0.0856 -0.0738
 6763TIP3    H141780   3.537   0.766  11.478 -0.8309 -0.3255 -0.7736
 6763TIP3    H241781   3.657   0.706  11.549 -1.2401  0.9768  1.0999
 6764TIP3   OH241782   5.909   0.790  17.171  0.6969  0.1932 -0.0349
 6764TIP3    H141783   5.893   0.698  17.194  2.0445  0.0592  0.4451
 6764TIP3    H241784   5.824   0.823  17.143 -0.1618 -0.7574  1.3416
 6765TIP3   OH241785   4.673   5.331   1.103  0.3617  0.4104 -0.4721
 6765TIP3    H141786   4.657   5.237   1.100  0.8506  0.3229 -0.3552
 6765TIP3    H241787   4.769   5.340   1.100  0.4533  0.8114  2.0445
 6766TIP3   OH241788   4.557   2.665   5.982  0.1375 -0.0288 -0.1735
 6766TIP3    H141789   4.612   2.741   5.967 -1.3335  0.8611 -1.2354
 6766TIP3    H241790   4.484   2.698   6.034 -0.7800 -0.5926 -1.0861
 6767TIP3   OH241791   2.840   4.779  11.291  0.5244  0.1642 -0.1496
 6767TIP3    H141792   2.803   4.783  11.380 -0.0295  2.2288 -0.4229
 6767TIP3    H241793   2.766   4.755  11.235  0.7883 -0.7512 -0.1262
 6768TIP3   OH241794   0.031   3.327  12.157  0.2830 -0.5437 -0.1123
 6768TIP3    H141795   0.033   3.418  12.187  1.5332 -0.4868 -0.3573
 6768TIP3    H241796   0.103   3.284  12.203  1.0313 -0.9132 -1.5761
 6769TIP3   OH241797   5.702   4.056  16.646  0.0740  0.8986  0.6311
 6769TIP3    H141798   5.631   3.997  16.622  0.4659  0.6219  0.1513
 6769TIP3    H241799   5.671   4.143  16.618  0.9341  0.4786 -1.8870
 6770TIP3   OH241800   0.734   5.525   1.589 -0.3197  0.2562 -0.0673
 6770TIP3    H141801   0.757   5.436   1.617 -0.3794 -0.5521 -2.3738
 6770TIP3    H241802   0.729   5.575   1.671  0.2936 -1.7064  1.2548
 6771TIP3   OH241803   2.403   3.679  16.222 -0.2161 -0.0704  0.1179
 6771TIP3    H141804   2.492   3.676  16.256 -0.2405 -0.8552  0.1293
 6771TIP3    H241805   2.408   3.637  16.137 -0.8083 -1.3251  0.6739
 6772TIP3   OH241806   2.430   2.012  13.692 -0.0717 -0.2366  0.8974
 6772TIP3    H141807   2.421   2.046  13.781 -0.6258  1.9785  0.0580
 6772TIP3    H241808   2.341   1.990  13.666 -0.1031  0.4525  0.4108
 6773TIP3   OH241809   3.680   1.398   5.682  0.4370 -0.2692 -0.2738
 6773TIP3    H141810   3.720   1.454   5.749 -0.2270  0.3911 -0.4212
 6773TIP3    H241811   3.661   1.316   5.728 -0.4814  0.3542  0.5041
 6774TIP3   OH241812   5.773   2.655  11.340  0.3583 -0.0723 -0.5210
 6774TIP3    H141813   5.710   2.660  11.268 -0.4827 -0.8964  0.1314
 6774TIP3    H241814   5.817   2.571  11.329 -0.3094 -0.5524  0.3325
 6775TIP3   OH241815   4.643   3.269   2.256  0.1249  0.6258 -0.6327
 6775TIP3    H141816   4.656   3.360   2.281  1.7204  0.1278  0.5472
 6775TIP3    H241817   4.713   3.251   2.193  0.8231 -0.1772  0.3349
 6776TIP3   OH241818   4.653   0.177  15.641 -0.0256  0.5123 -0.4619
 6776TIP3    H141819   4.725   0.212  15.590 -0.8853  1.3363 -1.1547
 6776TIP3    H241820   4.579   0.174  15.580 -0.0878 -2.3208 -0.3781
 6777TIP3   OH241821   6.587   2.418   0.937  0.2419 -0.2465  0.0427
 6777TIP3    H141822   6.565   2.455   0.852  1.0229 -0.2651 -0.1729
 6777TIP3    H241823   6.533   2.467   1.000 -0.9696 -0.8036 -0.5363
 6778TIP3   OH241824   5.558   4.773  15.183 -0.2353 -0.0633 -0.5765
 6778TIP3    H141825   5.519   4.855  15.155 -0.6681  0.7944  2.2175
 6778TIP3    H241826   5.563   4.720  15.104 -3.0365  1.4163 -1.8676
 6779TIP3   OH241827   4.491   5.537  15.811 -0.5237 -0.0910  0.2855
 6779TIP3    H141828   4.424   5.475  15.781 -0.2158 -1.0658  1.5040
 6779TIP3    H241829   4.489   5.529  15.907  0.8642  0.3647  0.3700
 6780TIP3   OH241830   5.941   6.472  12.635 -0.8222 -0.9648  0.0781
 6780TIP3    H141831   5.913   6.442  12.721 -3.0229 -2.5600 -1.0895
 6780TIP3    H241832   5.878   6.540  12.611  2.0683  2.4482  1.2108
 6781TIP3   OH241833   3.129   2.451   4.097  0.2441  0.0236 -0.0213
 6781TIP3    H141834   3.086   2.482   4.017 -0.1536  0.7489  0.4653
 6781TIP3    H241835   3.207   2.406   4.066  1.0800  1.8917 -0.7529
 6782TIP3   OH241836   6.821   0.328   2.195 -0.1029 -0.2636 -0.3265
 6782TIP3    H141837   6.843   0.420   2.207  3.5038 -1.1130  0.7571
 6782TIP3    H241838   6.812   0.294   2.284  2.2997 -1.6331 -0.5381
 6783TIP3   OH241839   4.445   0.159  15.449 -0.2270  0.1234 -0.3781
 6783TIP3    H141840   4.399   0.114  15.378 -1.7257 -1.2041  1.3164
 6783TIP3    H241841   4.486   0.235  15.408  0.6632 -1.6490 -3.0044
 6784TIP3   OH241842   4.568   0.436   4.103 -0.6598 -0.1303 -0.1958
 6784TIP3    H141843   4.479   0.414   4.129 -0.7127 -0.7136 -0.8279
 6784TIP3    H241844   4.614   0.352   4.102 -0.2964  0.0671 -0.5885
 6785TIP3   OH241845   2.591   0.076  12.405 -0.0930 -0.0894  0.0529
 6785TIP3    H141846   2.539   0.100  12.328  1.1841  1.1466 -0.4628
 6785TIP3    H241847   2.547   0.121  12.477 -1.0005 -0.8427 -0.0036
 6786TIP3   OH241848   4.723   0.948  12.823 -0.1439 -0.3844 -0.7179
 6786TIP3    H141849   4.817   0.959  12.809  0.3799 -3.2417 -0.0758
 6786TIP3    H241850   4.706   0.856  12.800 -2.5235 -0.3224  0.4913
 6787TIP3   OH241851   0.467   5.231  10.455  0.4784 -0.4088 -1.0458
 6787TIP3    H141852   0.385   5.280  10.445  0.4684 -0.3565 -0.7420
 6787TIP3    H241853   0.528   5.274  10.395  0.4687 -0.0228 -0.7864
 6788TIP3   OH241854   5.627   0.273   2.303 -1.0288  0.1722  0.0233
 6788TIP3    H141855   5.693   0.340   2.288 -0.3830 -0.3059  0.6718
 6788TIP3    H241856   5.558   0.318   2.352 -0.5791  0.3549  0.4947
 6789TIP3   OH241857   5.176   6.577   1.013  0.2596  0.5486 -0.1123
 6789TIP3    H141858   5.206   6.653   0.965  1.0429  0.1651 -0.2457
 6789TIP3    H241859   5.181   6.603   1.105  2.3250  0.0640 -0.0428
 6790TIP3   OH241860   1.918   4.236   3.803  0.4286  0.3023  0.0662
 6790TIP3    H141861   1.892   4.165   3.744  0.0729 -1.0540  1.7692
 6790TIP3    H241862   1.836   4.282   3.822  0.0340 -0.8753  1.4717
 6791TIP3   OH241863   0.293   5.420   3.303  0.2802 -0.0896 -0.5008
 6791TIP3    H141864   0.338   5.501   3.327  0.9864 -0.9599  1.2464
 6791TIP3    H241865   0.362   5.362   3.270  0.4163 -1.2022  1.5849
 6792TIP3   OH241866   0.969   0.162  16.978  0.1669 -0.3189  0.0085
 6792TIP3    H141867   0.927   0.220  16.914  0.0006  0.3925  0.7514
 6792TIP3    H241868   1.061   0.160  16.952  0.4638  1.4225  0.7875
 6793TIP3   OH241869   3.670   4.304  13.891  0.3278 -0.3346 -0.9055
 6793TIP3    H141870   3.691   4.338  13.978  1.6664 -1.1910 -0.8781
 6793TIP3    H241871   3.734   4.344  13.833  1.7590 -2.4857 -0.9203
 6794TIP3   OH241872   0.012   3.986  13.190 -0.5897  0.0949  0.2986
 6794TIP3    H141873   0.099   3.954  13.166 -1.0586 -0.3508 -0.8969
 6794TIP3    H241874   0.019   4.081  13.183  0.0863  0.1365  1.2937
 6795TIP3   OH241875   2.162   5.786  14.907  0.0413  0.3901  0.1840
 6795TIP3    H141876   2.082   5.765  14.859  0.5641  0.1932 -0.6202
 6795TIP3    H241877   2.205   5.854  14.855  0.2260  0.7417  0.7890
 6796TIP3   OH241878   0.504   3.881  11.423  0.8734 -0.2922  0.4584
 6796TIP3    H141879   0.421   3.842  11.395 -0.3641  0.6246  2.6263
 6796TIP3    H241880   0.568   3.850  11.358 -1.2087 -0.6264 -1.5718
 6797TIP3   OH241881   3.002   3.021   5.168  0.1343 -0.8710 -0.3619
 6797TIP3    H141882   3.000   3.060   5.255 -2.3529  2.3537 -1.6580
 6797TIP3    H241883   3.091   2.986   5.159  1.5723  1.7164  2.2164
 6798TIP3   OH241884   2.485   0.646   4.367  0.0036  0.1771  0.2082
 6798TIP3    H141885   2.465   0.558   4.336 -1.2846  0.3984  0.3413
 6798TIP3    H241886   2.537   0.633   4.446  0.9758 -0.4230 -0.4996
 6799TIP3   OH241887   5.154   0.567   4.687 -0.4385 -0.3650  0.3958
 6799TIP3    H141888   5.060   0.582   4.682 -0.0758  1.6442 -2.1752
 6799TIP3    H241889   5.180   0.544   4.598  1.6560  0.0822  0.8286
 6800TIP3   OH241890   4.756   4.767  11.420 -0.0781 -0.5453 -0.2862
 6800TIP3    H141891   4.777   4.678  11.450  2.0090 -0.3446 -1.0362
 6800TIP3    H241892   4.831   4.820  11.445 -0.1929  0.5189 -2.0145
 6801TIP3   OH241893   1.270   5.958  14.480  0.2450 -0.1670  0.0865
 6801TIP3    H141894   1.303   6.017  14.413 -0.2131 -1.4406 -1.3237
 6801TIP3    H241895   1.186   5.995  14.506  0.0278 -0.1040 -0.6815
 6802TIP3   OH241896   4.391   1.886   3.965 -0.3727 -0.0184 -0.1043
 6802TIP3    H141897   4.398   1.965   4.019  0.1124  0.9725 -1.5372
 6802TIP3    H241898   4.449   1.903   3.890  0.6929 -2.2606  0.1300
 6803TIP3   OH241899   6.765   3.651  11.389  0.4301  0.3346  0.0840
 6803TIP3    H141900   6.745   3.679  11.479 -1.3030  0.2621 -0.2465
 6803TIP3    H241901   6.680   3.623  11.353  0.8902  1.3292 -1.9194
 6804TIP3   OH241902   5.407   6.392  15.126  0.8695 -0.7745 -0.4884
 6804TIP3    H141903   5.417   6.418  15.035  2.1207  0.0179 -0.1409
 6804TIP3    H241904   5.433   6.469  15.176 -1.3968 -0.5884  0.5681
 6805TIP3   OH241905   5.642   6.513  10.530 -0.1059 -0.0011  0.4359
 6805TIP3    H141906   5.716   6.573  10.518 -0.9602  0.5756 -2.9093
 6805TIP3    H241907   5.565   6.564  10.505 -1.0834 -1.8883 -0.6558
 6806TIP3   OH241908   1.001   6.510   1.739 -0.1467  0.0230  0.1981
 6806TIP3    H141909   0.995   6.574   1.810  0.2927  0.2077  0.0746
 6806TIP3    H241910   1.018   6.426   1.783  1.0472  0.2866  0.2730
 6807TIP3   OH241911   4.095   2.773   1.600 -0.3008  0.2244  0.7191
 6807TIP3    H141912   4.004   2.753   1.623 -0.4947 -0.5615 -0.5622
 6807TIP3    H241913   4.140   2.783   1.684 -1.4846  0.2061  1.3780
 6808TIP3   OH241914   4.521   3.387   1.351  0.0548  0.5543  0.4694
 6808TIP3    H141915   4.504   3.379   1.257 -2.7624  0.7721  0.8572
 6808TIP3    H241916   4.551   3.300   1.378 -4.4538 -1.3818  0.1625
 6809TIP3   OH241917   5.676   2.351  14.111  1.0504 -0.1338 -0.3319
 6809TIP3    H141918   5.652   2.427  14.058  1.6090 -0.4922 -1.1175
 6809TIP3    H241919   5.633   2.366  14.196  1.7533  1.4275 -0.2143
 6810TIP3   OH241920   4.235   2.443   1.727 -0.3886  0.4263 -0.3189
 6810TIP3    H141921   4.231   2.401   1.813  1.8859  0.5841 -0.0816
 6810TIP3    H241922   4.188   2.383   1.669  2.1730 -2.2062  0.1381
 6811TIP3   OH241923   4.964   4.151  11.541  0.3479 -0.7974 -0.0796
 6811TIP3    H141924   4.956   4.143  11.446  0.4456 -2.1436  0.0042
 6811TIP3    H241925   4.876   4.177  11.570  0.8306  1.7909 -0.6875
 6812TIP3   OH241926   3.862   6.341  12.847  0.1031 -0.7586  1.1120
 6812TIP3    H141927   3.829   6.332  12.936 -2.4818 -0.1885  0.2954
 6812TIP3    H241928   3.866   6.436  12.832  0.7006 -0.8462  0.6836
 6813TIP3   OH241929   6.360   2.810  11.705  0.0076  0.0793  0.7115
 6813TIP3    H141930   6.311   2.735  11.673  0.2533 -0.0799  0.7071
 6813TIP3    H241931   6.308   2.842  11.779 -1.4831  1.5034 -0.8507
 6814TIP3   OH241932   2.978   5.211  11.083  0.0014 -0.2296 -0.1799
 6814TIP3    H141933   2.949   5.121  11.089  1.4487 -0.6659  0.9098
 6814TIP3    H241934   3.062   5.206  11.036  0.9056  0.3252  1.3094
 6815TIP3   OH241935   5.413   3.908   0.052 -0.3362 -0.0378 -0.0522
 6815TIP3    H141936   5.335   3.961   0.068 -0.7558  0.5621 -3.3568
 6815TIP3    H241937   5.379   3.820   0.036 -0.0196 -0.4176  1.2406
 6816TIP3   OH241938   4.035   1.669   3.946 -0.1021 -0.1128 -0.0332
 6816TIP3    H141939   4.077   1.719   4.016 -3.0690 -0.4246  2.2039
 6816TIP3    H241940   4.017   1.584   3.986 -1.2031 -0.5792 -1.4515
 6817TIP3   OH241941   6.573   0.683   5.064 -0.2783 -0.2510  0.2225
 6817TIP3    H141942   6.634   0.700   5.135 -0.4117 -0.4885  0.3957
 6817TIP3    H241943   6.576   0.588   5.052  0.2310 -0.1534 -0.5245
 6818TIP3   OH241944   6.063   6.680  14.092  0.2084 -0.3477  0.5203
 6818TIP3    H141945   6.114   6.756  14.064 -0.2359 -0.2713 -0.1042
 6818TIP3    H241946   6.054   6.627  14.013  1.5777 -1.6921  1.2158
 6819TIP3   OH241947   0.686   2.854   1.447 -0.0461  0.0309 -0.1111
 6819TIP3    H141948   0.728   2.839   1.362  0.3769  2.0560 -0.3196
 6819TIP3    H241949   0.648   2.942   1.439  2.2895  1.4437  2.6463
 6820TIP3   OH241950   6.251   5.257  11.975  0.1399  0.2505 -0.1028
 6820TIP3    H141951   6.296   5.192  11.921  1.0680  1.0614 -0.3357
 6820TIP3    H241952   6.265   5.227  12.065  1.1817  0.4835 -0.1666
 6821TIP3   OH241953   1.548   3.297   3.787 -0.2835  0.2722 -0.4152
 6821TIP3    H141954   1.634   3.317   3.823  0.7033 -0.9174 -1.9535
 6821TIP3    H241955   1.503   3.251   3.857  0.6810  0.1152  0.1227
 6822TIP3   OH241956   1.058   5.869  12.154 -0.2328 -0.2423 -0.0207
 6822TIP3    H141957   0.996   5.815  12.204  0.1174 -0.8662 -0.2460
 6822TIP3    H241958   1.082   5.940  12.214  0.4331 -1.1636  0.8304
 6823TIP3   OH241959   3.952   6.308  16.447 -0.1132  0.1660  0.2058
 6823TIP3    H141960   3.871   6.359  16.440  0.2635  0.5933 -1.3107
 6823TIP3    H241961   4.019   6.363  16.407  1.2429  0.3725  2.5520
 6824TIP3   OH241962   4.288   1.749  16.869  0.7151  0.1880 -0.8526
 6824TIP3    H141963   4.198   1.718  16.876  0.3406  1.1213 -1.2616
 6824TIP3    H241964   4.314   1.727  16.780  0.7948  0.1719 -0.8256
 6825TIP3   OH241965   1.250   0.696   4.157 -0.1327 -0.4583  0.3092
 6825TIP3    H141966   1.194   0.625   4.188  0.2303 -0.2121  1.6190
 6825TIP3    H241967   1.209   0.775   4.192 -0.0514 -0.0926 -0.4020
 6826TIP3   OH241968   1.229   5.622   4.239 -0.0646  0.1373  0.2854
 6826TIP3    H141969   1.290   5.696   4.237 -0.8943  0.8678 -2.4781
 6826TIP3    H241970   1.244   5.580   4.324  2.3413  1.8712  0.8048
 6827TIP3   OH241971   5.209   5.274  12.316 -0.1206 -0.0375 -0.6013
 6827TIP3    H141972   5.221   5.272  12.221 -1.9922 -0.4071 -0.8584
 6827TIP3    H241973   5.134   5.216  12.333  0.2858 -0.1252  1.1233
 6828TIP3   OH241974   5.218   5.404  14.217  0.0220  0.1950 -0.5003
 6828TIP3    H141975   5.280   5.335  14.241  0.0483  0.6661  0.8875
 6828TIP3    H241976   5.245   5.431  14.129  1.3141 -0.1317 -0.2273
 6829TIP3   OH241977   5.822   0.660   0.688 -0.0720 -0.5652 -0.0171
 6829TIP3    H141978   5.729   0.679   0.675 -0.0724 -0.8387 -0.4296
 6829TIP3    H241979   5.855   0.639   0.600  1.7009  5.2092 -1.1718
 6830TIP3   OH241980   0.137   0.209  11.170  0.1964  0.7526  0.1786
 6830TIP3    H141981   0.185   0.239  11.092 -1.1622  1.4775 -0.4078
 6830TIP3    H241982   0.174   0.123  11.189  1.8567  1.3537 -0.1318
 6831TIP3   OH241983   0.080   4.124  15.034 -0.7390 -0.0072  0.1786
 6831TIP3    H141984   0.115   4.040  15.064  0.1133  0.0793 -0.5209
 6831TIP3    H241985   0.126   4.189  15.087  0.3038  0.1145 -0.8434
 6832TIP3   OH241986   2.299   4.478  16.648 -0.1913  0.6282 -0.3366
 6832TIP3    H141987   2.212   4.508  16.675 -1.0477 -0.5579 -1.6463
 6832TIP3    H241988   2.301   4.385  16.670  0.5298  0.5190 -0.8095
 6833TIP3   OH241989   5.993   5.026  15.771  0.0457  0.4738  0.0544
 6833TIP3    H141990   5.901   5.002  15.770  0.0530  0.4438  0.1469
 6833TIP3    H241991   6.028   4.991  15.689  0.1064 -0.0122  0.2840
 6834TIP3   OH241992   5.261   4.595  15.949 -0.4082 -0.1180 -0.3660
 6834TIP3    H141993   5.251   4.688  15.926  0.1229 -0.6330 -2.9703
 6834TIP3    H241994   5.338   4.594  16.006 -0.4084  1.0289 -0.3052
 6835TIP3   OH241995   2.896   4.077   3.169  0.3512 -0.1563  0.1175
 6835TIP3    H141996   2.890   4.004   3.108 -1.3154 -0.2632  0.3382
 6835TIP3    H241997   2.914   4.153   3.115  1.3073 -0.6015 -0.2066
 6836TIP3   OH241998   0.159   1.056  14.862 -0.2946 -0.2534 -0.0859
 6836TIP3    H141999   0.096   1.036  14.931 -1.4616 -1.5349 -1.4503
 6836TIP3    H242000   0.211   0.976  14.854  0.2466  0.1121 -0.2809
 6837TIP3   OH242001   1.426   2.736   1.820  0.1308  0.5906 -0.4253
 6837TIP3    H142002   1.367   2.663   1.803  0.3643  0.1403  0.6318
 6837TIP3    H242003   1.372   2.802   1.863  0.5788 -0.2263  1.4751
 6838TIP3   OH242004   5.030   3.930  12.021 -0.5445 -0.1572  0.4475
 6838TIP3    H142005   4.999   3.840  12.006 -1.0642  0.0700  0.1575
 6838TIP3    H242006   5.061   3.959  11.935  0.3346 -0.3208  0.6950
 6839TIP3   OH242007   1.165   6.257   0.107 -0.3461  0.6680 -0.1656
 6839TIP3    H142008   1.115   6.337   0.124 -1.9027 -0.7516  2.6614
 6839TIP3    H242009   1.123   6.219   0.030 -1.8796  0.8635  0.5475
 6840TIP3   OH242010   0.514   2.610  15.266  0.5476 -0.4006  0.4131
 6840TIP3    H142011   0.533   2.605  15.172  0.9792 -1.4968  0.5339
 6840TIP3    H242012   0.587   2.563  15.307  0.8920  0.9319  1.3804
 6841TIP3   OH242013   0.077   6.821  15.323  0.0861 -0.3472  0.7596
 6841TIP3    H142014  -0.007   6.804  15.281  0.3656 -0.9359  0.4139
 6841TIP3    H242015   0.102   6.737  15.360  1.0304 -0.4669 -0.0874
 6842TIP3   OH242016   3.902   6.370  11.533 -0.5598  0.2072  0.2968
 6842TIP3    H142017   3.904   6.301  11.467  3.0938  0.1143  0.3050
 6842TIP3    H242018   3.994   6.383  11.557 -1.3024  3.5518  1.9144
 6843TIP3   OH242019   0.415   4.299   5.172  0.3942 -0.0004  0.3299
 6843TIP3    H142020   0.408   4.203   5.171  0.1844 -0.0243  1.7732
 6843TIP3    H242021   0.396   4.325   5.082  0.6697 -1.3298 -0.1413
 6844TIP3   OH242022   5.927   1.374  16.489 -0.1552 -0.5277  0.2996
 6844TIP3    H142023   5.898   1.450  16.540  0.6663 -0.6156  0.9140
 6844TIP3    H242024   5.852   1.314  16.493 -0.6072  0.0208  0.2650
 6845TIP3   OH242025   0.222   3.707  16.946  0.4529  0.5633  0.4003
 6845TIP3    H142026   0.215   3.743  17.034  1.7904 -0.8941  1.1515
 6845TIP3    H242027   0.277   3.629  16.956 -0.4717 -0.4087 -1.5030
 6846TIP3   OH242028   5.093   0.479  11.372  0.0975  0.2630 -0.6105
 6846TIP3    H142029   5.136   0.524  11.444  4.2443 -2.6358 -0.9106
 6846TIP3    H242030   5.035   0.415  11.414 -0.8705  1.4544 -0.0727
 6847TIP3   OH242031   3.858   3.803   1.542  0.6813 -0.1821 -0.4668
 6847TIP3    H142032   3.938   3.760   1.511 -1.1319 -2.5962 -2.2225
 6847TIP3    H242033   3.879   3.896   1.542  2.9623 -0.5966 -2.4433
 6848TIP3   OH242034   5.632   6.833  16.657 -0.1213  0.2599 -0.2475
 6848TIP3    H142035   5.727   6.840  16.673 -0.3958  0.7888  1.3549
 6848TIP3    H242036   5.601   6.773  16.725 -1.0984  0.9594 -0.0658
 6849TIP3   OH242037   4.289   0.620   4.725  0.6013 -0.0644  0.2686
 6849TIP3    H142038   4.328   0.690   4.673  3.2830 -0.5737  1.4520
 6849TIP3    H242039   4.258   0.663   4.804  1.6146 -0.0748  0.6848
 6850TIP3   OH242040   2.243   1.947  13.225  0.3678  0.2636  0.4544
 6850TIP3    H142041   2.263   1.989  13.309 -0.1695  0.1029  0.6716
 6850TIP3    H242042   2.310   1.980  13.165  1.1122 -0.0749  1.0866
 6851TIP3   OH242043   4.406   2.931  14.129  0.3727 -0.2570  0.0642
 6851TIP3    H142044   4.397   2.840  14.155 -2.1874 -0.3236 -0.7941
 6851TIP3    H242045   4.361   2.980  14.198  1.3370  0.3533  0.2863
 6852TIP3   OH242046   2.187   4.235  15.792  0.6355 -0.0267 -0.0151
 6852TIP3    H142047   2.248   4.162  15.783  1.0960  0.2384  0.7999
 6852TIP3    H242048   2.120   4.219  15.726  1.2395 -0.6734 -0.4895
 6853TIP3   OH242049   0.923   3.758   2.685  0.2856  0.4967 -0.1694
 6853TIP3    H142050   0.886   3.847   2.685  0.3569  0.5984  2.3166
 6853TIP3    H242051   0.890   3.719   2.766 -1.2512 -2.4691 -2.0670
 6854TIP3   OH242052   4.109   3.371   6.378 -0.6721 -0.1422  0.2168
 6854TIP3    H142053   4.092   3.364   6.472 -1.0062 -1.4468  0.0847
 6854TIP3    H242054   4.137   3.283   6.352 -0.1734  0.3049 -0.8351
 6855TIP3   OH242055   0.651   5.776   1.383  0.2097 -0.1305 -0.3940
 6855TIP3    H142056   0.618   5.696   1.343 -0.3051 -0.8809  1.4595
 6855TIP3    H242057   0.577   5.812   1.431  1.6382 -1.2980  2.9981
 6856TIP3   OH242058   4.762   0.486   0.733 -0.3291 -0.0030 -0.3070
 6856TIP3    H142059   4.848   0.454   0.761 -0.1186 -0.3171 -1.2809
 6856TIP3    H242060   4.721   0.518   0.814  1.8302  2.9276 -0.2169
 6857TIP3   OH242061   3.073   6.300  16.939  0.6265  0.2320  0.1358
 6857TIP3    H142062   3.057   6.348  16.858 -1.6717 -0.3023  0.1832
 6857TIP3    H242063   3.059   6.365  17.008 -1.6848 -0.2140  0.1738
 6858TIP3   OH242064   2.180   4.246  14.709  1.0713 -0.1342  0.2164
 6858TIP3    H142065   2.143   4.334  14.713  1.7343  0.1164  0.9545
 6858TIP3    H242066   2.264   4.257  14.664  1.9316 -0.1009  1.7597
 6859TIP3   OH242067   4.640   0.180  16.176 -0.4783 -0.4028 -0.2322
 6859TIP3    H142068   4.563   0.145  16.219 -1.0421  0.7163 -0.2966
 6859TIP3    H242069   4.611   0.202  16.087  0.4704 -1.9627 -0.9797
 6860TIP3   OH242070   5.652   2.803   5.535 -0.3518 -0.5091 -0.5241
 6860TIP3    H142071   5.561   2.830   5.547  0.4979  2.3430  0.4109
 6860TIP3    H242072   5.681   2.776   5.622  0.1810  0.4374 -0.3894
 6861TIP3   OH242073   4.918   2.374   5.025 -0.3994 -0.2231 -0.1814
 6861TIP3    H142074   4.893   2.320   4.950  0.9304 -0.0514 -0.7880
 6861TIP3    H242075   4.868   2.455   5.014  1.3470  0.6842 -2.1418
 6862TIP3   OH242076   4.665   3.044  15.001  0.1069  0.1308 -0.7030
 6862TIP3    H142077   4.626   2.962  14.971  0.3974  0.0512 -0.8704
 6862TIP3    H242078   4.701   3.023  15.087 -0.8714  0.4027 -0.2161
 6863TIP3   OH242079   5.454   3.757  12.915  0.4616  0.1354  0.2776
 6863TIP3    H142080   5.380   3.812  12.938  1.7473  2.2903 -0.4448
 6863TIP3    H242081   5.522   3.780  12.978  1.3459  0.1137 -0.6453
 6864TIP3   OH242082   3.582   6.073   4.595 -0.0688  0.3378  0.6592
 6864TIP3    H142083   3.620   6.142   4.543 -1.5530  1.6569  1.2435
 6864TIP3    H242084   3.499   6.052   4.551 -0.0097 -0.5093  0.9305
 6865TIP3   OH242085   6.233   6.818  11.215 -0.4343  0.0520  0.0657
 6865TIP3    H142086   6.165   6.760  11.249 -2.0867  1.9227  0.1930
 6865TIP3    H242087   6.220   6.816  11.120  0.5748 -0.9706 -0.0741
 6866TIP3   OH242088   5.554   6.557  11.984  0.1361  0.2738 -0.3233
 6866TIP3    H142089   5.543   6.651  11.997  0.5776  0.0341  2.5208
 6866TIP3    H242090   5.479   6.530  11.932  1.4210  2.5496 -3.6927
 6867TIP3   OH242091   4.196   3.567   0.758 -0.2680  0.2416 -0.0154
 6867TIP3    H142092   4.196   3.601   0.669  0.7705 -0.7207 -0.4011
 6867TIP3    H242093   4.263   3.619   0.804  0.1609 -0.1663 -0.1698
 6868TIP3   OH242094   4.299   6.095  12.311  0.1797  0.4812  0.2752
 6868TIP3    H142095   4.364   6.066  12.246 -1.6170 -1.7640 -0.6701
 6868TIP3    H242096   4.349   6.103  12.392  1.8220 -0.2378 -0.6030
 6869TIP3   OH242097   2.704   3.228  14.338  0.3917 -0.2402  0.2389
 6869TIP3    H142098   2.685   3.311  14.381  0.3872  0.0277 -0.2754
 6869TIP3    H242099   2.779   3.193  14.385 -0.3685 -0.5490  1.2751
 6870TIP3   OH242100   1.679   5.714   2.790  0.2636  0.2538 -0.4802
 6870TIP3    H142101   1.584   5.707   2.779  0.3483 -0.3473 -0.8926
 6870TIP3    H242102   1.706   5.630   2.828  0.8750 -0.4238 -2.2985
 6871TIP3   OH242103   4.010   1.489  15.679  0.4216  0.5371 -0.4023
 6871TIP3    H142104   3.920   1.454  15.678 -0.0146  1.6166 -0.3887
 6871TIP3    H242105   4.008   1.558  15.613  1.1622  0.7923 -0.1523
 6872TIP3   OH242106   1.680   0.795  16.855 -0.3446  0.5283 -0.1800
 6872TIP3    H142107   1.699   0.711  16.897 -2.5473 -0.2109 -0.5474
 6872TIP3    H242108   1.588   0.790  16.831  0.3520  1.5993 -3.6115
 6873TIP3   OH242109   4.255   3.746  10.727  0.5235 -0.0218 -0.1053
 6873TIP3    H142110   4.169   3.785  10.738 -0.0883 -0.6545 -2.1878
 6873TIP3    H242111   4.309   3.814  10.687  1.0261  0.3429  1.1091
 6874TIP3   OH242112   4.775   6.808   3.190 -0.0851  0.0176 -0.2531
 6874TIP3    H142113   4.684   6.801   3.160 -0.3555 -2.9232  0.9108
 6874TIP3    H242114   4.822   6.744   3.137  0.9709  0.2508  0.3853
 6875TIP3   OH242115   3.572   6.818  16.497  0.3970  0.2498  0.5425
 6875TIP3    H142116   3.563   6.731  16.536  2.1714  0.2452  1.0364
 6875TIP3    H242117   3.487   6.860  16.511 -0.0185 -0.8839  1.5873
 6876TIP3   OH242118   2.502   0.718  11.935 -0.1722 -0.2890 -0.1216
 6876TIP3    H142119   2.412   0.749  11.924 -0.0017  0.0407 -0.6970
 6876TIP3    H242120   2.494   0.632  11.974 -0.8038 -0.8504 -1.4294
 6877TIP3   OH242121   5.852   4.864   2.604 -0.9096  0.3244 -0.5053
 6877TIP3    H142122   5.811   4.898   2.683  0.7515 -1.3006  1.1730
 6877TIP3    H242123   5.939   4.835   2.633 -0.0556  0.1217 -3.0475
 6878TIP3   OH242124   5.623   5.379   4.901  0.0776  0.5842 -0.0973
 6878TIP3    H142125   5.612   5.288   4.873  0.8416 -0.3798  2.4638
 6878TIP3    H242126   5.534   5.408   4.922  0.0640 -0.6699  1.9472
 6879TIP3   OH242127   6.553   3.594   0.830 -0.2315  0.8233  0.1520
 6879TIP3    H142128   6.631   3.587   0.885 -0.4317  1.2785  0.5008
 6879TIP3    H242129   6.554   3.514   0.778 -0.6419 -0.1808  1.6155
 6880TIP3   OH242130   6.788   0.331  15.412 -0.0657  0.0033 -0.4501
 6880TIP3    H142131   6.866   0.276  15.425 -0.4091 -0.4070 -0.1097
 6880TIP3    H242132   6.715   0.276  15.438 -0.2630  1.3696  2.1788
 6881TIP3   OH242133   1.613   5.456  15.129 -0.2226  0.0017 -0.8014
 6881TIP3    H142134   1.622   5.391  15.198  0.7910 -1.7169 -2.4491
 6881TIP3    H242135   1.526   5.494  15.143  0.0126 -0.1662  1.4516
 6882TIP3   OH242136   4.360   3.374   1.580  0.3568 -0.2105 -0.1330
 6882TIP3    H142137   4.396   3.454   1.619  0.9004 -0.9947  1.0489
 6882TIP3    H242138   4.399   3.370   1.492  1.4663  0.0936  0.3248
 6883TIP3   OH242139   4.995   1.218  16.426  0.6694 -0.4450 -0.2165
 6883TIP3    H142140   5.001   1.258  16.513 -0.0887  0.5397 -0.5932
 6883TIP3    H242141   5.085   1.201  16.401  1.4058  3.6448 -1.1819
 6884TIP3   OH242142   5.513   1.681   4.579  0.3528  0.1606  0.1927
 6884TIP3    H142143   5.512   1.775   4.565 -0.1699 -0.0226 -1.1801
 6884TIP3    H242144   5.497   1.644   4.492  1.8861 -1.2226  0.4475
 6885TIP3   OH242145   1.822   4.432   5.623 -0.3611 -0.0863  0.6296
 6885TIP3    H142146   1.759   4.385   5.570  1.7518 -1.9143 -0.4316
 6885TIP3    H242147   1.865   4.492   5.562  1.9685 -2.0828  0.1619
 6886TIP3   OH242148   5.365   0.098   2.856  0.1587 -0.2699  0.2596
 6886TIP3    H142149   5.289   0.097   2.913 -1.1695 -1.5575 -1.4271
 6886TIP3    H242150   5.427   0.039   2.897 -0.5603 -0.7781  0.6339
 6887TIP3   OH242151   1.703   2.746  15.060 -0.3535 -0.1278 -0.3086
 6887TIP3    H142152   1.769   2.811  15.083 -1.2160  0.6649 -0.0019
 6887TIP3    H242153   1.711   2.736  14.965  1.0123 -0.9635 -0.1335
 6888TIP3   OH242154   3.967   4.732  12.146  0.0766  0.8407  0.1800
 6888TIP3    H142155   3.920   4.816  12.142  0.3062  0.9826  0.4451
 6888TIP3    H242156   3.898   4.666  12.136 -0.6113  0.9476  3.1593
 6889TIP3   OH242157   4.020   0.123   4.990  0.2949  0.6421  0.5974
 6889TIP3    H142158   3.938   0.089   5.028 -0.7550  1.2945 -0.9837
 6889TIP3    H242159   4.062   0.171   5.062 -1.3955  1.4555  1.0951
 6890TIP3   OH242160   3.593   3.969   2.984 -0.2243 -0.4303 -0.7817
 6890TIP3    H142161   3.569   3.934   3.070  3.0814 -1.1956 -0.0340
 6890TIP3    H242162   3.545   3.914   2.922 -2.0101 -0.4182  0.5156
 6891TIP3   OH242163   5.624   1.225   1.454 -0.0240 -0.3835 -0.2019
 6891TIP3    H142164   5.611   1.320   1.459  1.4414 -0.1389 -0.5878
 6891TIP3    H242165   5.536   1.190   1.439 -1.1869  0.5878  3.4113
 6892TIP3   OH242166   1.562   4.649   3.267 -0.1257  0.3777 -0.1983
 6892TIP3    H142167   1.517   4.684   3.190  1.1053 -0.7439 -1.4688
 6892TIP3    H242168   1.639   4.704   3.277 -0.7279  1.0902  0.8312
 6893TIP3   OH242169   1.491   2.478   0.629 -0.3643 -0.0402  0.4522
 6893TIP3    H142170   1.567   2.536   0.631  0.6135 -1.2696  2.3315
 6893TIP3    H242171   1.444   2.498   0.710 -0.9651 -0.6383  0.2590
 6894TIP3   OH242172   1.900   4.463  11.090  0.4731 -0.4958  0.4845
 6894TIP3    H142173   1.818   4.481  11.044  1.2956  2.0500 -0.1818
 6894TIP3    H242174   1.944   4.396  11.038 -0.1496 -0.1565 -0.4874
 6895TIP3   OH242175   2.949   0.003  13.425  0.0997  0.1025  0.1310
 6895TIP3    H142176   2.904  -0.080  13.412  0.0410  0.3004 -1.0558
 6895TIP3    H242177   2.913   0.037  13.507 -2.0250  0.2986 -0.8208
 6896TIP3   OH242178   0.492   1.615   3.531  0.6462 -0.0554 -0.5290
 6896TIP3    H142179   0.565   1.553   3.531 -0.2257 -1.1251  0.0383
 6896TIP3    H242180   0.423   1.570   3.482 -0.0632  0.4026  0.0365
 6897TIP3   OH242181   1.918   4.013   1.083  0.4883 -0.2867 -1.0347
 6897TIP3    H142182   1.964   3.959   1.147  0.1926  1.6767  0.9606
 6897TIP3    H242183   1.975   4.089   1.069 -0.8952  0.8955 -0.5524
 6898TIP3   OH242184   3.533   0.928  13.243 -0.8845  0.5170 -0.4689
 6898TIP3    H142185   3.512   0.978  13.322  2.1732  1.2544 -0.0012
 6898TIP3    H242186   3.554   0.840  13.274  1.1186  1.0175 -0.2648
 6899TIP3   OH242187   1.078   4.135  15.299 -0.1444  0.2864  0.2244
 6899TIP3    H142188   1.136   4.165  15.229 -0.0096 -1.4119 -0.4360
 6899TIP3    H242189   0.997   4.112  15.254  0.2231 -1.6192  0.4389
 6900TIP3   OH242190   3.620   1.850   3.594 -0.4879 -0.5782 -0.6875
 6900TIP3    H142191   3.631   1.789   3.521  1.5204  0.3842 -1.2635
 6900TIP3    H242192   3.634   1.797   3.672  0.2853 -1.0433 -1.1352
 6901TIP3   OH242193   6.062   1.694   3.197 -0.1637  0.1009 -0.3174
 6901TIP3    H142194   6.081   1.787   3.205  0.1445 -0.0805  1.6164
 6901TIP3    H242195   6.049   1.664   3.288 -1.5097 -1.4806 -0.9715
 6902TIP3   OH242196   5.499   4.631  16.580  0.0474 -0.0101 -0.1473
 6902TIP3    H142197   5.429   4.644  16.517 -0.5746  0.4573  0.6287
 6902TIP3    H242198   5.576   4.611  16.526  0.0414  2.4339 -1.1911
 6903TIP3   OH242199   1.450   2.151  12.140  0.0836 -0.2458  0.3765
 6903TIP3    H142200   1.539   2.178  12.163  0.8018 -1.9820 -0.1401
 6903TIP3    H242201   1.458   2.057  12.124 -2.1686 -0.7746  1.8824
 6904TIP3   OH242202   6.092   5.941  11.116  0.6041 -0.0191 -0.4396
 6904TIP3    H142203   6.014   5.956  11.062 -0.4379  0.7917  1.2084
 6904TIP3    H242204   6.143   5.877  11.067 -0.8458 -0.1726 -1.8280
 6905TIP3   OH242205   2.997   2.826  13.227 -0.1275 -0.2857  0.0742
 6905TIP3    H142206   3.088   2.831  13.196 -0.0588 -0.3369  0.2653
 6905TIP3    H242207   2.944   2.832  13.148  0.0515 -0.6436 -0.0764
 6906TIP3   OH242208   4.662   2.759  16.451 -0.4935 -0.0683 -0.8295
 6906TIP3    H142209   4.656   2.847  16.412 -1.1101 -0.1647 -0.9678
 6906TIP3    H242210   4.729   2.768  16.519  0.9021  0.0011 -2.1563
 6907TIP3   OH242211   3.344   6.201  12.003 -0.4408  0.2021 -0.4057
 6907TIP3    H142212   3.377   6.233  12.087  0.9412 -1.0695 -0.4098
 6907TIP3    H242213   3.259   6.244  11.992  0.8682  3.0889 -0.0340
 6908TIP3   OH242214   1.868   4.169   1.551  0.8178 -0.3331 -0.1026
 6908TIP3    H142215   1.815   4.206   1.481  1.2480 -0.7138 -0.6345
 6908TIP3    H242216   1.875   4.240   1.615 -2.0002 -0.8742  0.9723
 6909TIP3   OH242217   3.414   4.717  16.941 -0.9247 -0.6222  0.5192
 6909TIP3    H142218   3.407   4.784  17.009  0.6821 -0.1909  0.3094
 6909TIP3    H242219   3.397   4.764  16.860 -0.4948 -0.5999  0.4365
 6910TIP3   OH242220   0.285   5.615   0.522  0.2525  0.4068 -0.4858
 6910TIP3    H142221   0.263   5.636   0.613  0.9842 -0.0421 -0.1996
 6910TIP3    H242222   0.294   5.520   0.521 -1.2151  0.2455 -1.3722
 6911TIP3   OH242223   0.723   5.692   1.818  0.4126  0.1956 -0.4051
 6911TIP3    H142224   0.807   5.721   1.782  0.2427  1.3650  0.0675
 6911TIP3    H242225   0.726   5.722   1.909 -0.1478 -0.5649 -0.1377
 6912TIP3   OH242226   1.569   2.992   1.999  0.1547 -1.0260  0.0298
 6912TIP3    H142227   1.492   3.009   2.053  0.2616 -1.7120  0.4074
 6912TIP3    H242228   1.583   3.074   1.952  0.3850 -0.2247  1.4400
 6913TIP3   OH242229   6.633   3.216  12.941 -0.0110 -0.3396 -0.2625
 6913TIP3    H142230   6.543   3.194  12.917  0.0028 -1.7957  0.8738
 6913TIP3    H242231   6.687   3.162  12.884  0.1190 -0.3331 -0.1460
 6914TIP3   OH242232   5.685   5.025  13.041 -0.3759 -0.0692  0.1930
 6914TIP3    H142233   5.728   4.994  13.121 -1.1072  0.3122  0.7498
 6914TIP3    H242234   5.592   5.004  13.054 -0.4376 -0.4876 -0.7981
 6915TIP3   OH242235   4.158   0.067  12.705 -0.3259  0.0452  0.5697
 6915TIP3    H142236   4.108   0.088  12.783 -1.9868  0.4483 -0.5571
 6915TIP3    H242237   4.117  -0.013  12.670  0.5617 -0.2835  0.2355
 6916TIP3   OH242238   3.773   4.349  15.148  0.6249 -0.1182 -0.3076
 6916TIP3    H142239   3.718   4.335  15.070  0.7128  0.4471 -0.4761
 6916TIP3    H242240   3.742   4.432  15.184  1.3271  0.1842 -0.3757
 6917TIP3   OH242241   2.323   4.061   3.936 -0.2484  0.2823  0.4117
 6917TIP3    H142242   2.391   4.128   3.942 -0.7184  0.8270 -0.2324
 6917TIP3    H242243   2.267   4.075   4.012 -1.7783  2.2439 -0.9813
 6918TIP3   OH242244   0.763   2.436  16.388  0.2994  0.5096  0.2654
 6918TIP3    H142245   0.721   2.497  16.327  0.2281 -0.9057 -1.1720
 6918TIP3    H242246   0.802   2.492  16.455 -1.3279  2.0269  0.0187
 6919TIP3   OH242247   4.042   2.146  14.469  0.3607 -0.1416 -0.2808
 6919TIP3    H142248   4.008   2.204  14.538  2.0140  0.6122 -0.0652
 6919TIP3    H242249   4.134   2.133  14.492  0.3120 -1.9257 -0.9840
 6920TIP3   OH242250   3.449   2.358  11.047  0.2290  0.2507  0.7191
 6920TIP3    H142251   3.426   2.278  11.000 -0.5521  0.7102  0.3095
 6920TIP3    H242252   3.510   2.329  11.115 -0.0311 -0.6836  0.5617
 6921TIP3   OH242253   2.329   1.175   5.421  0.3984 -0.6823  0.5021
 6921TIP3    H142254   2.405   1.232   5.413  0.6085 -1.2004 -2.0788
 6921TIP3    H242255   2.357   1.105   5.480  0.4402  1.2739  2.9676
 6922TIP3   OH242256   6.718   2.983   2.850  0.6203 -0.1759 -0.3134
 6922TIP3    H142257   6.754   3.063   2.813  0.8657 -0.6984 -1.2402
 6922TIP3    H242258   6.779   2.914   2.823 -0.1400 -0.8217 -0.4381
 6923TIP3   OH242259   2.009   3.351  15.173 -0.2346 -0.2586 -0.4949
 6923TIP3    H142260   2.028   3.305  15.090 -0.8788  1.5233 -1.6826
 6923TIP3    H242261   2.026   3.443  15.154 -0.2939  0.1874  1.4203
 6924TIP3   OH242262   2.268   5.633  10.721 -0.3037 -0.6172 -0.7182
 6924TIP3    H142263   2.267   5.546  10.760 -2.8375 -0.7406 -0.9077
 6924TIP3    H242264   2.343   5.677  10.762  0.3202 -2.4826  0.2420
 6925TIP3   OH242265   5.377   5.403  17.176  0.3836  0.7201  0.0041
 6925TIP3    H142266   5.453   5.437  17.224 -0.5159  0.9547  1.3030
 6925TIP3    H242267   5.303   5.418  17.234 -0.4042 -1.3517 -0.3803
 6926TIP3   OH242268   1.921   4.231   3.158 -0.4909  0.1634 -0.3593
 6926TIP3    H142269   1.827   4.231   3.139 -0.8208 -1.9978  0.9478
 6926TIP3    H242270   1.930   4.292   3.232 -1.2423 -1.1735  0.8829
 6927TIP3   OH242271   5.046   4.209  15.526 -0.5054 -0.2416 -0.0653
 6927TIP3    H142272   5.085   4.285  15.567 -1.4303  0.4524 -0.4426
 6927TIP3    H242273   4.959   4.238  15.499  0.1686 -0.5390 -2.8423
 6928TIP3   OH242274   2.486   6.362   0.624 -0.0461  0.4918 -0.0131
 6928TIP3    H142275   2.397   6.361   0.658  0.9696 -0.2768  2.9465
 6928TIP3    H242276   2.515   6.271   0.628  0.7518  0.6504 -1.4342
 6929TIP3   OH242277   6.706   4.377  11.765 -0.1167 -0.7011 -0.1306
 6929TIP3    H142278   6.733   4.435  11.837 -0.7042 -0.2768 -0.2445
 6929TIP3    H242279   6.733   4.424  11.686 -2.2113  0.3155 -0.3034
 6930TIP3   OH242280   0.911   3.437   1.006 -0.1283  0.2371  0.1346
 6930TIP3    H142281   0.952   3.494   1.071  1.7518 -2.2399  1.2949
 6930TIP3    H242282   0.837   3.396   1.052  0.3643 -0.4865  0.2983
 6931TIP3   OH242283   2.419   1.327  16.447  0.2827 -0.3398 -0.4943
 6931TIP3    H142284   2.367   1.305  16.370  2.0971 -0.0689 -1.8682
 6931TIP3    H242285   2.502   1.359  16.412  1.4084 -0.7779  1.5852
 6932TIP3   OH242286   0.675   4.315   1.023 -0.2624 -0.4790 -0.5999
 6932TIP3    H142287   0.621   4.342   0.949  0.8343 -0.9320 -1.5889
 6932TIP3    H242288   0.698   4.224   1.004  1.4337 -0.0814 -0.5660
 6933TIP3   OH242289   0.049   3.811  13.714  0.3785  0.1103  0.2999
 6933TIP3    H142290  -0.033   3.826  13.761 -0.0706  0.8744 -0.7021
 6933TIP3    H242291   0.042   3.865  13.635  1.9382  0.3550  0.2970
 6934TIP3   OH242292   4.760   4.616  14.383 -0.1967 -0.7124 -0.3235
 6934TIP3    H142293   4.708   4.637  14.460 -1.5424 -0.7012 -1.1823
 6934TIP3    H242294   4.834   4.566  14.416  0.6945  1.5128  1.2588
 6935TIP3   OH242295   4.691   3.079  14.152 -0.4865  0.1947  0.0327
 6935TIP3    H142296   4.658   2.989  14.154  1.8387 -0.7421 -0.8440
 6935TIP3    H242297   4.764   3.078  14.214  0.2683  1.1657 -0.8270
 6936TIP3   OH242298   1.251   2.439   6.443 -0.5936 -0.0294 -0.1848
 6936TIP3    H142299   1.291   2.365   6.398  0.8170 -0.0562  1.0585
 6936TIP3    H242300   1.209   2.489   6.373 -0.7934 -1.4966 -1.1634
 6937TIP3   OH242301   5.429   1.082  11.904 -0.3552  0.3537 -0.0883
 6937TIP3    H142302   5.412   0.997  11.863 -1.3588 -0.4241  1.8310
 6937TIP3    H242303   5.523   1.096  11.890 -0.0022 -1.4280  0.1644
 6938TIP3   OH242304   4.400   5.293  12.752  0.6220 -0.0398 -0.0389
 6938TIP3    H142305   4.383   5.237  12.676  1.1211 -1.3962  0.8257
 6938TIP3    H242306   4.329   5.273  12.813  0.2722  0.9815 -0.0975
 6939TIP3   OH242307   2.265   3.299   5.109 -0.3773 -0.0648  0.8456
 6939TIP3    H142308   2.326   3.370   5.129  3.0083 -2.6619  0.7441
 6939TIP3    H242309   2.244   3.260   5.194 -4.4891  2.4663  1.2456
 6940TIP3   OH242310   4.590   2.916  10.934 -0.2536  0.1237 -0.1718
 6940TIP3    H142311   4.566   2.938  10.844 -0.2121 -2.4579 -0.9032
 6940TIP3    H242312   4.576   2.821  10.940  1.7068 -0.1252  1.9112
 6941TIP3   OH242313   4.775   2.356   3.486 -0.4251 -0.3155  0.1388
 6941TIP3    H142314   4.708   2.379   3.422  0.4049  1.0326 -0.2940
 6941TIP3    H242315   4.855   2.396   3.452  0.6227 -1.8738  0.6336
 6942TIP3   OH242316   1.100   0.039  10.676 -0.4617 -0.1764 -0.1820
 6942TIP3    H142317   1.142  -0.041  10.707  0.2964  0.7954  1.5281
 6942TIP3    H242318   1.171   0.090  10.636 -0.4117  0.5827  0.8174
 6943TIP3   OH242319   4.171   4.907  11.506  0.1917 -0.3723 -0.7002
 6943TIP3    H142320   4.156   4.818  11.538  0.6453 -0.4867 -0.7977
 6943TIP3    H242321   4.231   4.896  11.432 -0.6096 -0.0795 -1.4075
 6944TIP3   OH242322   0.316   0.069   0.136 -0.0944 -0.0919  0.0425
 6944TIP3    H142323   0.230   0.033   0.158 -0.8789  1.3750 -0.5126
 6944TIP3    H242324   0.297   0.147   0.084  1.6007 -0.6980 -1.5999
 6945TIP3   OH242325   0.263   2.539   1.570  0.3406 -0.0026 -0.3337
 6945TIP3    H142326   0.332   2.597   1.537  0.4355  1.1587  1.7173
 6945TIP3    H242327   0.186   2.595   1.577 -0.5284 -1.0062 -1.5145
 6946TIP3   OH242328   1.861   4.647   5.403  0.1418  0.6261 -0.0319
 6946TIP3    H142329   1.825   4.588   5.337  2.5138 -0.6220 -0.3221
 6946TIP3    H242330   1.785   4.677   5.453 -1.3307 -1.2951 -0.9963
 6947TIP3   OH242331   4.570   6.197   6.064  0.5330 -0.3069 -0.2880
 6947TIP3    H142332   4.528   6.165   6.144  1.3657  0.6702  0.5740
 6947TIP3    H242333   4.511   6.265   6.032  1.4393  1.1665  1.0006
 6948TIP3   OH242334   6.259   1.773  13.038 -0.1246  0.2021  0.2410
 6948TIP3    H142335   6.320   1.723  12.983 -0.9586 -0.0087 -0.5095
 6948TIP3    H242336   6.316   1.819  13.100  0.9413  1.3215 -1.4771
 6949TIP3   OH242337   1.246   2.073   2.296  0.5848 -0.2633 -0.0087
 6949TIP3    H142338   1.193   2.037   2.366  0.0710  1.6115  0.6116
 6949TIP3    H242339   1.337   2.053   2.321  0.3061 -1.5618  0.0196
 6950TIP3   OH242340   3.232   1.489   2.034 -0.4219  0.3966 -0.2094
 6950TIP3    H142341   3.180   1.487   2.115 -1.4186  0.5394 -0.8230
 6950TIP3    H242342   3.317   1.453   2.059 -0.0567  2.1693  1.3463
 6951TIP3   OH242343   2.117   3.218  14.922 -0.7556 -0.2334 -0.3375
 6951TIP3    H142344   2.091   3.165  14.846  1.4910 -0.0608 -1.3073
 6951TIP3    H242345   2.139   3.154  14.989  0.1802 -0.5137 -0.8901
 6952TIP3   OH242346   5.516   2.394   0.493  0.4259  0.4834  0.0429
 6952TIP3    H142347   5.520   2.451   0.569  0.4668  0.7159 -0.1322
 6952TIP3    H242348   5.585   2.427   0.435  1.0060 -0.2621  0.2964
 6953TIP3   OH242349   0.604   5.677   4.830  0.4900  0.1663  0.0349
 6953TIP3    H142350   0.541   5.648   4.763 -0.2270 -0.0116  0.7776
 6953TIP3    H242351   0.601   5.609   4.897  0.2999  0.9314  0.8206
 6954TIP3   OH242352   5.541   3.459   3.092  0.0553  0.1906 -0.0562
 6954TIP3    H142353   5.560   3.370   3.061  0.1608 -0.5615  2.0152
 6954TIP3    H242354   5.446   3.467   3.083 -0.0146 -0.3126  0.1641
 6955TIP3   OH242355   6.774   1.201   5.219 -0.0342  0.7354  0.0820
 6955TIP3    H142356   6.782   1.124   5.275  0.1176  0.9476  0.3555
 6955TIP3    H242357   6.864   1.221   5.192 -0.0287  1.0458  0.3243
 6956TIP3   OH242358   1.653   5.967   1.552 -0.4574 -0.1285  0.2714
 6956TIP3    H142359   1.649   5.925   1.466 -2.1133  0.1949  0.1654
 6956TIP3    H242360   1.744   5.954   1.580  0.2867  0.2597 -1.7656
 6957TIP3   OH242361   5.466   3.076  13.249  0.1122 -0.1332  0.3209
 6957TIP3    H142362   5.502   2.991  13.274  0.4084 -0.0539  0.1746
 6957TIP3    H242363   5.541   3.136  13.256 -0.0551  0.0827  0.2574
 6958TIP3   OH242364   5.819   6.569  16.415  0.5297 -0.1245  0.5287
 6958TIP3    H142365   5.859   6.542  16.332 -2.2170  0.5603 -1.1639
 6958TIP3    H242366   5.889   6.612  16.463  1.9620  0.5385 -1.9825
 6959TIP3   OH242367   2.575   2.908   2.879 -0.1191 -0.3784  0.2227
 6959TIP3    H142368   2.514   2.837   2.859  0.4133 -0.9134  0.4993
 6959TIP3    H242369   2.542   2.982   2.828 -0.9793 -0.6713  0.3363
 6960TIP3   OH242370   3.493   1.568   4.554 -0.0784  0.0651 -0.2731
 6960TIP3    H142371   3.445   1.487   4.573 -0.4316  0.7209  1.9372
 6960TIP3    H242372   3.442   1.611   4.485 -1.9264  0.0623  1.0192
 6961TIP3   OH242373   0.401   1.322   3.409  0.0339  0.8016  0.0854
 6961TIP3    H142374   0.446   1.317   3.324 -1.1406  1.9800 -0.6534
 6961TIP3    H242375   0.422   1.240   3.452 -0.0429 -0.2261 -1.7309
 6962TIP3   OH242376   2.600   4.992  11.752 -0.2340 -0.4315 -0.0180
 6962TIP3    H142377   2.680   5.029  11.715  0.4069 -0.6606  1.0839
 6962TIP3    H242378   2.540   4.986  11.678  0.1746  1.3253 -0.5324
 6963TIP3   OH242379   1.414   6.444   2.205 -0.0509 -0.6542  0.4566
 6963TIP3    H142380   1.426   6.476   2.115 -0.2377 -0.1535  0.6074
 6963TIP3    H242381   1.411   6.523   2.258 -0.6251 -0.9202  0.8261
 6964TIP3   OH242382   3.265   0.577  15.500  0.1142 -0.0816  0.3446
 6964TIP3    H142383   3.183   0.532  15.519 -0.2067  1.0111  1.7309
 6964TIP3    H242384   3.241   0.645  15.438 -0.1807  0.6487  1.2373
 6965TIP3   OH242385   3.129   2.035  11.210  0.4082  0.3263 -0.2638
 6965TIP3    H142386   3.220   2.027  11.238  0.3218 -0.2259 -0.1219
 6965TIP3    H242387   3.092   1.948  11.226 -0.0772  0.4784 -0.5536
 6966TIP3   OH242388   4.380   2.626   3.770 -0.0587  0.3652  1.2312
 6966TIP3    H142389   4.315   2.557   3.754 -0.8626  1.5323 -1.1286
 6966TIP3    H242390   4.462   2.589   3.739  0.2711 -0.7339  3.2433
 6967TIP3   OH242391   6.280   5.967   1.253 -0.2471 -0.1482 -0.6393
 6967TIP3    H142392   6.345   5.914   1.207 -0.4415 -2.3058  1.3890
 6967TIP3    H242393   6.207   5.907   1.269 -1.1771  1.1937  0.3469
 6968TIP3   OH242394   3.905   4.661  13.908 -0.2862 -0.2063  0.1094
 6968TIP3    H142395   3.840   4.697  13.969 -2.4183 -2.0523 -0.9030
 6968TIP3    H242396   3.984   4.713  13.922 -1.6123  1.3517  2.2959
 6969TIP3   OH242397   1.883   1.139   3.294  0.3124  0.3685  0.1370
 6969TIP3    H142398   1.893   1.121   3.201 -1.0722  1.5293 -0.2858
 6969TIP3    H242399   1.794   1.174   3.302  0.7009  1.1053  1.7599
 6970TIP3   OH242400   4.719   0.907  10.325  0.5654 -0.6562 -0.0479
 6970TIP3    H142401   4.678   0.878  10.406  0.4143 -0.5223 -0.0754
 6970TIP3    H242402   4.777   0.836  10.300 -0.2627 -1.2042 -0.4473
 6971TIP3   OH242403   5.732   4.353   3.767  0.1822 -0.0270 -0.5451
 6971TIP3    H142404   5.694   4.280   3.816  0.1018  0.6854  0.4823
 6971TIP3    H242405   5.657   4.407   3.743  0.4712  1.3259  1.3937
 6972TIP3   OH242406   2.410   2.468  11.410 -0.8778 -0.2516  0.3560
 6972TIP3    H142407   2.393   2.558  11.438 -0.4108 -0.3292  0.9207
 6972TIP3    H242408   2.341   2.448  11.347 -2.1457 -0.1683  1.6832
 6973TIP3   OH242409   6.031   3.274  10.929 -0.4982 -0.1564 -0.3995
 6973TIP3    H142410   6.117   3.233  10.931 -0.6667 -0.6105  2.5915
 6973TIP3    H242411   5.975   3.211  10.883 -0.0685 -1.8477  1.2752
 6974TIP3   OH242412   6.760   3.048  15.923  0.5789 -0.7298 -0.0265
 6974TIP3    H142413   6.718   3.027  16.007 -0.6563 -0.5367 -0.5695
 6974TIP3    H242414   6.853   3.055  15.944  0.1025  1.6850  1.8545
 6975TIP3   OH242415   1.319   4.119   6.519  0.2556  0.6420  0.9738
 6975TIP3    H142416   1.242   4.078   6.558  0.4998  0.8965  1.7555
 6975TIP3    H242417   1.284   4.175   6.449 -0.1653 -0.0725  0.6042
 6976TIP3   OH242418   6.365   1.255  11.867 -0.0089 -0.2688  0.6939
 6976TIP3    H142419   6.412   1.338  11.864  2.2723 -1.4852  0.3551
 6976TIP3    H242420   6.307   1.256  11.791 -0.5207  1.2451  1.0692
 6977TIP3   OH242421   4.291   5.916   6.539 -0.2820 -0.3421 -0.2718
 6977TIP3    H142422   4.223   5.929   6.605  1.0359  2.2501  0.7266
 6977TIP3    H242423   4.272   5.981   6.471  1.6687  1.2171  0.5500
 6978TIP3   OH242424   4.482   6.068   6.288  0.1799 -0.2798 -0.2768
 6978TIP3    H142425   4.391   6.037   6.290  0.1709 -0.2664 -0.4743
 6978TIP3    H242426   4.531   6.002   6.337 -0.2436  0.7538  1.6004
 6979TIP3   OH242427   5.696   4.184  10.482  0.2294  0.2483  0.3786
 6979TIP3    H142428   5.729   4.186  10.572  1.0079  0.2836  0.1018
 6979TIP3    H242429   5.751   4.119  10.438  0.6069  1.0352 -0.3495
 6980TIP3   OH242430   1.312   3.179   3.401 -0.2132  0.4110  0.3319
 6980TIP3    H142431   1.294   3.089   3.428 -0.3027 -0.2476 -1.7747
 6980TIP3    H242432   1.403   3.194   3.427 -0.0505 -0.4505  0.2925
 6981TIP3   OH242433   4.576   2.947  11.372 -0.4598 -0.0471  0.2619
 6981TIP3    H142434   4.664   2.976  11.399 -0.6527  0.8905 -0.0984
 6981TIP3    H242435   4.593   2.880  11.305 -0.0149  0.9004 -0.5955
 6982TIP3   OH242436   0.723   3.528   0.100  0.6761  0.1493  0.2298
 6982TIP3    H142437   0.738   3.520   0.006  2.0717 -1.3911  0.5420
 6982TIP3    H242438   0.722   3.622   0.116 -1.7344  0.5426 -1.5995
 6983TIP3   OH242439   0.599   6.162   1.465  0.3461 -0.2815 -0.1573
 6983TIP3    H142440   0.575   6.219   1.537  2.6157  1.6371 -0.7745
 6983TIP3    H242441   0.676   6.114   1.497  1.1386  0.3052 -1.1444
 6984TIP3   OH242442   4.966   1.372  16.660 -0.2468 -0.1110  0.3050
 6984TIP3    H142443   5.002   1.447  16.707  0.1244  0.0799 -0.2742
 6984TIP3    H242444   4.872   1.373  16.681  0.1289 -0.9187  2.2499
 6985TIP3   OH242445   5.909   0.491  11.673 -0.0956 -0.2757  0.0666
 6985TIP3    H142446   5.948   0.415  11.629  0.1551  1.0053 -2.0224
 6985TIP3    H242447   5.821   0.498  11.636 -0.0674  0.5276  0.1321
 6986TIP3   OH242448   4.489   4.684  14.236 -0.3174 -0.3754 -0.0903
 6986TIP3    H142449   4.435   4.716  14.308 -1.2110 -4.2326  1.2432
 6986TIP3    H242450   4.570   4.654  14.278 -0.0673 -0.9925 -0.9733
 6987TIP3   OH242451   3.161   1.449  16.008 -0.1352 -0.3498 -0.3114
 6987TIP3    H142452   3.210   1.498  16.075  1.2401  0.3605 -1.7607
 6987TIP3    H242453   3.166   1.358  16.037 -0.4933  0.0380  1.0822
 6988TIP3   OH242454   5.511   4.524   3.707  0.1906  0.1848 -0.0695
 6988TIP3    H142455   5.503   4.480   3.622  0.1001  1.6596 -0.8639
 6988TIP3    H242456   5.421   4.547   3.731  0.1822 -0.5308  0.6058
 6989TIP3   OH242457   6.302   2.207   0.783  0.7206 -0.1677  0.1142
 6989TIP3    H142458   6.247   2.216   0.860 -1.5926  0.4049 -1.5077
 6989TIP3    H242459   6.246   2.166   0.717  2.8628 -1.4176 -1.0619
 6990TIP3   OH242460   5.678   3.748   0.871  1.0271 -0.0861 -0.3358
 6990TIP3    H142461   5.633   3.665   0.860  1.9699 -0.8098  0.9994
 6990TIP3    H242462   5.689   3.782   0.781 -0.2762 -0.8782 -0.8125
 6991TIP3   OH242463   2.927   4.489  14.191 -0.6516 -0.3086  0.2405
 6991TIP3    H142464   2.979   4.530  14.260 -1.6600  1.0885  0.2207
 6991TIP3    H242465   2.898   4.406  14.228  0.2385 -0.3622  0.8402
 6992TIP3   OH242466   4.779   4.395  12.753  0.3245 -0.3354 -0.0402
 6992TIP3    H142467   4.752   4.315  12.798 -0.0916 -0.6452 -0.8245
 6992TIP3    H242468   4.698   4.443  12.737  0.6527  0.7135  1.2521
 6993TIP3   OH242469   1.166   5.510   0.700  0.6398  0.1330 -0.1975
 6993TIP3    H142470   1.191   5.419   0.683 -2.7407 -1.0635  0.4811
 6993TIP3    H242471   1.165   5.551   0.614 -0.3297 -1.2315 -0.8688
 6994TIP3   OH242472   2.598   2.035  11.617 -0.0305  0.5634 -0.5631
 6994TIP3    H142473   2.511   2.062  11.590 -0.2478  0.3718 -0.0654
 6994TIP3    H242474   2.611   1.950  11.575 -0.5250  0.0804  0.2295
 6995TIP3   OH242475   0.055   0.465  14.169  0.0314 -0.4153  0.0102
 6995TIP3    H142476   0.045   0.560  14.173  0.0881 -0.4256  0.4650
 6995TIP3    H242477  -0.035   0.432  14.163 -0.1614 -0.4179  2.0423
 6996TIP3   OH242478   6.695   1.109  12.166 -0.5186  0.5423  0.4592
 6996TIP3    H142479   6.618   1.109  12.108  0.4459  0.9813 -0.8566
 6996TIP3    H242480   6.711   1.202  12.184  1.8629  0.7956 -2.3073
 6997TIP3   OH242481   5.502   6.583   3.861 -1.2960  0.2673  0.2273
 6997TIP3    H142482   5.437   6.650   3.840 -2.0782 -1.0118 -1.8195
 6997TIP3    H242483   5.583   6.614   3.821 -0.8246  1.4307  1.9959
 6998TIP3   OH242484   5.608   0.947   3.961 -0.0021  0.3156  0.8143
 6998TIP3    H142485   5.515   0.942   3.979 -0.1819 -0.4962 -0.1976
 6998TIP3    H242486   5.648   0.882   4.018 -0.3374 -0.8804 -0.2553
 6999TIP3   OH242487   6.757   4.324  13.856 -0.9310  0.3139  0.4777
 6999TIP3    H142488   6.836   4.274  13.833  0.0135  1.5204  0.9679
 6999TIP3    H242489   6.715   4.271  13.924  1.0371  0.9696  2.3330
 7000TIP3   OH242490   5.267   3.866  15.272 -0.5740  0.4247 -0.1039
 7000TIP3    H142491   5.318   3.935  15.231  0.2363 -0.9556 -1.5130
 7000TIP3    H242492   5.250   3.898  15.361 -0.0206  2.2966 -0.6413
 7001TIP3   OH242493   3.840   5.802   0.021  0.6503 -0.4938  0.5564
 7001TIP3    H142494   3.851   5.877   0.079  0.1136  0.5855 -0.6863
 7001TIP3    H242495   3.883   5.730   0.067 -1.9873 -0.3898  3.5196
 7002TIP3   OH242496   2.654   5.100  15.515 -0.1236 -0.0233  0.0702
 7002TIP3    H142497   2.564   5.130  15.507 -0.5462 -1.0841  0.6179
 7002TIP3    H242498   2.698   5.132  15.437 -1.1616 -0.1297 -0.5698
 7003TIP3   OH242499   5.705   0.276   0.104 -0.7453  0.0271 -0.0780
 7003TIP3    H142500   5.619   0.238   0.123 -0.2589  0.1336  2.6077
 7003TIP3    H242501   5.751   0.208   0.056 -0.9986 -1.6086  1.8983
 7004TIP3   OH242502   5.440   1.008   4.877  0.3998 -0.5523  0.1440
 7004TIP3    H142503   5.494   1.066   4.823 -0.1009 -2.0773 -2.1180
 7004TIP3    H242504   5.358   0.998   4.828 -0.8314 -0.5886  2.0887
 7005TIP3   OH242505   5.760   6.084   4.016 -0.2982 -0.0527  0.4124
 7005TIP3    H142506   5.791   5.996   4.037  0.0996  0.3161  1.4716
 7005TIP3    H242507   5.836   6.140   4.031  0.3976  0.1955 -3.1476
 7006TIP3   OH242508   2.655   1.883  15.333 -0.5709 -0.1990  0.8377
 7006TIP3    H142509   2.580   1.924  15.376 -0.9570  0.0798 -0.0688
 7006TIP3    H242510   2.729   1.941  15.353 -0.6590 -0.2961  1.4588
 7007TIP3   OH242511   0.271   1.993  11.748 -0.6386  0.5561  0.5621
 7007TIP3    H142512   0.318   1.923  11.704 -0.6587  1.2690 -0.6545
 7007TIP3    H242513   0.196   1.950  11.789 -0.7997 -0.0956 -0.3941
 7008TIP3   OH242514   5.636   6.348  14.794 -0.1811 -0.5219 -1.1997
 7008TIP3    H142515   5.679   6.361  14.878  0.8295 -1.5217 -1.5413
 7008TIP3    H242516   5.542   6.357  14.814 -0.2390 -3.6882  0.7010
 7009TIP3   OH242517   0.429   2.601  12.527  0.4161  0.2365 -0.7908
 7009TIP3    H142518   0.465   2.543  12.460 -1.1573 -1.2084 -0.4480
 7009TIP3    H242519   0.471   2.685  12.511  2.0157 -0.7251 -1.9456
 7010TIP3   OH242520   5.435   2.399   3.949  0.3149 -0.2639 -0.4318
 7010TIP3    H142521   5.382   2.320   3.939  0.3495 -0.2213 -0.9695
 7010TIP3    H242522   5.506   2.372   4.007 -1.4920  0.2655  2.2443
 7011TIP3   OH242523   4.941   1.614  17.112  0.2910  0.0712 -0.3055
 7011TIP3    H142524   5.001   1.543  17.090  1.5188  1.2098 -0.7923
 7011TIP3    H242525   4.994   1.693  17.104 -0.5596  0.9517  1.8820
 7012TIP3   OH242526   3.182   0.032   5.091  0.0946 -0.3267 -0.2201
 7012TIP3    H142527   3.156  -0.057   5.064  1.2522 -0.3180 -1.5205
 7012TIP3    H242528   3.252   0.018   5.154 -0.0068 -0.3428 -0.1117
 7013TIP3   OH242529   0.521   0.886  12.255  0.4357 -0.0315 -0.3202
 7013TIP3    H142530   0.495   0.798  12.226  0.1535 -0.7725  1.9286
 7013TIP3    H242531   0.610   0.875  12.289  0.4752  0.6020 -0.2034
 7014TIP3   OH242532   2.640   6.038   0.118 -0.5563 -0.1740 -0.3984
 7014TIP3    H142533   2.687   5.956   0.101 -1.0624 -0.4626 -0.4300
 7014TIP3    H242534   2.672   6.066   0.204 -0.2494 -0.3085 -0.4662
 7015TIP3   OH242535   2.901   2.999  10.698  0.1216  0.1137 -0.0846
 7015TIP3    H142536   2.887   2.951  10.779 -2.2475 -0.9352 -1.0187
 7015TIP3    H242537   2.930   2.934  10.635  0.1641  0.5477 -0.5252
 7016TIP3   OH242538   5.054   5.111  16.457 -0.7118 -0.5477 -0.2610
 7016TIP3    H142539   5.101   5.078  16.533 -0.7564  1.3433  0.6286
 7016TIP3    H242540   5.109   5.085  16.382  0.0221 -1.2473  0.4993
 7017TIP3   OH242541   2.223   3.051  12.846 -0.2697  0.5222 -0.4757
 7017TIP3    H142542   2.133   3.072  12.869 -0.1093  0.6587  0.0423
 7017TIP3    H242543   2.224   3.048  12.750 -1.1211 -0.8139 -0.4746
 7018TIP3   OH242544   4.941   6.507  15.790  0.3100  0.0272 -0.2168
 7018TIP3    H142545   4.958   6.429  15.737 -0.0485  0.3798 -0.8535
 7018TIP3    H242546   5.023   6.521  15.839 -0.2674 -1.9195  1.4496
 7019TIP3   OH242547   1.319   3.853   0.787 -0.2023  0.5519 -0.2307
 7019TIP3    H142548   1.262   3.924   0.758  0.3497  0.7185 -0.9218
 7019TIP3    H242549   1.406   3.878   0.756  0.1924  0.1319  0.5156
 7020TIP3   OH242550   0.965   2.135   2.929  0.0699  0.1557 -0.3095
 7020TIP3    H142551   0.929   2.170   3.010  1.1189  1.0815 -0.2213
 7020TIP3    H242552   0.943   2.200   2.863  0.5251  0.1324 -0.4836
 7021TIP3   OH242553   0.066   5.922   5.703  0.0737  0.5261  0.6818
 7021TIP3    H142554   0.113   5.997   5.668  1.4585 -1.6938 -2.6760
 7021TIP3    H242555  -0.009   5.910   5.644 -0.2619 -0.6110  1.2978
 7022TIP3   OH242556   2.595   2.537   5.395 -0.9714 -0.1959 -0.3105
 7022TIP3    H142557   2.606   2.517   5.488 -0.2787 -0.4680 -0.4494
 7022TIP3    H242558   2.533   2.471   5.365 -0.7091 -0.5071 -0.1806
 7023TIP3   OH242559   5.867   2.322   3.485  0.1626 -0.0639  0.3432
 7023TIP3    H142560   5.785   2.318   3.533 -0.7586  0.5897 -1.1216
 7023TIP3    H242561   5.932   2.287   3.546 -1.0989 -0.1051  1.7144
 7024TIP3   OH242562   4.539   4.279  15.144 -0.2471 -0.4096  0.1429
 7024TIP3    H142563   4.609   4.339  15.169 -0.8276 -0.3577  1.8407
 7024TIP3    H242564   4.563   4.246  15.058  1.0063  0.8673 -0.0187
 7025TIP3   OH242565   1.742   4.940  11.601  0.1267 -0.4148  0.2528
 7025TIP3    H142566   1.697   5.018  11.630 -0.1565 -1.0706  1.6552
 7025TIP3    H242567   1.673   4.874  11.592  0.5043 -0.8074  0.2031
 7026TIP3   OH242568   3.613   6.402   0.821 -0.0717 -0.5560 -0.2678
 7026TIP3    H142569   3.558   6.455   0.762 -0.5406 -0.2807  0.4083
 7026TIP3    H242570   3.689   6.379   0.767  0.9137  2.0697 -0.1615
 7027TIP3   OH242571   6.572   4.737   0.090 -0.2807 -0.1141  0.1101
 7027TIP3    H142572   6.535   4.678   0.024 -2.5744 -1.6073  2.5406
 7027TIP3    H242573   6.633   4.682   0.139  3.5162  1.6613 -2.1746
 7028TIP3   OH242574   6.784   2.882   5.792 -0.0157 -0.0578 -0.3835
 7028TIP3    H142575   6.833   2.845   5.866  0.5587 -2.0651 -1.6927
 7028TIP3    H242576   6.838   2.863   5.715 -0.5833  1.9962 -1.3767
 7029TIP3   OH242577   2.575   0.332   5.021 -0.5225  0.3344  0.0256
 7029TIP3    H142578   2.634   0.279   5.075 -2.9424 -0.8392  1.6753
 7029TIP3    H242579   2.540   0.398   5.081 -0.7581  1.1661 -0.9863
 7030TIP3   OH242580   0.509   0.784   0.542  0.6124  0.1061  0.5278
 7030TIP3    H142581   0.456   0.710   0.515  3.9210 -1.4051 -2.5878
 7030TIP3    H242582   0.574   0.747   0.601 -0.3799  1.5282  2.6385
 7031TIP3   OH242583   6.676   5.828  14.195  0.7585 -0.2267  0.2886
 7031TIP3    H142584   6.702   5.829  14.287  2.5873 -0.5314 -0.1754
 7031TIP3    H242585   6.679   5.735  14.171 -0.8881 -0.2742  0.2126
 7032TIP3   OH242586   6.271   4.865  13.483  0.0821  0.2364 -0.1329
 7032TIP3    H142587   6.261   4.893  13.391  2.4372 -1.9852 -1.1789
 7032TIP3    H242588   6.350   4.910  13.513  1.4325 -1.8023 -0.4592
 7033TIP3   OH242589   0.888   2.829  15.098  0.3564  0.3514 -0.3065
 7033TIP3    H142590   0.809   2.812  15.047  1.4015  0.8343 -2.2031
 7033TIP3    H242591   0.951   2.862  15.033  1.9531  0.4402  1.2267
 7034TIP3   OH242592   1.745   1.876   1.507 -0.3564  0.1943 -0.3300
 7034TIP3    H142593   1.652   1.854   1.517 -0.1163 -0.3440  0.7604
 7034TIP3    H242594   1.749   1.971   1.522 -0.9231  0.4807 -1.8245
 7035TIP3   OH242595   1.947   0.950   1.693  0.4935  0.5197 -0.1358
 7035TIP3    H142596   2.023   1.009   1.688  1.4454 -0.5687  1.0803
 7035TIP3    H242597   1.873   1.006   1.669  1.2946  2.3573  1.3710
 7036TIP3   OH242598   0.935   4.567   4.961  0.1244 -0.3837  0.3166
 7036TIP3    H142599   0.911   4.478   4.936  2.2005 -0.7198 -0.7013
 7036TIP3    H242600   0.855   4.618   4.949 -0.7428 -1.8481 -0.3975
 7037TIP3   OH242601   3.546   0.065  13.841  0.0657 -0.3570  0.0672
 7037TIP3    H142602   3.468   0.107  13.877 -0.1047 -0.1035 -0.5698
 7037TIP3    H242603   3.525   0.053  13.748  0.7190 -0.4470 -0.0718
 7038TIP3   OH242604   2.496   0.391  15.306  0.0769  0.3171  0.2998
 7038TIP3    H142605   2.486   0.312  15.358 -0.1794  0.3272  0.2682
 7038TIP3    H242606   2.442   0.456  15.351  1.8598  1.0534  1.4961
 7039TIP3   OH242607   5.449   6.753  11.583  0.0430  0.1184 -0.0536
 7039TIP3    H142608   5.369   6.791  11.620  1.2433  1.3661  1.3482
 7039TIP3    H242609   5.419   6.708  11.504 -2.1277  0.1044  0.7023
 7040TIP3   OH242610   6.256   0.933   0.130  0.2055  0.6006  0.0906
 7040TIP3    H142611   6.194   0.980   0.074 -0.5340 -0.7821 -0.3084
 7040TIP3    H242612   6.254   0.980   0.214 -0.6475  1.1543 -0.2323
 7041TIP3   OH242613   5.314   6.445   1.282 -0.3323 -0.0258 -0.5398
 7041TIP3    H142614   5.291   6.404   1.199 -1.5864  1.0466 -0.7457
 7041TIP3    H242615   5.289   6.380   1.348 -1.8605  0.1613 -0.8885
 7042TIP3   OH242616   6.633   4.552  16.262  0.1984 -0.2192  0.1006
 7042TIP3    H142617   6.655   4.465  16.229  1.9293 -0.3569  1.4193
 7042TIP3    H242618   6.585   4.594  16.191 -0.8389 -2.2964 -0.4958
 7043TIP3   OH242619   5.898   6.261   5.037 -0.4305 -0.2292  0.2011
 7043TIP3    H142620   5.828   6.321   5.011 -0.1098  1.6494  3.2021
 7043TIP3    H242621   5.946   6.308   5.105  2.4118 -2.3445 -0.1640
 7044TIP3   OH242622   3.058   2.162  14.208 -0.2843 -0.7876 -0.6426
 7044TIP3    H142623   3.070   2.067  14.208 -0.4434 -0.9341  2.8606
 7044TIP3    H242624   2.969   2.175  14.242 -0.2372  0.6294 -0.9933
 7045TIP3   OH242625   1.686   1.094   1.266 -0.2993 -0.3095  0.4097
 7045TIP3    H142626   1.619   1.039   1.308 -0.8290  0.2822  0.3515
 7045TIP3    H242627   1.748   1.114   1.337 -1.4275  1.0605  1.0521
 7046TIP3   OH242628   5.307   4.544   5.862  0.1644  0.2563  0.1505
 7046TIP3    H142629   5.381   4.488   5.886  0.6844  0.5244 -0.7473
 7046TIP3    H242630   5.346   4.611   5.806 -0.8258  0.1872 -0.6473
 7047TIP3   OH242631   6.053   2.501  10.862  0.0500  0.5883  0.4995
 7047TIP3    H142632   6.037   2.462  10.776  0.1947  1.0925  0.2386
 7047TIP3    H242633   6.018   2.590  10.854  2.0893  1.4039  0.2320
 7048TIP3   OH242634   1.743   4.918   1.076 -0.4114 -0.3903 -0.2203
 7048TIP3    H142635   1.696   4.838   1.098  0.9830 -0.8136  1.4981
 7048TIP3    H242636   1.681   4.989   1.094 -1.4001 -1.0332 -1.0228
 7049TIP3   OH242637   2.205   0.775   2.000  0.3460 -0.4847  0.3769
 7049TIP3    H142638   2.290   0.762   2.042  0.6259  0.6600  0.2004
 7049TIP3    H242639   2.171   0.855   2.041 -0.1351 -0.2968 -0.3811
 7050TIP3   OH242640   5.199   2.757   3.287 -0.1131  0.5120 -0.0035
 7050TIP3    H142641   5.164   2.766   3.376  2.0768  2.3136  0.7981
 7050TIP3    H242642   5.225   2.665   3.281  0.4059  0.5143  1.5660
 7051TIP3   OH242643   2.281   4.717  11.285  0.3374  0.5628  0.3139
 7051TIP3    H142644   2.348   4.724  11.217  0.7505  0.6669  0.7301
 7051TIP3    H242645   2.330   4.709  11.367 -0.1004  3.0165  0.9117
 7052TIP3   OH242646   1.235   2.617  15.865  0.6713  0.0779 -0.4222
 7052TIP3    H142647   1.176   2.592  15.794  1.6425  1.0364 -1.6224
 7052TIP3    H242648   1.310   2.657  15.821  1.2404  0.8539  1.1556
 7053TIP3   OH242649   0.802   6.464  10.668  0.0490  0.3652  0.5332
 7053TIP3    H142650   0.865   6.394  10.683  0.2415  0.2437 -0.7681
 7053TIP3    H242651   0.725   6.419  10.633  0.0324  0.7678  0.0612
 7054TIP3   OH242652   0.687   3.660   4.177  0.6029 -0.0615  0.2094
 7054TIP3    H142653   0.708   3.742   4.222 -0.3581  1.0543 -1.2875
 7054TIP3    H242654   0.731   3.668   4.092  0.2688 -0.9770 -0.0539
 7055TIP3   OH242655   1.205   5.374  11.933 -0.0085  0.6344 -0.1656
 7055TIP3    H142656   1.212   5.311  12.004  1.9062  1.3509  0.3293
 7055TIP3    H242657   1.200   5.459  11.976  0.9003  1.0639 -0.8758
 7056TIP3   OH242658   4.891   4.903  11.939 -0.4213 -0.1869  0.2205
 7056TIP3    H142659   4.905   4.809  11.934 -0.8901 -0.3317  1.3077
 7056TIP3    H242660   4.920   4.927  12.028 -0.7328  0.6066  0.1200
 7057TIP3   OH242661   5.471   2.424  14.310  0.2795  0.4675 -0.0483
 7057TIP3    H142662   5.430   2.338  14.300  0.2840  0.2335  1.5706
 7057TIP3    H242663   5.442   2.474  14.234  0.7188 -1.1212 -1.3260
 7058TIP3   OH242664   2.061   0.241   1.663  0.0948  0.4635  0.2696
 7058TIP3    H142665   2.025   0.262   1.749  2.2306  1.4590  0.9956
 7058TIP3    H242666   2.065   0.325   1.617 -0.9172 -0.0380 -0.8016
 7059TIP3   OH242667   1.683   1.663  15.785  0.9439  0.3609 -0.2322
 7059TIP3    H142668   1.625   1.719  15.836  2.0497 -1.0386  2.7806
 7059TIP3    H242669   1.643   1.576  15.789  1.3012  0.1167 -1.4225
 7060TIP3   OH242670   2.634   0.066  13.781  0.0640 -0.4906  0.2183
 7060TIP3    H142671   2.606  -0.026  13.784  0.7505 -0.7152 -0.0437
 7060TIP3    H242672   2.569   0.113  13.833 -0.5760 -1.0538 -0.0559
 7061TIP3   OH242673   4.474   4.074   4.527  0.2133  0.6757  0.1852
 7061TIP3    H142674   4.416   4.100   4.455  1.2154 -0.0270 -0.9059
 7061TIP3    H242675   4.462   3.980   4.535  0.7404  0.6212  0.3638
 7062TIP3   OH242676   2.935   3.615   0.954  0.1203 -0.0809  0.7669
 7062TIP3    H142677   2.992   3.664   1.014  0.1387 -0.8601  1.4109
 7062TIP3    H242678   2.988   3.542   0.925 -0.0058  0.1087  0.0421
 7063TIP3   OH242679   1.873   4.945  15.519 -0.4148 -0.0273  0.0741
 7063TIP3    H142680   1.919   4.982  15.443 -2.0633  0.2924 -0.8048
 7063TIP3    H242681   1.916   4.861  15.534  2.2490  1.3459  1.0099
 7064TIP3   OH242682   1.721   4.438  16.592 -0.2314 -0.1051 -0.1828
 7064TIP3    H142683   1.683   4.398  16.514  1.1103 -2.3519  0.2213
 7064TIP3    H242684   1.816   4.437  16.576 -0.0340  1.0816  0.7450
 7065TIP3   OH242685   1.535   6.539  16.581  0.6065  0.5982  0.1675
 7065TIP3    H142686   1.631   6.540  16.591  0.6486 -0.3906 -0.0365
 7065TIP3    H242687   1.513   6.629  16.559  1.4827  0.8675  0.3248
 7066TIP3   OH242688   1.943   4.137  16.118 -0.2417 -0.0383  0.4897
 7066TIP3    H142689   2.000   4.180  16.053  0.6344  0.6449  1.6642
 7066TIP3    H242690   1.856   4.140  16.080  0.6432 -2.5175 -2.1089
 7067TIP3   OH242691   0.308   5.400   0.125  0.6140 -0.1799 -0.2072
 7067TIP3    H142692   0.351   5.475   0.082 -2.7163  0.5953 -2.5787
 7067TIP3    H242693   0.354   5.391   0.209  3.0808  2.5986 -1.0708
 7068TIP3   OH242694   6.716   5.794   5.484  0.5519  0.0810 -0.3400
 7068TIP3    H142695   6.630   5.768   5.519  1.2702 -1.2068  0.5720
 7068TIP3    H242696   6.753   5.712   5.451  0.9741  0.8262 -1.7886
 7069TIP3   OH242697   2.862   4.625  14.720  0.5085 -0.9060  0.0002
 7069TIP3    H142698   2.931   4.688  14.700  0.4917 -0.6068  0.8482
 7069TIP3    H242699   2.789   4.653  14.664  0.6523 -0.4494  0.0302
 7070TIP3   OH242700   3.097   0.173   5.731 -0.1821  0.5838 -0.4457
 7070TIP3    H142701   3.155   0.245   5.707 -0.0981  1.2904  1.6558
 7070TIP3    H242702   3.154   0.110   5.776 -0.5514 -0.0415 -0.8339
 7071TIP3   OH242703   0.846   1.275  13.593 -0.2015  0.0166 -0.0536
 7071TIP3    H142704   0.892   1.196  13.621 -1.9316 -1.5333 -1.3944
 7071TIP3    H242705   0.912   1.344  13.600  0.8142 -1.0964  3.0940
 7072TIP3   OH242706   0.557   3.679  15.837  0.1132 -0.3467  0.1478
 7072TIP3    H142707   0.559   3.622  15.759 -1.4642 -0.7380  0.3519
 7072TIP3    H242708   0.465   3.678  15.864 -0.2308  3.1185 -0.4223
 7073TIP3   OH242709   5.065   2.762   0.762  0.3570 -0.1493  0.4972
 7073TIP3    H142710   5.003   2.713   0.708 -0.1844  1.2158 -0.1480
 7073TIP3    H242711   5.047   2.733   0.852 -0.4629 -0.5637  0.2073
 7074TIP3   OH242712   6.357   6.634   4.297 -0.4608  0.1251  0.6929
 7074TIP3    H142713   6.399   6.585   4.226 -1.2355 -1.2162  1.1276
 7074TIP3    H242714   6.423   6.634   4.367  0.2964  1.4323  0.0262
 7075TIP3   OH242715   3.880   5.091  13.695 -0.7300  0.3431 -0.2538
 7075TIP3    H142716   3.790   5.120  13.706 -1.3058 -1.2669 -0.3764
 7075TIP3    H242717   3.877   4.997  13.712  0.6754  0.0058 -1.5696
 7076TIP3   OH242718   5.584   3.918   4.086  0.4939 -0.4522  0.0103
 7076TIP3    H142719   5.540   3.909   4.002  0.9923 -0.2895 -0.2718
 7076TIP3    H242720   5.545   3.997   4.124  1.5066  0.4968 -0.8524
 7077TIP3   OH242721   0.413   5.653   3.361  0.1708 -0.4082 -0.4010
 7077TIP3    H142722   0.377   5.736   3.392 -0.2323 -1.1439  1.2449
 7077TIP3    H242723   0.499   5.647   3.403 -0.4713 -1.5301  0.8316
 7078TIP3   OH242724   0.053   5.325   5.060  0.0425 -0.0363  0.3651
 7078TIP3    H142725   0.063   5.419   5.071 -0.3039  0.4724 -2.7759
 7078TIP3    H242726   0.132   5.297   5.015 -1.1817 -0.6134 -1.5500
 7079TIP3   OH242727   2.941   3.087  13.342 -0.6119 -0.2301  0.2029
 7079TIP3    H142728   2.970   3.072  13.432 -0.2287  0.6603  0.2376
 7079TIP3    H242729   2.950   3.002  13.300  1.9187 -0.0806  0.2678
 7080TIP3   OH242730   2.907   6.095  13.276  0.1542  0.5809 -0.0894
 7080TIP3    H142731   2.967   6.021  13.278 -0.9198 -0.3503 -0.8953
 7080TIP3    H242732   2.834   6.065  13.222 -1.6502  1.1745  1.8544
 7081TIP3   OH242733   5.821   2.269  13.359  0.3934  0.7965 -0.7237
 7081TIP3    H142734   5.863   2.346  13.319  2.7427 -0.5262 -0.9759
 7081TIP3    H242735   5.887   2.200  13.352  0.1375 -0.1187  3.4822
 7082TIP3   OH242736   4.676   0.253  12.568  0.1376 -0.0178  0.1622
 7082TIP3    H142737   4.626   0.324  12.529 -0.1609 -0.1922  0.2229
 7082TIP3    H242738   4.610   0.195  12.606  0.4130  0.0989  0.8346
 7083TIP3   OH242739   4.963   1.804  12.483 -0.4194 -0.3998  0.0397
 7083TIP3    H142740   4.896   1.866  12.510  0.5666 -0.6450  3.5681
 7083TIP3    H242741   4.930   1.718  12.510  1.1220 -0.5422  1.6997
 7084TIP3   OH242742   5.418   2.069   2.067 -0.1382  0.0929 -0.2973
 7084TIP3    H142743   5.362   1.993   2.051  0.1981 -0.1041 -0.5876
 7084TIP3    H242744   5.485   2.062   1.999 -0.3890  0.9296 -0.6328
 7085TIP3   OH242745   4.312   3.505   2.082  0.2093 -0.4674 -0.0003
 7085TIP3    H142746   4.229   3.489   2.038  0.4994 -3.5102  0.3564
 7085TIP3    H242747   4.374   3.444   2.041  1.9804  0.8398  0.5786
 7086TIP3   OH242748   2.354   3.762  16.482 -0.1807 -0.2034 -0.5446
 7086TIP3    H142749   2.442   3.794  16.502 -0.3593  1.0356 -1.6029
 7086TIP3    H242750   2.360   3.732  16.391 -0.9479  0.2861 -0.7667
 7087TIP3   OH242751   0.764   4.158   5.121  0.7400  1.0874 -0.3654
 7087TIP3    H142752   0.753   4.241   5.169 -0.3629  0.4152  0.6143
 7087TIP3    H242753   0.731   4.177   5.033  0.6064  1.7286 -0.1862
 7088TIP3   OH242754   5.725   1.502  11.161 -0.3041 -0.3859 -0.4509
 7088TIP3    H142755   5.791   1.569  11.177 -1.1453 -0.2257  3.4190
 7088TIP3    H242756   5.772   1.419  11.170 -0.3313 -0.2600  1.2500
 7089TIP3   OH242757   4.862   6.287  13.969  0.3708 -0.0806  0.7271
 7089TIP3    H142758   4.887   6.255  14.056  1.6572  0.6867  0.6733
 7089TIP3    H242759   4.946   6.309  13.927 -0.2110 -0.6439 -0.8004
 7090TIP3   OH242760   4.385   2.485   4.051 -0.0433  0.5441 -0.1340
 7090TIP3    H142761   4.358   2.568   4.089 -0.5803  0.2556  0.1332
 7090TIP3    H242762   4.310   2.457   3.998 -0.3062 -0.2977  0.6623
 7091TIP3   OH242763   0.189   0.684   4.711 -0.6170  0.3265 -0.0196
 7091TIP3    H142764   0.212   0.709   4.801  0.3693 -0.7681  0.0664
 7091TIP3    H242765   0.104   0.642   4.719 -1.5718  2.1800  0.0550
 7092TIP3   OH242766   6.389   3.519   5.159  0.1744  0.1902 -0.3156
 7092TIP3    H142767   6.332   3.595   5.143  1.1651  0.8441 -0.9187
 7092TIP3    H242768   6.329   3.445   5.165 -0.7349  0.8282 -1.0700
 7093TIP3   OH242769   1.351   6.163  12.483  0.1294  0.2807 -0.2219
 7093TIP3    H142770   1.397   6.099  12.537 -1.2713 -0.2156  0.4495
 7093TIP3    H242771   1.420   6.215  12.443  1.3029 -1.3200 -0.3843
 7094TIP3   OH242772   3.131   0.485  12.108 -0.4055 -0.2044 -0.8315
 7094TIP3    H142773   3.137   0.490  12.013 -0.8442 -0.3438 -0.8703
 7094TIP3    H242774   3.037   0.474  12.126 -0.2082 -1.4127 -0.4465
 7095TIP3   OH242775   5.426   2.207  14.103  0.4576 -0.5133 -0.6170
 7095TIP3    H142776   5.493   2.261  14.062  0.0214 -0.9039 -1.8960
 7095TIP3    H242777   5.405   2.141  14.037 -0.1937 -1.2409  0.2907
 7096TIP3   OH242778   2.409   2.409   3.143  0.2563 -0.0880 -0.3269
 7096TIP3    H142779   2.314   2.411   3.152  0.2905  0.9952  0.0016
 7096TIP3    H242780   2.442   2.405   3.233  0.5181  2.2178 -0.2437
 7097TIP3   OH242781   2.359   3.271  15.449 -0.6178  0.2189  0.2372
 7097TIP3    H142782   2.372   3.365  15.447 -1.2275  0.3041  0.1860
 7097TIP3    H242783   2.267   3.258  15.426 -0.7902 -0.3301  1.1598
 7098TIP3   OH242784   4.814   5.231   5.480 -0.0826 -0.3215  0.4009
 7098TIP3    H142785   4.754   5.278   5.422 -0.1373  1.1176  1.5717
 7098TIP3    H242786   4.885   5.203   5.423 -0.3082  0.7335 -0.4287
 7099TIP3   OH242787   5.451   6.409   2.202 -0.1797 -0.0849  0.0797
 7099TIP3    H142788   5.447   6.500   2.172 -1.2277 -0.5999 -1.4540
 7099TIP3    H242789   5.361   6.389   2.229  0.3132 -0.2900  1.6749
 7100TIP3   OH242790   3.794   1.248  12.094  0.4373 -0.7339 -0.2115
 7100TIP3    H142791   3.842   1.239  12.011  0.3859  1.1535 -0.4836
 7100TIP3    H242792   3.862   1.253  12.161  0.6649  1.2950 -0.5334
 7101TIP3   OH242793   5.413   3.621  11.643 -0.3415 -0.6068  0.3376
 7101TIP3    H142794   5.503   3.653  11.653  0.5272 -2.5308 -0.8912
 7101TIP3    H242795   5.422   3.535  11.602 -2.8331 -0.1298 -1.4177
 7102TIP3   OH242796   1.287   2.233  13.567 -0.3785 -0.0374 -0.4986
 7102TIP3    H142797   1.205   2.191  13.542 -1.2974  1.6909 -0.5622
 7102TIP3    H242798   1.311   2.286  13.491 -0.1420  0.8244  0.1623
 7103TIP3   OH242799   4.006   5.642  13.704  0.5724  0.2005  0.2475
 7103TIP3    H142800   3.985   5.576  13.638 -0.4132  2.4082 -1.7944
 7103TIP3    H242801   4.094   5.618  13.733  1.6534 -0.1885 -2.8819
 7104TIP3   OH242802   1.342   2.371   1.653  0.0106  0.7060 -0.0605
 7104TIP3    H142803   1.380   2.411   1.732 -2.4144  1.0969  1.0003
 7104TIP3    H242804   1.380   2.284   1.650  0.5237  0.8529  1.2820
 7105TIP3   OH242805   4.785   3.472   2.740 -0.6564  0.1315 -0.1017
 7105TIP3    H142806   4.809   3.386   2.703  0.0464 -0.1608  0.9828
 7105TIP3    H242807   4.702   3.494   2.698 -0.5068 -0.7721 -0.8986
 7106TIP3   OH242808   1.969   4.249  14.921 -0.1971  0.3737 -0.3444
 7106TIP3    H142809   2.004   4.322  14.971 -0.4211 -0.5525  1.2428
 7106TIP3    H242810   1.874   4.263  14.920 -0.1195  0.9242 -1.4279
 7107TIP3   OH242811   5.154   5.204  11.765  0.2080  0.5658 -0.0891
 7107TIP3    H142812   5.084   5.253  11.721  0.4212  0.2596 -0.7997
 7107TIP3    H242813   5.126   5.197  11.856 -0.8527  0.1639 -0.4287
 7108TIP3   OH242814   6.345   3.699  15.309 -0.0163  0.2390  0.4600
 7108TIP3    H142815   6.260   3.686  15.268  0.0278  0.2905  0.3537
 7108TIP3    H242816   6.326   3.698  15.403 -0.3113  1.4029  0.4371
 7109TIP3   OH242817   3.447   6.564  16.763  0.6739 -0.0864 -0.4344
 7109TIP3    H142818   3.460   6.471  16.783  2.1728  0.3474  0.8743
 7109TIP3    H242819   3.437   6.605  16.849 -1.2744  0.8180 -1.0523
 7110TIP3   OH242820   0.098   0.100  13.684 -0.1273  0.0636  0.4049
 7110TIP3    H142821   0.012   0.140  13.671 -0.2749 -0.7004 -1.2278
 7110TIP3    H242822   0.094   0.062  13.772 -1.9376 -1.0158 -0.0789
 7111TIP3   OH242823   0.557   3.845   1.675  0.2896  0.4384  0.5709
 7111TIP3    H142824   0.466   3.825   1.697  0.5132  0.6537  1.7492
 7111TIP3    H242825   0.558   3.940   1.664  0.5544  0.5678  1.5681
 7112TIP3   OH242826   5.070   6.426   4.524  0.0904 -0.2538 -0.2671
 7112TIP3    H142827   5.069   6.518   4.499  1.0873 -0.3442 -0.6959
 7112TIP3    H242828   5.088   6.379   4.443  2.1618 -0.6367  0.3328
 7113TIP3   OH242829   4.241   0.394  14.928 -0.2033 -0.1521 -0.1510
 7113TIP3    H142830   4.292   0.468  14.963 -1.3814  0.6354 -0.0188
 7113TIP3    H242831   4.258   0.323  14.990 -2.1079  1.1606  2.0613
 7114TIP3   OH242832   5.849   0.856  16.835  0.2792  0.3852  0.0961
 7114TIP3    H142833   5.927   0.802  16.824  0.8394  1.3569 -1.0117
 7114TIP3    H242834   5.847   0.878  16.928  0.8710 -0.3241  0.2782
 7115TIP3   OH242835   3.004   5.621  11.257 -0.4013  0.0754  0.2973
 7115TIP3    H142836   2.937   5.664  11.310  0.5839  2.0334  0.0428
 7115TIP3    H242837   2.975   5.634  11.166  1.2624  2.8740  0.0356
 7116TIP3   OH242838   2.059   4.997   4.909 -0.5423 -0.2964 -0.3058
 7116TIP3    H142839   2.058   5.084   4.950 -2.1798 -0.1806 -0.4917
 7116TIP3    H242840   2.151   4.981   4.889  0.1655  0.2391  2.1225
 7117TIP3   OH242841   4.733   3.907   1.033 -0.0288  0.2675 -0.3514
 7117TIP3    H142842   4.808   3.864   1.072 -1.6369 -0.2607  2.4963
 7117TIP3    H242843   4.763   3.937   0.948  3.0499 -0.7972  0.2471
 7118TIP3   OH242844   4.813   3.211  11.996 -0.5754  0.1552 -0.6367
 7118TIP3    H142845   4.786   3.235  12.085  1.3240  2.1285 -0.5230
 7118TIP3    H242846   4.880   3.144  12.008  1.0608  1.7746 -0.4288
 7119TIP3   OH242847   5.726   1.431  13.151 -0.1221 -0.4247 -0.5587
 7119TIP3    H142848   5.782   1.472  13.218 -2.3265 -0.9371  1.7549
 7119TIP3    H242849   5.729   1.337  13.171 -1.2140 -0.5352 -0.8573
 7120TIP3   OH242850   2.609   3.989  16.808 -0.3399  0.3458 -0.4884
 7120TIP3    H142851   2.655   4.072  16.818 -0.4825  0.3502  0.1571
 7120TIP3    H242852   2.518   4.009  16.831 -0.9856  0.6579 -3.0600
 7121TIP3   OH242853   3.517   0.633   0.847 -0.4852 -0.0466 -0.2589
 7121TIP3    H142854   3.502   0.673   0.932 -2.1310  1.3711 -1.1451
 7121TIP3    H242855   3.574   0.558   0.865 -0.0799  0.7231  1.9378
 7122TIP3   OH242856   4.692   5.665   5.508  0.2365 -0.2385 -0.2442
 7122TIP3    H142857   4.688   5.743   5.564 -3.2633 -0.2590 -0.2900
 7122TIP3    H242858   4.650   5.596   5.559  1.9699 -1.7789 -0.7971
 7123TIP3   OH242859   4.629   5.327   5.280  0.0669  0.3768 -0.3705
 7123TIP3    H142860   4.673   5.293   5.202  1.3610  1.6783 -0.2512
 7123TIP3    H242861   4.626   5.421   5.266 -0.4089  0.5447  0.8010
 7124TIP3   OH242862   4.636   1.549  12.676  0.0345 -0.3466  0.3018
 7124TIP3    H142863   4.606   1.600  12.752 -0.0346  0.4852 -0.2644
 7124TIP3    H242864   4.580   1.471  12.676 -0.5423  0.0560  0.6172
 7125TIP3   OH242865   2.430   0.474  12.054  0.2445 -0.1161  0.3136
 7125TIP3    H142866   2.337   0.461  12.067  0.1078 -0.5198 -0.9366
 7125TIP3    H242867   2.468   0.387  12.065  0.0529 -0.6090 -2.2450
 7126TIP3   OH242868   0.796   3.861  16.258  0.2315  0.3949  0.0293
 7126TIP3    H142869   0.805   3.839  16.165  0.0367 -0.5723  0.2289
 7126TIP3    H242870   0.853   3.798  16.303 -1.2963 -0.5547  0.7094
 7127TIP3   OH242871   5.043   3.368  12.705  0.2580 -0.0746 -0.0472
 7127TIP3    H142872   4.957   3.329  12.721 -0.0916  1.1239  1.2282
 7127TIP3    H242873   5.101   3.293  12.691 -0.7980 -0.9399  0.0233
 7128TIP3   OH242874   5.066   2.508   1.101  0.0204  0.0231 -0.0133
 7128TIP3    H142875   4.982   2.466   1.120 -0.8574  0.9240 -1.6646
 7128TIP3    H242876   5.043   2.598   1.080  1.0331 -0.2736 -2.8845
 7129TIP3   OH242877   6.383   5.799  14.656  0.5069 -0.5781  0.1987
 7129TIP3    H142878   6.370   5.785  14.562 -0.5033 -1.3313  0.4237
 7129TIP3    H242879   6.321   5.868  14.679 -1.4782 -2.4180  0.8084
 7130TIP3   OH242880   6.361   4.632   1.815 -0.4841  0.1353 -0.2919
 7130TIP3    H142881   6.327   4.700   1.756 -2.1208 -1.0933 -0.8349
 7130TIP3    H242882   6.407   4.572   1.757 -1.4395 -0.6750 -0.2256
 7131TIP3   OH242883   3.198   1.820  16.411  0.3278 -0.0637 -0.7541
 7131TIP3    H142884   3.225   1.756  16.477 -0.4510  0.3008 -0.0601
 7131TIP3    H242885   3.103   1.812  16.408  0.2939  0.4673 -1.2798
 7132TIP3   OH242886   4.722   5.538   4.972  0.0493 -0.1953  0.0311
 7132TIP3    H142887   4.695   5.612   4.917 -0.5205  0.2483  0.8861
 7132TIP3    H242888   4.698   5.564   5.061 -1.3966 -1.9905  0.2068
 7133TIP3   OH242889   6.219   2.870   0.721  0.3127 -0.4196  0.5643
 7133TIP3    H142890   6.230   2.964   0.735 -1.7886  0.2790 -1.6262
 7133TIP3    H242891   6.261   2.854   0.636 -0.8360 -1.0394  0.0906
 7134TIP3   OH242892   2.356   4.647  13.724 -0.2608  0.3478  0.6764
 7134TIP3    H142893   2.324   4.680  13.640 -0.4191 -0.2968  0.4816
 7134TIP3    H242894   2.315   4.562  13.734 -0.4382  0.5248  1.5333
 7135TIP3   OH242895   0.453   6.634  16.100  0.1615  0.5181 -0.0376
 7135TIP3    H142896   0.476   6.565  16.039  1.0350  0.6548  0.1257
 7135TIP3    H242897   0.525   6.636  16.163  0.4339  1.9425 -0.3597
 7136TIP3   OH242898   1.200   2.534  11.259 -0.8832  0.0649  0.1041
 7136TIP3    H142899   1.212   2.629  11.251 -0.3327  0.0750  0.9438
 7136TIP3    H242900   1.119   2.517  11.211 -2.3525  1.3360  1.9653
 7137TIP3   OH242901   5.645   2.909   4.085  0.1538  0.3759 -0.4782
 7137TIP3    H142902   5.635   2.814   4.088  0.4256  0.3672  1.3231
 7137TIP3    H242903   5.722   2.927   4.139 -0.0619  1.6278 -0.5594
 7138TIP3   OH242904   4.679   0.343   1.133  0.2219  0.5433  0.3738
 7138TIP3    H142905   4.625   0.288   1.076 -0.6905  0.2250  1.4993
 7138TIP3    H242906   4.687   0.426   1.086  2.0179 -0.6421 -1.5898
 7139TIP3   OH242907   0.977   3.895  14.428  0.2339 -0.2277  0.6975
 7139TIP3    H142908   0.995   3.802  14.418  0.8173  0.0388 -1.2805
 7139TIP3    H242909   1.057   3.938  14.396 -1.1651  0.9314 -1.5378
 7140TIP3   OH242910   4.984   4.537  15.918  0.1153 -0.5105 -0.4801
 7140TIP3    H142911   4.925   4.592  15.970  1.1055  2.5119 -2.2909
 7140TIP3    H242912   5.072   4.566  15.943  0.6645 -0.7920 -1.9687
 7141TIP3   OH242913   4.681   3.415   5.751  0.1068 -0.0140  0.1022
 7141TIP3    H142914   4.624   3.369   5.691 -1.1429  2.3346 -0.6534
 7141TIP3    H242915   4.637   3.409   5.836 -2.1523  2.8049 -0.6798
 7142TIP3   OH242916   3.704   4.656  11.920 -0.0002  0.5818 -0.1806
 7142TIP3    H142917   3.614   4.630  11.900 -0.1090  0.3614  0.5563
 7142TIP3    H242918   3.728   4.717  11.850 -0.4070 -0.0478 -0.8792
 7143TIP3   OH242919   3.324   3.087   1.610 -0.4018 -0.1887  0.3322
 7143TIP3    H142920   3.309   3.177   1.637  2.0208 -0.1644  1.8336
 7143TIP3    H242921   3.304   3.035   1.688 -1.1545 -0.9245 -0.3290
 7144TIP3   OH242922   5.446   1.635  17.132  0.5485  0.3103 -0.1810
 7144TIP3    H142923   5.414   1.686  17.058  0.1153  1.4215  0.7291
 7144TIP3    H242924   5.515   1.690  17.170 -2.0683  1.8852  2.7577
 7145TIP3   OH242925   1.825   4.859   4.729 -0.3982  0.3637 -0.5091
 7145TIP3    H142926   1.863   4.931   4.780  0.5217 -1.0234  0.8542
 7145TIP3    H242927   1.731   4.875   4.731 -0.1331  2.5659 -1.9191
 7146TIP3   OH242928   3.513   3.249  15.398  0.3931 -0.0090  0.1409
 7146TIP3    H142929   3.492   3.253  15.305 -0.4241 -0.8850  0.2772
 7146TIP3    H242930   3.450   3.187  15.434  0.3473  0.7438  1.3850
 7147TIP3   OH242931   0.119   4.416   0.385  0.1050 -0.1754  0.1388
 7147TIP3    H142932   0.120   4.401   0.291  0.1468  0.6734 -0.0076
 7147TIP3    H242933   0.166   4.341   0.422  1.0021 -0.0007 -0.5961
 7148TIP3   OH242934   3.255   2.167   2.073  0.7320  0.3738 -0.2462
 7148TIP3    H142935   3.200   2.091   2.056  0.3688  0.6842 -0.4849
 7148TIP3    H242936   3.343   2.139   2.048  0.2967  0.6728 -2.3028
 7149TIP3   OH242937   0.841   3.526   0.339 -0.3705 -0.1510  0.0243
 7149TIP3    H142938   0.793   3.517   0.256  1.2304 -1.8963 -0.7812
 7149TIP3    H242939   0.809   3.453   0.393  2.3221 -2.3585 -1.1109
 7150TIP3   OH242940   3.682   0.837   3.544 -0.1385 -0.0320  0.1557
 7150TIP3    H142941   3.681   0.928   3.515  0.3478  0.0536  0.4021
 7150TIP3    H242942   3.728   0.791   3.474  1.8268  0.3143  1.1554
 7151TIP3   OH242943   4.263   4.736   3.869  0.8244 -0.3044  0.2332
 7151TIP3    H142944   4.318   4.680   3.814 -1.3068  0.1650 -2.6607
 7151TIP3    H242945   4.220   4.795   3.806  0.0962  2.0102  2.7448
 7152TIP3   OH242946   1.110   5.250  16.601  0.0472 -0.1363 -0.2132
 7152TIP3    H142947   1.145   5.183  16.541 -0.9086 -0.3122 -0.5916
 7152TIP3    H242948   1.099   5.204  16.684  1.1974  0.0588  0.0627
 7153TIP3   OH242949   3.685   6.659   4.560  0.1193  0.5334 -0.1587
 7153TIP3    H142950   3.698   6.749   4.529 -1.0461  1.3267  1.5151
 7153TIP3    H242951   3.627   6.619   4.495  2.5598  0.1154 -2.2668
 7154TIP3   OH242952   0.474   4.384   1.960 -0.4925  0.3711 -0.1618
 7154TIP3    H142953   0.495   4.373   2.053 -4.1883 -0.1661  0.7785
 7154TIP3    H242954   0.488   4.297   1.922  0.0205  0.3241  0.1334
 7155TIP3   OH242955   2.915   5.086   1.725 -0.3872 -0.5343 -0.1850
 7155TIP3    H142956   2.944   5.171   1.691 -0.6156  0.0349  0.9813
 7155TIP3    H242957   2.890   5.104   1.816  1.8712 -2.3046  0.8984
 7156TIP3   OH242958   1.933   4.988  12.998 -0.7180  0.0124 -0.1215
 7156TIP3    H142959   2.011   5.042  13.007 -1.5201  1.2211 -0.2570
 7156TIP3    H242960   1.962   4.912  12.948  0.6189 -0.1032  0.7780
 7157TIP3   OH242961   3.181   1.606  13.146 -0.3116 -0.2351  0.2449
 7157TIP3    H142962   3.197   1.553  13.068 -1.6699 -1.3897  0.6977
 7157TIP3    H242963   3.199   1.696  13.119  1.3606 -0.8392 -0.7535
 7158TIP3   OH242964   6.724   6.242   5.318  0.0675 -0.0499 -0.2991
 7158TIP3    H142965   6.737   6.309   5.386 -2.4977  2.1531 -1.8024
 7158TIP3    H242966   6.636   6.207   5.335  0.4506 -1.4205 -0.9527
 7159TIP3   OH242967   5.880   3.512  10.754 -0.0769 -0.2319 -0.4760
 7159TIP3    H142968   5.850   3.603  10.755 -0.8246 -0.4653 -0.7910
 7159TIP3    H242969   5.805   3.462  10.787  1.2481 -0.5062  2.3434
 7160TIP3   OH242970   6.187   6.648  11.520  0.0143 -0.2095 -0.1466
 7160TIP3    H142971   6.135   6.623  11.597 -0.2973 -1.2835 -0.6882
 7160TIP3    H242972   6.180   6.743  11.517 -1.4726 -0.2858  0.1208
 7161TIP3   OH242973   0.597   2.397   5.016  0.2812 -0.1737  0.0889
 7161TIP3    H142974   0.629   2.323   4.965  0.7507  0.4352 -0.5211
 7161TIP3    H242975   0.505   2.406   4.990  0.2950 -0.3725 -0.0324
 7162TIP3   OH242976   4.574   5.737   0.609 -0.1314 -0.3218  0.2186
 7162TIP3    H142977   4.555   5.648   0.638 -2.8162 -0.4053 -1.5408
 7162TIP3    H242978   4.546   5.740   0.518  1.1939  1.9728 -0.1991
 7163TIP3   OH242979   5.917   6.397  14.692  0.3876 -0.2096  0.6496
 7163TIP3    H142980   5.914   6.361  14.604 -0.5920 -1.2041  1.0612
 7163TIP3    H242981   5.828   6.426  14.710  1.0437  2.1032  0.5113
 7164TIP3   OH242982   3.416   4.470   1.935  0.3086  0.0137 -0.5274
 7164TIP3    H142983   3.479   4.528   1.893 -0.0435  1.0026  0.2859
 7164TIP3    H242984   3.347   4.457   1.870 -0.8812  2.5720  0.1224
 7165TIP3   OH242985   0.026   0.403   0.481  0.1679 -0.3096 -0.0549
 7165TIP3    H142986   0.067   0.432   0.399 -0.3628 -1.0863 -0.6052
 7165TIP3    H242987  -0.007   0.484   0.521  2.3395  0.3738  0.5028
 7166TIP3   OH242988   5.918   4.678  11.034 -0.0020 -0.3117  0.0104
 7166TIP3    H142989   5.898   4.762  10.993 -0.8997  0.2515  1.4915
 7166TIP3    H242990   5.832   4.640  11.053  0.1053  0.9460  4.1549
 7167TIP3   OH242991   6.567   1.675  15.350  0.2718 -0.0859 -0.5229
 7167TIP3    H142992   6.584   1.615  15.278  0.6894  0.1489 -0.6239
 7167TIP3    H242993   6.645   1.730  15.355  0.1575  0.0439 -0.0319
 7168TIP3   OH242994   2.358   3.903  12.945 -0.4697 -0.2445  0.0298
 7168TIP3    H142995   2.444   3.879  12.912 -1.4993  0.3537 -3.5139
 7168TIP3    H242996   2.355   3.999  12.938 -1.5746 -0.2884 -0.3922
 7169TIP3   OH242997   4.670   5.031   5.178  0.4077  0.6708  0.9719
 7169TIP3    H142998   4.577   5.023   5.155  0.5935 -1.1807  0.7830
 7169TIP3    H242999   4.671   5.040   5.273  0.1523 -4.5120  1.7399
 7170TIP3   OH243000   1.118   4.251  12.541  0.2519 -0.0996  0.6028
 7170TIP3    H143001   1.166   4.271  12.461  1.2628 -1.8667  0.7004
 7170TIP3    H243002   1.030   4.229  12.511  0.0648  1.1521  0.1966
 7171TIP3   OH243003   1.924   0.316   1.910 -0.7736 -0.4521  0.3154
 7171TIP3    H143004   1.874   0.274   1.980 -0.7307  1.3971  1.5593
 7171TIP3    H243005   1.858   0.359   1.856 -0.6953  0.4197  0.8737
 7172TIP3   OH243006   1.388   4.799  15.841  0.0867  0.1986 -0.1950
 7172TIP3    H143007   1.426   4.762  15.762 -0.0281  1.7464 -1.0060
 7172TIP3    H243008   1.367   4.723  15.896 -0.1016 -0.9169 -1.7614
 7173TIP3   OH243009   0.544   3.619   4.513 -0.3738  0.2475  0.2529
 7173TIP3    H143010   0.467   3.628   4.457 -0.0122 -1.2801 -0.5421
 7173TIP3    H243011   0.561   3.708   4.544 -0.8651  1.0864 -1.6864
 7174TIP3   OH243012   3.494   1.179  12.068  0.5244  0.6388  0.0069
 7174TIP3    H143013   3.470   1.229  11.991 -0.1981 -0.7294 -0.6917
 7174TIP3    H243014   3.557   1.234  12.115  1.0024  1.4719 -1.5719
 7175TIP3   OH243015   4.642   2.298   2.678  0.1938 -0.0180  0.4491
 7175TIP3    H143016   4.551   2.274   2.699 -0.0717 -0.0985 -0.7039
 7175TIP3    H243017   4.686   2.215   2.662 -0.1256  0.0978 -1.2202
 7176TIP3   OH243018   4.579   1.102   1.177 -0.0461  0.9358  0.4609
 7176TIP3    H143019   4.618   1.135   1.259  0.0111  0.9918  0.4113
 7176TIP3    H243020   4.558   1.181   1.128 -1.9998  1.0006  1.2990
 7177TIP3   OH243021   3.179   6.776   3.313 -0.4945 -0.2354 -0.3013
 7177TIP3    H143022   3.143   6.699   3.269 -1.6920  0.6499 -0.9404
 7177TIP3    H243023   3.272   6.775   3.292 -0.2452 -2.1579  0.7212
 7178TIP3   OH243024   2.964   5.071  13.925  0.2213 -0.3770 -0.0011
 7178TIP3    H143025   3.010   5.147  13.958 -3.4692  1.1730  2.2434
 7178TIP3    H243026   2.978   5.003  13.991 -0.3641 -0.0169  0.5040
 7179TIP3   OH243027   2.194   3.762  14.616  0.1421  0.2033  0.3120
 7179TIP3    H143028   2.261   3.705  14.653  1.3383 -0.2362 -2.2688
 7179TIP3    H243029   2.243   3.828  14.566 -1.3100  0.9855 -0.1575
 7180TIP3   OH243030   2.527   4.193   1.068  0.0597 -0.2100 -0.2556
 7180TIP3    H143031   2.596   4.259   1.055  1.8490 -2.2812 -2.2107
 7180TIP3    H243032   2.495   4.174   0.979 -0.6802 -1.6783  0.2896
 7181TIP3   OH243033   2.171   5.197  11.210 -0.2588  0.3368 -0.2736
 7181TIP3    H143034   2.150   5.221  11.119  0.4431  0.8995 -0.2904
 7181TIP3    H243035   2.195   5.105  11.205  0.4988  0.5552 -0.7877
 7182TIP3   OH243036   1.759   0.962   5.195  0.7876  0.1171 -0.3754
 7182TIP3    H143037   1.779   1.029   5.260  0.1665  1.4234 -1.4628
 7182TIP3    H243038   1.750   1.011   5.113 -2.4585 -0.8888 -0.7526
 7183TIP3   OH243039   4.911   2.943  16.421  0.1305 -0.5289 -0.3412
 7183TIP3    H143040   4.911   3.024  16.472 -0.2039  0.1786 -1.4366
 7183TIP3    H243041   4.846   2.958  16.352 -0.1017 -1.8204 -0.4233
 7184TIP3   OH243042   4.439   6.408   6.444  0.0300 -0.5869  0.1695
 7184TIP3    H143043   4.531   6.382   6.453  0.3218  0.6926  1.1822
 7184TIP3    H243044   4.440   6.503   6.456 -1.2866 -0.3914 -1.0316
 7185TIP3   OH243045   5.556   0.221  15.839 -0.3462  0.0784 -0.2559
 7185TIP3    H143046   5.595   0.135  15.853 -1.0032  0.0873  2.0695
 7185TIP3    H243047   5.463   0.208  15.854 -0.5811  1.0368 -0.7786
 7186TIP3   OH243048   6.448   4.370  13.636 -0.3402 -0.1005 -0.0624
 7186TIP3    H143049   6.481   4.427  13.705  3.5970 -1.0151 -0.9182
 7186TIP3    H243050   6.490   4.285  13.653 -0.8672 -0.9062 -2.3904
 7187TIP3   OH243051   5.300   1.391  14.436  0.5128  0.0536 -0.1558
 7187TIP3    H143052   5.384   1.427  14.407  0.9557 -0.6821  0.1992
 7187TIP3    H243053   5.313   1.371  14.528  0.0421 -0.3672 -0.1791
 7188TIP3   OH243054   1.408   0.818  11.703 -0.1378 -0.3590  0.0458
 7188TIP3    H143055   1.462   0.781  11.633 -0.1002  0.9205 -0.6241
 7188TIP3    H243056   1.470   0.870  11.755 -0.9808  3.3285 -2.2234
 7189TIP3   OH243057   1.895   3.612   3.866 -0.2144  0.3799 -0.0317
 7189TIP3    H143058   1.962   3.569   3.812  0.2697 -0.3937  1.1471
 7189TIP3    H243059   1.825   3.632   3.804  0.0050 -1.1506 -0.8380
 7190TIP3   OH243060   2.084   5.788   4.744 -0.0256 -0.1536  0.1490
 7190TIP3    H143061   2.178   5.779   4.727 -0.0864 -1.2636  0.3194
 7190TIP3    H243062   2.078   5.864   4.802  0.7137  0.2317 -0.2575
 7191TIP3   OH243063   6.262   6.254  12.579 -0.3041  0.2209  0.9495
 7191TIP3    H143064   6.168   6.255  12.598  0.0527 -1.0868  3.0228
 7191TIP3    H243065   6.302   6.209  12.653  1.6092 -2.6893 -1.5803
 7192TIP3   OH243066   5.137   2.919   3.957 -0.4609  0.0888  0.2960
 7192TIP3    H143067   5.191   2.986   3.917 -0.9423  1.0524  1.1867
 7192TIP3    H243068   5.049   2.956   3.957 -1.3007 -1.6966 -1.7039
 7193TIP3   OH243069   5.707   0.221  15.164  0.4159 -0.0668 -0.5258
 7193TIP3    H143070   5.787   0.243  15.116  0.5749 -1.9411 -1.1786
 7193TIP3    H243071   5.658   0.164  15.105 -0.6604 -0.2488  0.5035
 7194TIP3   OH243072   5.807   4.033   5.043 -0.1722 -0.5044  0.3160
 7194TIP3    H143073   5.796   3.979   5.120  0.1913 -1.7059 -0.4462
 7194TIP3    H243074   5.791   4.122   5.073  0.3713 -0.9060  1.8591
 7195TIP3   OH243075   0.257   1.264   0.738 -0.3129 -0.1280  0.2951
 7195TIP3    H143076   0.272   1.182   0.692 -0.5548 -0.6239  1.0769
 7195TIP3    H243077   0.301   1.330   0.685 -0.8697 -0.6254 -0.8036
 7196TIP3   OH243078   3.749   6.093  10.626 -0.2558  0.3214  0.4287
 7196TIP3    H143079   3.843   6.098  10.606 -0.5427 -0.2401 -1.2082
 7196TIP3    H243080   3.717   6.182  10.612 -0.3642  0.0353 -1.3051
 7197TIP3   OH243081   1.617   0.409  11.804 -0.2063 -0.1239 -0.1062
 7197TIP3    H143082   1.544   0.376  11.751  0.0798 -1.2618  0.1871
 7197TIP3    H243083   1.682   0.439  11.739 -0.6474  0.2729 -0.3710
 7198TIP3   OH243084   2.870   6.174   4.259  0.5543 -0.3166  0.2592
 7198TIP3    H143085   2.784   6.138   4.282 -0.8787  3.3843  1.5389
 7198TIP3    H243086   2.873   6.170   4.164 -0.4076 -1.6872  0.2488
 7199TIP3   OH243087   4.198   6.766  15.346  0.0448 -0.4347  0.6389
 7199TIP3    H143088   4.158   6.839  15.393 -1.5245 -0.2317 -0.9052
 7199TIP3    H243089   4.208   6.698  15.412  0.4749  0.7578  1.8514
 7200TIP3   OH243090   6.457   1.064  12.026  0.3828  0.3397  0.6570
 7200TIP3    H143091   6.437   1.140  11.971 -0.5090  0.2171  0.7981
 7200TIP3    H243092   6.437   0.988  11.971 -0.5644  0.2162  1.1466
 7201TIP3   OH243093   6.748   2.923  15.172 -0.3452 -0.2894 -0.0983
 7201TIP3    H143094   6.804   2.902  15.247 -1.0869 -0.2500  0.4768
 7201TIP3    H243095   6.706   2.840  15.149  0.3083 -0.4305 -0.8544
 7202TIP3   OH243096   6.297   2.402  13.836  0.3965  0.9461 -0.4804
 7202TIP3    H143097   6.336   2.436  13.916  0.0292 -0.5784  0.3729
 7202TIP3    H243098   6.264   2.316  13.859 -0.2556  0.7087 -2.1244
 7203TIP3   OH243099   1.543   5.974   2.661 -0.3305 -0.5249  0.2762
 7203TIP3    H143100   1.563   5.964   2.754  1.4916 -1.0152 -0.1397
 7203TIP3    H243101   1.477   6.044   2.659  0.9473  0.8100  1.7996
 7204TIP3   OH243102   1.919   1.657   1.602  0.2474  0.1727 -0.0058
 7204TIP3    H143103   1.889   1.599   1.673 -0.4933 -0.0041 -0.4554
 7204TIP3    H243104   1.842   1.710   1.580  1.1569  2.0178  1.0395
 7205TIP3   OH243105   5.987   2.624  14.131 -0.4811  0.0442 -0.4659
 7205TIP3    H143106   5.941   2.700  14.095 -0.6942 -0.6217 -1.6461
 7205TIP3    H243107   5.972   2.555  14.067 -0.4869 -1.0654  0.7080
 7206TIP3   OH243108   4.588   2.063  13.910  0.3538  0.0969  0.5996
 7206TIP3    H143109   4.584   2.112  13.827  1.8144 -1.1471 -0.2621
 7206TIP3    H243110   4.665   2.007  13.900 -0.1242 -0.9210  2.3605
 7207TIP3   OH243111   0.861   2.008  10.898  0.7716  0.2023 -0.3356
 7207TIP3    H143112   0.914   1.957  10.837 -1.2948 -2.4151 -0.1560
 7207TIP3    H243113   0.865   1.958  10.980  1.1552  2.0777  0.8419
 7208TIP3   OH243114   4.009   0.180   1.504 -0.1007 -0.1291 -0.2703
 7208TIP3    H143115   4.026   0.109   1.566  0.4264  0.3201  0.1160
 7208TIP3    H243116   4.091   0.230   1.503 -0.5945  0.6905 -0.2407
 7209TIP3   OH243117   3.314   6.058   0.288 -0.4165 -0.2052  0.2727
 7209TIP3    H143118   3.310   5.963   0.300 -2.0222 -0.1397  0.4502
 7209TIP3    H243119   3.352   6.091   0.369 -0.5414 -0.6320  0.5063
 7210TIP3   OH243120   6.572   4.762  13.987 -0.5923  0.2530 -0.6988
 7210TIP3    H143121   6.528   4.811  14.056  1.8176  0.7403  0.6252
 7210TIP3    H243122   6.644   4.818  13.959  1.2267 -1.7550 -0.3586
 7211TIP3   OH243123   1.613   4.335  15.501  0.3529  0.4462  0.3440
 7211TIP3    H143124   1.562   4.277  15.445  0.0542  0.8232  0.2245
 7211TIP3    H243125   1.579   4.319  15.589 -0.7981  1.5542  0.1201
 7212TIP3   OH243126   5.161   3.586  11.721 -0.1255 -0.1639 -0.0334
 7212TIP3    H143127   5.247   3.599  11.681  1.0989 -2.3455  1.6819
 7212TIP3    H243128   5.102   3.573  11.646  1.2407  0.1291 -1.2114
 7213TIP3   OH243129   3.818   3.647  11.965  0.1859 -0.1375 -0.5730
 7213TIP3    H143130   3.847   3.556  11.957  2.2951  0.6004 -2.2082
 7213TIP3    H243131   3.852   3.676  12.050 -0.8903 -0.9590  0.1652
 7214TIP3   OH243132   6.102   0.956  12.436 -0.1473  0.1402 -0.7970
 7214TIP3    H143133   6.084   1.043  12.471  0.2024 -0.7361  1.7521
 7214TIP3    H243134   6.172   0.970  12.373  0.2682  1.6545 -0.0552
 7215TIP3   OH243135   5.910   3.233   5.518 -0.0456  0.4560  0.0533
 7215TIP3    H143136   5.824   3.261   5.550 -0.1954  0.2641 -0.1808
 7215TIP3    H243137   5.968   3.243   5.594 -0.6989 -1.4302  0.8810
 7216TIP3   OH243138   5.147   2.564  12.155 -0.0239 -0.0010 -0.6742
 7216TIP3    H143139   5.104   2.494  12.105 -1.5629  1.0840 -0.9573
 7216TIP3    H243140   5.199   2.518  12.221 -0.2055 -1.4184 -1.4747
 7217TIP3   OH243141   3.368   5.806   4.921 -0.4340 -0.0681  0.1116
 7217TIP3    H143142   3.338   5.888   4.881 -1.3018 -0.2673  0.3288
 7217TIP3    H243143   3.401   5.831   5.006  1.4799  0.3690 -0.7114
 7218TIP3   OH243144   1.018   1.769  13.492  0.1372  0.4006  0.0757
 7218TIP3    H143145   0.962   1.842  13.467  1.3910  1.1779 -0.5038
 7218TIP3    H243146   1.040   1.786  13.584 -0.8110 -0.0826  0.4093
 7219TIP3   OH243147   5.793   0.303  11.903  0.2634 -1.0330 -0.1748
 7219TIP3    H143148   5.830   0.358  11.833  2.0110 -0.2164  1.2928
 7219TIP3    H243149   5.826   0.215  11.884  0.5780 -0.8559 -0.4772
 7220TIP3   OH243150   0.635   0.563  16.522  0.8611  0.2655 -0.3758
 7220TIP3    H143151   0.688   0.642  16.517  0.2974  0.7606  1.1215
 7220TIP3    H243152   0.656   0.525  16.607 -2.1398  1.2121  0.9067
 7221TIP3   OH243153   4.170   5.339  11.576  0.7147  0.2149  0.1552
 7221TIP3    H143154   4.246   5.282  11.588  0.2999  0.0281  2.1781
 7221TIP3    H243155   4.143   5.324  11.485  0.4206 -3.0796  0.6866
 7222TIP3   OH243156   0.376   6.360  11.732 -0.3765 -0.1305  0.5985
 7222TIP3    H143157   0.407   6.345  11.643 -2.3317  0.8996 -0.3430
 7222TIP3    H243158   0.444   6.324  11.788  0.9752 -0.7079 -1.3042
 7223TIP3   OH243159   2.601   3.972  12.814  0.1526 -0.1080  0.6447
 7223TIP3    H143160   2.551   3.976  12.732  3.2569 -0.7682 -1.4350
 7223TIP3    H243161   2.591   4.059  12.852  0.0245  0.7965 -1.3336
 7224TIP3   OH243162   6.675   6.501  11.474  0.3989  0.0691  0.0136
 7224TIP3    H143163   6.654   6.423  11.423 -0.9688  0.0222  0.6105
 7224TIP3    H243164   6.608   6.565  11.449  0.2902  0.3670  1.0124
 7225TIP3   OH243165   1.975   5.757   1.078  0.1218 -0.7801 -0.3619
 7225TIP3    H143166   1.911   5.692   1.048  0.6210 -2.4467  1.9313
 7225TIP3    H243167   2.056   5.732   1.035 -0.0212 -0.6925 -0.6901
 7226TIP3   OH243168   3.020   0.833   0.395 -0.1855  0.4075  0.4910
 7226TIP3    H143169   3.104   0.829   0.441 -0.3064 -0.3152  0.6648
 7226TIP3    H243170   2.980   0.914   0.425  0.5254  0.8505  0.2726
 7227TIP3   OH243171   5.883   0.524  13.043 -0.1873  0.1480  0.1243
 7227TIP3    H143172   5.955   0.466  13.018 -0.9821 -0.4755 -0.7891
 7227TIP3    H243173   5.812   0.500  12.984 -0.3693  2.4285 -0.6492
 7228TIP3   OH243174   2.233   1.524   0.753 -0.1709  0.2298  0.2081
 7228TIP3    H143175   2.319   1.500   0.719  0.2765  1.2357  0.5832
 7228TIP3    H243176   2.249   1.604   0.803 -1.3115  0.3742  0.3619
 7229TIP3   OH243177   2.259   6.031   1.077  0.2045 -0.1947  0.2639
 7229TIP3    H143178   2.255   6.051   1.171  1.0708 -0.9214  0.4694
 7229TIP3    H243179   2.168   6.034   1.048 -0.1663 -0.7645  1.3070
 7230TIP3   OH243180   0.832   2.903   1.713 -0.3925  0.7758  0.3874
 7230TIP3    H143181   0.875   2.966   1.655 -0.7411 -0.3336 -1.1446
 7230TIP3    H243182   0.778   2.849   1.654  1.0778 -1.9562  1.3552
 7231TIP3   OH243183   5.383   1.586  14.212 -0.0222 -0.2042  0.4660
 7231TIP3    H143184   5.329   1.638  14.152  2.2946  0.7598 -0.9162
 7231TIP3    H243185   5.369   1.625  14.298 -2.5495 -0.8981  0.4585
 7232TIP3   OH243186   0.317   5.091  11.743  0.0788 -0.0175  0.2354
 7232TIP3    H143187   0.399   5.066  11.785 -0.2709  0.6555  1.3839
 7232TIP3    H243188   0.270   5.008  11.731  1.4243 -0.5651 -1.6236
 7233TIP3   OH243189   5.516   6.090   4.082  0.6571  0.1764  0.2048
 7233TIP3    H143190   5.610   6.107   4.083  0.4569  1.6395  2.9307
 7233TIP3    H243191   5.476   6.177   4.069 -0.3149 -0.0199  1.6582
 7234TIP3   OH243192   4.608   3.650   1.437  0.5505 -0.0391  0.3425
 7234TIP3    H143193   4.643   3.694   1.359 -0.2478  2.0323  1.0955
 7234TIP3    H243194   4.576   3.566   1.404 -1.5827  1.5406 -2.0322
 7235TIP3   OH243195   6.691   5.816   1.336 -0.3641 -0.1734 -0.0885
 7235TIP3    H143196   6.668   5.901   1.300  2.3049  0.9003  0.5269
 7235TIP3    H243197   6.742   5.836   1.415  1.7600 -2.2307 -0.8017
 7236TIP3   OH243198   5.899   1.509  16.749  0.2513 -0.0011 -0.4441
 7236TIP3    H143199   5.843   1.572  16.793 -1.1248 -0.4836 -1.4352
 7236TIP3    H243200   5.858   1.424  16.765  0.3713 -0.3052 -1.6370
 7237TIP3   OH243201   4.661   5.771   0.184  0.3686  0.5462  0.4356
 7237TIP3    H143202   4.701   5.858   0.185 -0.4821  0.9458  0.7715
 7237TIP3    H243203   4.735   5.710   0.185  0.9662  1.2642  0.5858
 7238TIP3   OH243204   1.449   0.597   0.833 -0.1345 -0.1512  0.1331
 7238TIP3    H143205   1.461   0.503   0.845 -1.4059 -0.3820 -0.2411
 7238TIP3    H243206   1.429   0.608   0.740 -1.4262  0.2969  0.4376
 7239TIP3   OH243207   1.295   4.256   4.590  0.3612  0.1954 -0.1747
 7239TIP3    H143208   1.214   4.208   4.571 -0.2243  1.8599 -2.3305
 7239TIP3    H243209   1.268   4.325   4.650  0.7095 -0.6297  0.9706
 7240TIP3   OH243210   4.550   2.852   2.861  0.7134 -0.4342 -0.1505
 7240TIP3    H143211   4.602   2.786   2.816  0.3041 -1.2365  0.5310
 7240TIP3    H243212   4.470   2.860   2.810  1.3165  0.5257 -0.9854
 7241TIP3   OH243213   3.428   4.593   3.767 -0.2711  0.3356 -0.3930
 7241TIP3    H143214   3.498   4.544   3.724  1.1810  0.4112  1.7310
 7241TIP3    H243215   3.357   4.593   3.703  1.6538  0.3172 -2.6916
 7242TIP3   OH243216   5.387   6.589  12.683  0.1367 -0.5288 -0.1028
 7242TIP3    H143217   5.424   6.662  12.734 -0.0407 -1.0740  0.8157
 7242TIP3    H243218   5.443   6.585  12.605 -0.2340  0.9883 -0.4875
 7243TIP3   OH243219   1.177   2.927  13.025 -0.5015 -0.1411 -0.3508
 7243TIP3    H143220   1.101   2.926  13.083  0.3440 -0.6022  0.7974
 7243TIP3    H243221   1.171   3.010  12.979 -1.3315  0.1345  0.2278
 7244TIP3   OH243222   0.764   6.718  10.507  0.0516 -0.1372 -0.5648
 7244TIP3    H143223   0.785   6.630  10.540 -1.0565 -0.4666 -0.6842
 7244TIP3    H243224   0.675   6.709  10.473  0.1286  0.9098 -1.0618
 7245TIP3   OH243225   0.185   1.056   3.587 -0.1417 -0.5905  0.2134
 7245TIP3    H143226   0.264   1.036   3.537 -0.4142 -1.8044  0.2264
 7245TIP3    H243227   0.141   1.125   3.538  1.3446  0.7266  0.6670
 7246TIP3   OH243228   1.506   4.581  13.382  0.2048 -0.4677  0.3995
 7246TIP3    H143229   1.550   4.661  13.355  0.1306 -0.4937  0.1943
 7246TIP3    H243230   1.557   4.511  13.341 -1.0974 -0.4200 -1.4346
 7247TIP3   OH243231   4.517   6.231   2.790 -0.4020  0.5517 -0.0006
 7247TIP3    H143232   4.494   6.322   2.805 -0.1762  0.7309 -0.6996
 7247TIP3    H243233   4.587   6.213   2.853 -0.2210  0.9603 -0.0797
 7248TIP3   OH243234   0.100   1.274  14.709 -0.2686  0.1407 -0.4118
 7248TIP3    H143235   0.059   1.338  14.766  1.4653  1.5893 -0.7089
 7248TIP3    H243236   0.129   1.204  14.767 -2.5182 -0.6443 -0.1307
 7249TIP3   OH243237   1.725   1.224  17.078 -0.6636  0.1301 -0.1693
 7249TIP3    H143238   1.808   1.270  17.089 -0.3997  0.1812 -2.1255
 7249TIP3    H243239   1.750   1.132  17.066 -0.9542  0.0081  0.1332
 7250TIP3   OH243240   2.457   2.779  14.627  0.3588 -0.0094 -0.0825
 7250TIP3    H143241   2.422   2.692  14.645 -0.3076  0.4511  0.9100
 7250TIP3    H243242   2.525   2.764  14.561 -0.4884 -1.1327 -0.7355
 7251TIP3   OH243243   5.590   6.676   5.323  0.4851  0.9949 -1.0905
 7251TIP3    H143244   5.638   6.715   5.396  1.2354  0.0766 -1.0867
 7251TIP3    H243245   5.635   6.595   5.304 -1.3166 -0.1306 -0.8242
 7252TIP3   OH243246   3.984   3.376  11.772  0.5400 -0.4450  0.4146
 7252TIP3    H143247   4.059   3.344  11.820 -0.1030 -0.2424  1.5814
 7252TIP3    H243248   3.918   3.306  11.781 -0.1485  0.2868  1.2314
 7253TIP3   OH243249   2.735   2.633  14.682  0.2563  0.7451  0.0454
 7253TIP3    H143250   2.672   2.590  14.740  0.2492 -0.9086 -1.1269
 7253TIP3    H243251   2.738   2.724  14.714  0.6881 -0.1877  2.9603
 7254TIP3   OH243252   2.542   2.053  10.934  0.3938  0.3453 -0.5287
 7254TIP3    H143253   2.497   2.061  10.850  0.5225  1.0061 -0.5430
 7254TIP3    H243254   2.621   2.105  10.924 -0.1139  1.3491  0.3488
 7255TIP3   OH243255   0.184   3.500  12.478 -0.1984 -0.0402 -0.2189
 7255TIP3    H143256   0.245   3.567  12.448 -0.7593  1.1905  1.2542
 7255TIP3    H243257   0.233   3.418  12.474  1.6265  0.9301  1.1053
 7256TIP3   OH243258   2.151   2.294   3.114 -0.4942 -0.6953 -0.3027
 7256TIP3    H143259   2.103   2.259   3.189 -1.8186 -2.3995 -1.8550
 7256TIP3    H243260   2.156   2.221   3.052  0.6912  0.5949 -1.8218
 7257TIP3   OH243261   3.973   6.555  15.058 -0.1248  0.4486 -0.2579
 7257TIP3    H143262   3.988   6.512  14.974  0.0224 -1.3173  0.6309
 7257TIP3    H243263   3.879   6.543  15.074 -0.1923  0.9626 -0.2683
 7258TIP3   OH243264   5.550   0.588  11.785  0.1461  0.0790 -0.5301
 7258TIP3    H143265   5.517   0.516  11.838  0.8008  0.8677  1.0264
 7258TIP3    H243266   5.501   0.583  11.703 -1.2814 -0.8802  0.3507
 7259TIP3   OH243267   2.048   3.079   3.171 -0.3037 -0.0966  0.3276
 7259TIP3    H143268   2.029   2.995   3.131  0.2623 -0.0590 -0.0333
 7259TIP3    H243269   1.963   3.118   3.189 -0.5727 -0.8714  0.7642
 7260TIP3   OH243270   3.826   0.939  16.525 -0.2475  0.2640  0.0660
 7260TIP3    H143271   3.761   0.968  16.590 -1.1224  0.5899 -0.9343
 7260TIP3    H243272   3.842   1.016  16.472  2.1342  0.6311  1.2089
 7261TIP3   OH243273   4.871   0.577  15.447  0.1355  0.2312  0.5195
 7261TIP3    H143274   4.925   0.595  15.370 -2.1186  1.2868 -0.8894
 7261TIP3    H243275   4.884   0.654  15.503 -0.9834  1.1731 -0.4799
 7262TIP3   OH243276   1.854   6.577   0.494 -0.2955 -0.2714  0.3993
 7262TIP3    H143277   1.838   6.496   0.543 -0.5572 -0.6244 -0.2502
 7262TIP3    H243278   1.914   6.551   0.424  1.2156  0.5296  1.3462
 7263TIP3   OH243279   4.837   5.177   1.428  0.5047  0.0580  0.0011
 7263TIP3    H143280   4.754   5.205   1.388  1.2141 -0.1289 -1.6661
 7263TIP3    H243281   4.837   5.220   1.514 -1.0354  0.5481 -0.2005
 7264TIP3   OH243282   0.705   5.918  16.750 -0.3996 -0.1389  0.3244
 7264TIP3    H143283   0.620   5.942  16.787  0.1185 -0.3429  1.7072
 7264TIP3    H243284   0.694   5.828  16.720 -0.4090 -0.5460  1.4702
 7265TIP3   OH243285   0.024   4.177   6.062 -0.4846 -0.7275  0.2289
 7265TIP3    H143286   0.026   4.264   6.102 -0.7555 -0.6242  0.0213
 7265TIP3    H243287  -0.029   4.124   6.122 -0.2566 -0.7728  0.3945
 7266TIP3   OH243288   5.645   1.045  16.729 -0.2350  0.0314  0.1734
 7266TIP3    H143289   5.706   0.974  16.708 -0.4989  0.4531 -2.3555
 7266TIP3    H243290   5.581   1.004  16.787  1.1644 -1.0293  1.0318
 7267TIP3   OH243291   3.738   5.048   2.413  0.0966  0.2206  0.3934
 7267TIP3    H143292   3.774   4.961   2.429 -0.9063 -0.4462 -0.7992
 7267TIP3    H243293   3.741   5.059   2.318  0.3234  1.5555  0.5254
 7268TIP3   OH243294   2.660   0.455   5.358 -0.1717 -0.2565 -0.2890
 7268TIP3    H143295   2.624   0.520   5.298  0.0294  0.0050 -0.1312
 7268TIP3    H243296   2.653   0.372   5.311 -2.2528 -0.4564  0.2613
 7269TIP3   OH243297   1.526   0.210  16.450  0.2975 -0.1086 -0.0999
 7269TIP3    H143298   1.577   0.138  16.488 -1.0646  0.4111  3.1023
 7269TIP3    H243299   1.443   0.169  16.425  0.0453  0.0696  0.4246
 7270TIP3   OH243300   4.619   3.439  13.412 -0.6363  0.5546  0.2905
 7270TIP3    H143301   4.562   3.412  13.340  0.0388  0.2018 -0.1335
 7270TIP3    H243302   4.583   3.522  13.442 -1.4333  0.2812  0.1080
 7271TIP3   OH243303   1.572   4.178   4.588 -0.1484 -0.3489  0.1313
 7271TIP3    H143304   1.607   4.163   4.676 -0.9601  0.1164  0.5453
 7271TIP3    H243305   1.477   4.178   4.600 -0.2951 -1.1175 -0.8909
 7272TIP3   OH243306   5.661   5.342  10.559 -0.0101  0.0344  0.5007
 7272TIP3    H143307   5.690   5.254  10.534 -1.0873 -0.0061 -0.7632
 7272TIP3    H243308   5.569   5.345  10.531  0.1546  1.7404  0.0317
 7273TIP3   OH243309   1.862   5.772  14.849  0.0556 -0.0704  0.1753
 7273TIP3    H143310   1.843   5.724  14.929 -1.4470  2.2631  1.3125
 7273TIP3    H243311   1.777   5.799  14.816  0.8387  2.1496 -0.1668
 7274TIP3   OH243312   3.633   4.603   5.171  0.0846  0.2349 -0.0957
 7274TIP3    H143313   3.559   4.660   5.151  0.2553  0.2201 -0.7739
 7274TIP3    H243314   3.688   4.656   5.228 -0.8456 -0.0483  1.1133
 7275TIP3   OH243315   4.385   1.057   3.181 -0.3463 -0.4240  0.3683
 7275TIP3    H143316   4.409   0.965   3.168  0.0698 -0.2907  0.1706
 7275TIP3    H243317   4.436   1.084   3.257  0.0191 -0.1851  0.0454
 7276TIP3   OH243318   0.381   2.880  12.887 -0.2185 -0.4058 -0.1538
 7276TIP3    H143319   0.443   2.949  12.911 -0.1050 -1.1171  1.7716
 7276TIP3    H243320   0.299   2.904  12.931 -0.5534 -0.8364 -0.5232
 7277TIP3   OH243321   3.706   6.196  17.026 -0.3856  0.6913 -0.0475
 7277TIP3    H143322   3.654   6.159  17.097 -1.1695 -0.2785 -1.0869
 7277TIP3    H243323   3.771   6.128  17.006 -1.4474  0.0585 -1.5634
 7278TIP3   OH243324   5.808   1.498   0.337 -0.2423  0.0840 -0.2421
 7278TIP3    H143325   5.882   1.515   0.395  0.0341  2.4239 -1.1894
 7278TIP3    H243326   5.779   1.409   0.361 -0.4333  1.0136  3.8051
 7279TIP3   OH243327   5.513   2.165   1.733 -0.4205  0.3200  0.0579
 7279TIP3    H143328   5.489   2.257   1.746  0.0300  0.5257 -0.5718
 7279TIP3    H243329   5.539   2.159   1.641  0.3413 -0.2629  0.3007
 7280TIP3   OH243330   0.354   3.845  13.675  0.2181  0.6882  0.0285
 7280TIP3    H143331   0.381   3.929  13.712 -1.6099  1.3956 -0.1443
 7280TIP3    H243332   0.263   3.835  13.702  0.5585 -1.5446  0.5458
 7281TIP3   OH243333   6.017   3.555   0.934  0.4851  0.1063  0.1888
 7281TIP3    H143334   6.093   3.497   0.939  0.3895 -0.2146 -1.5565
 7281TIP3    H243335   5.947   3.501   0.899 -0.9870  0.0641  2.9279
 7282TIP3   OH243336   6.224   5.395  15.045  0.3782 -0.3438  0.3922
 7282TIP3    H143337   6.154   5.395  14.979 -1.2528  0.8932  2.0065
 7282TIP3    H243338   6.292   5.450  15.008 -0.6643  0.6296 -0.1470
 7283TIP3   OH243339   0.421   6.067   2.636 -0.6752  0.3189  0.1372
 7283TIP3    H143340   0.417   6.162   2.651 -0.7717  0.0990  1.7785
 7283TIP3    H243341   0.422   6.030   2.725  0.4463 -1.1725 -0.4711
 7284TIP3   OH243342   2.237   1.984  15.000 -0.1087 -0.0355  0.6604
 7284TIP3    H143343   2.199   1.959  15.084 -1.8916 -1.2217 -0.4378
 7284TIP3    H243344   2.237   2.080  15.001 -1.4320 -0.0189  1.4504
 7285TIP3   OH243345   2.400   3.799   0.361 -0.3847 -0.6220  0.1667
 7285TIP3    H143346   2.408   3.894   0.373 -1.8211 -0.2823 -1.1863
 7285TIP3    H243347   2.306   3.783   0.358 -0.1697 -2.1094  0.3725
 7286TIP3   OH243348   6.228   5.122  14.447  0.5922 -0.3289 -0.4197
 7286TIP3    H143349   6.213   5.040  14.494 -0.2550 -0.7527 -1.3939
 7286TIP3    H243350   6.321   5.138  14.456  0.2761  0.3166  2.5250
 7287TIP3   OH243351   0.047   6.541   0.119 -1.0296  0.8863  0.3157
 7287TIP3    H143352   0.005   6.478   0.061  0.6440 -1.3576  1.3995
 7287TIP3    H243353   0.111   6.586   0.064  0.6955 -1.3699  0.3927
 7288TIP3   OH243354   0.069   4.353   1.619  0.4859 -0.5617 -0.1007
 7288TIP3    H143355   0.023   4.414   1.677 -0.2892 -0.9595 -0.2821
 7288TIP3    H243356   0.036   4.267   1.645  1.1384 -0.8513 -0.2326
 7289TIP3   OH243357   0.424   5.064  13.654  0.2765 -0.1251  0.5843
 7289TIP3    H143358   0.470   5.127  13.599 -1.3612  0.6885  0.0657
 7289TIP3    H243359   0.425   4.983  13.604 -2.2839  0.9131 -1.3633
 7290TIP3   OH243360   0.464   0.340  13.670  0.0892  0.4309  0.5921
 7290TIP3    H143361   0.466   0.436  13.662 -0.3140  0.4324  0.4695
 7290TIP3    H243362   0.546   0.311  13.630  0.3460  0.7424  0.8859
 7291TIP3   OH243363   1.660   5.680   1.570 -0.1666  0.6208  0.5543
 7291TIP3    H143364   1.651   5.751   1.633  1.9584  0.3695  1.2227
 7291TIP3    H243365   1.613   5.606   1.609 -2.1323  1.4978 -0.0057
 7292TIP3   OH243366   3.907   1.847   6.444 -0.9676  0.1988  0.1084
 7292TIP3    H143367   3.902   1.907   6.519 -2.5517  1.8675 -1.2373
 7292TIP3    H243368   3.830   1.791   6.453 -1.9306  1.2981 -0.9269
 7293TIP3   OH243369   4.024   1.062  12.606 -0.5852 -0.7015  0.2870
 7293TIP3    H143370   4.067   1.130  12.657 -1.0285 -0.2277  0.0398
 7293TIP3    H243371   4.096   1.009  12.571 -0.2574 -0.6253  0.8376
 7294TIP3   OH243372   3.232   3.925   3.167  0.7233 -0.1340 -0.0321
 7294TIP3    H143373   3.189   3.959   3.246  1.3532 -1.2665  0.8418
 7294TIP3    H243374   3.325   3.923   3.190  1.0432  0.4470 -1.1835
 7295TIP3   OH243375   6.280   4.256   1.105  0.2444 -0.2017  0.3797
 7295TIP3    H143376   6.230   4.226   1.028 -0.3065 -0.5881  0.8743
 7295TIP3    H243377   6.324   4.177   1.136  2.8170  0.4909 -1.2054
 7296TIP3   OH243378   3.353   4.257   0.080  0.2928  0.0464 -0.1205
 7296TIP3    H143379   3.306   4.302   0.151  0.4830  2.2912 -1.3132
 7296TIP3    H243380   3.423   4.210   0.124 -2.2660 -2.4869  1.6115
 7297TIP3   OH243381   4.805   4.163   2.173 -0.1427  0.2269  0.5615
 7297TIP3    H143382   4.880   4.159   2.233  1.9005  0.7581 -1.7826
 7297TIP3    H243383   4.778   4.255   2.174 -0.9020  0.0070  1.5202
 7298TIP3   OH243384   1.594   3.385  13.008  0.5436 -0.0749  0.0411
 7298TIP3    H143385   1.543   3.328  13.065  0.1243  0.1424 -0.1108
 7298TIP3    H243386   1.598   3.337  12.925  0.4417 -0.0159  0.0020
 7299TIP3   OH243387   1.340   2.672   4.142  0.2887 -0.1147  1.0967
 7299TIP3    H143388   1.374   2.685   4.054  0.4727 -0.1516  1.1624
 7299TIP3    H243389   1.417   2.675   4.199 -0.0920  3.5890  1.6877
 7300TIP3   OH243390   3.325   1.896   2.684 -0.7507  0.1073  0.4258
 7300TIP3    H143391   3.284   1.812   2.701 -0.7934 -0.1718 -0.9531
 7300TIP3    H243392   3.375   1.883   2.603  0.3544  1.0227  0.9280
 7301TIP3   OH243393   1.896   4.136   4.555 -0.0444 -0.0382  0.3929
 7301TIP3    H143394   1.824   4.199   4.557  1.1949  1.4489  0.1868
 7301TIP3    H243395   1.901   4.102   4.644  0.7460  1.9732  1.1916
 7302TIP3   OH243396   2.278   5.308   4.212 -0.5337 -0.1275  0.5319
 7302TIP3    H143397   2.194   5.285   4.253 -0.4572 -0.9603  0.2480
 7302TIP3    H243398   2.331   5.342   4.283 -0.3954 -1.5755  1.1436
 7303TIP3   OH243399   0.736   0.862  12.985  0.1252  0.1617  0.0714
 7303TIP3    H143400   0.746   0.930  13.051  0.0903  1.6959 -1.4412
 7303TIP3    H243401   0.643   0.837  12.991  0.6899 -1.8097  2.4735
 7304TIP3   OH243402   0.463   0.297  15.532  0.0030  0.0807 -0.6563
 7304TIP3    H143403   0.369   0.297  15.513  0.4055 -1.9172 -3.3025
 7304TIP3    H243404   0.473   0.234  15.604 -0.8550  2.3498  1.6006
 7305TIP3   OH243405   6.068   3.277  14.505  0.4379 -0.9702  0.6551
 7305TIP3    H143406   6.104   3.191  14.485 -1.8114 -1.7178 -0.5473
 7305TIP3    H243407   6.013   3.298  14.430  0.7907  1.4687  1.0102
 7306TIP3   OH243408   4.855   3.808  14.832  0.3696 -0.5347  0.0836
 7306TIP3    H143409   4.772   3.848  14.857 -0.1174 -1.4401 -0.0875
 7306TIP3    H243410   4.870   3.740  14.898  0.3419 -1.2215 -0.6079
 7307TIP3   OH243411   6.452   5.319   2.669  0.2372  0.0515  0.1241
 7307TIP3    H143412   6.460   5.252   2.601  0.5027  0.0268  0.1793
 7307TIP3    H243413   6.538   5.361   2.673  0.1368  0.2493  0.2426
 7308TIP3   OH243414   4.799   3.086  14.734  0.0823 -0.2463  0.0071
 7308TIP3    H143415   4.872   3.079  14.795  0.7151  1.0184 -0.5688
 7308TIP3    H243416   4.783   2.997  14.704  1.9006 -0.4572 -0.4216
 7309TIP3   OH243417   5.628   5.836   0.451  0.4375 -0.0781 -0.0912
 7309TIP3    H143418   5.567   5.780   0.499  0.7708  0.3606  0.8628
 7309TIP3    H243419   5.634   5.796   0.364  0.6195 -1.4997  0.5452
 7310TIP3   OH243420   2.881   3.980   2.061 -0.1280  0.2684 -0.3036
 7310TIP3    H143421   2.911   4.011   2.147  0.4414  0.5100 -0.5828
 7310TIP3    H243422   2.800   4.028   2.045 -0.1676  0.3198  0.0430
 7311TIP3   OH243423   4.602   0.531  10.626 -0.5613  0.2633 -0.1550
 7311TIP3    H143424   4.590   0.551  10.719 -1.5670 -0.8424 -0.0176
 7311TIP3    H243425   4.607   0.436  10.622  2.1739  0.3487 -0.9780
 7312TIP3   OH243426   2.732   0.755  12.667  0.1274 -0.2358  0.5869
 7312TIP3    H143427   2.655   0.740  12.723 -0.2307  0.0890  0.1841
 7312TIP3    H243428   2.744   0.672  12.621  0.6500 -0.6333  1.4092
 7313TIP3   OH243429   6.327   3.846   4.885 -0.1737 -0.0880 -0.1551
 7313TIP3    H143430   6.312   3.835   4.791 -0.8976  0.7883 -0.1639
 7313TIP3    H243431   6.310   3.939   4.901  0.1159 -0.1902  0.8099
 7314TIP3   OH243432   4.389   4.740   4.098 -0.2252 -0.4595  0.2333
 7314TIP3    H143433   4.349   4.724   4.012  0.4881 -3.1881  0.3118
 7314TIP3    H243434   4.346   4.676   4.155  1.6210 -0.9312  1.1415
 7315TIP3   OH243435   3.734   1.082   3.295 -0.0186  0.6310  0.1821
 7315TIP3    H143436   3.821   1.074   3.336  0.6640  0.3563 -1.2701
 7315TIP3    H243437   3.745   1.149   3.228 -1.4002  1.8384  1.1178
 7316TIP3   OH243438   5.847   4.050   4.241 -0.3677  0.1546 -0.2179
 7316TIP3    H143439   5.791   4.115   4.285 -1.6445 -2.8845  3.1148
 7316TIP3    H243440   5.931   4.057   4.286 -0.8106 -1.0631  0.8552
 7317TIP3   OH243441   5.261   5.907  14.962 -0.1015  0.6215 -0.3941
 7317TIP3    H143442   5.341   5.921  14.911  1.0433 -1.5546  0.6371
 7317TIP3    H243443   5.268   5.816  14.992 -3.2754  0.1771 -0.7180
 7318TIP3   OH243444   0.760   5.022   2.187 -0.0724 -0.5411  0.0975
 7318TIP3    H143445   0.676   4.984   2.212  0.4415 -0.4965  2.0651
 7318TIP3    H243446   0.739   5.082   2.116 -1.7749 -0.1851  0.8541
 7319TIP3   OH243447   2.385   2.134   1.179  0.5165 -0.3187 -0.4463
 7319TIP3    H143448   2.438   2.192   1.123  0.2260 -0.9566 -1.3937
 7319TIP3    H243449   2.427   2.048   1.171 -0.8086 -0.8972 -1.4398
 7320TIP3   OH243450   5.083   2.138  15.773 -0.0702 -0.6000 -0.5483
 7320TIP3    H143451   5.019   2.073  15.743  1.0100 -0.8465 -2.5045
 7320TIP3    H243452   5.157   2.085  15.804  0.6044 -0.3450 -1.6619
 7321TIP3   OH243453   1.074   1.748   4.380  0.0792 -0.1847 -0.4665
 7321TIP3    H143454   1.001   1.724   4.324 -0.9444  1.3646  0.1391
 7321TIP3    H243455   1.097   1.667   4.426 -0.9654 -0.7888 -0.9821
 7322TIP3   OH243456   1.877   3.030  14.461 -0.0523 -0.4740  0.4143
 7322TIP3    H143457   1.854   3.123  14.460  0.8456 -0.2222  1.4053
 7322TIP3    H243458   1.943   3.020  14.392 -0.3164 -0.4374  0.1518
 7323TIP3   OH243459   5.348   5.508  15.512 -0.3381 -0.1911 -0.6750
 7323TIP3    H143460   5.379   5.549  15.593 -0.8902  0.0110 -0.5586
 7323TIP3    H243461   5.288   5.572  15.474  0.2832 -0.0818 -1.4999
 7324TIP3   OH243462   2.779   1.464  12.809 -0.2260 -0.1887  0.0672
 7324TIP3    H143463   2.759   1.525  12.738  0.4904  1.5292  1.2647
 7324TIP3    H243464   2.744   1.380  12.780 -1.7965  0.9149 -1.3899
 7325TIP3   OH243465   1.278   2.716   0.177  0.4642  0.4381 -0.7472
 7325TIP3    H143466   1.252   2.732   0.267  0.1722 -0.9455 -0.5706
 7325TIP3    H243467   1.360   2.765   0.166  0.9804 -0.1200  0.5352
 7326TIP3   OH243468   3.525   2.604  12.671  0.0738  0.0834 -0.2388
 7326TIP3    H143469   3.620   2.610  12.679  0.0425  0.2797  0.0082
 7326TIP3    H243470   3.510   2.567  12.584  0.4221 -1.4991  0.3490
 7327TIP3   OH243471   4.979   6.083  16.302 -0.0545 -0.2833 -0.2735
 7327TIP3    H143472   4.887   6.107  16.291 -0.1145  0.4835  1.5489
 7327TIP3    H243473   5.009   6.137  16.375  1.5334 -1.3427 -0.1035
 7328TIP3   OH243474   3.657   3.860   3.529  0.3401  0.0615 -0.6539
 7328TIP3    H143475   3.713   3.870   3.607  3.1796  1.2708 -2.6707
 7328TIP3    H243476   3.686   3.779   3.489 -0.7894 -0.3193 -0.7292
 7329TIP3   OH243477   4.193   3.467   6.024 -0.3810  0.4203  0.9735
 7329TIP3    H143478   4.129   3.496   6.089 -2.3941 -1.1439 -0.1809
 7329TIP3    H243479   4.189   3.372   6.027  1.3151  0.2941  0.2705
 7330TIP3   OH243480   1.288   2.202  14.676  0.0312  0.1375 -0.0279
 7330TIP3    H143481   1.249   2.226  14.591  1.5840  0.9813 -0.5338
 7330TIP3    H243482   1.331   2.118  14.660  0.0076  0.1144  0.0288
 7331TIP3   OH243483   5.340   2.688  15.753  0.0897  0.4974  0.3654
 7331TIP3    H143484   5.351   2.615  15.814 -1.8568  0.4408  0.7206
 7331TIP3    H243485   5.405   2.753  15.781  1.4210 -0.8277  0.4285
 7332TIP3   OH243486   2.783   3.693   0.448 -0.0592 -0.4223  0.0545
 7332TIP3    H143487   2.837   3.756   0.400  0.6379 -0.4382  0.8131
 7332TIP3    H243488   2.722   3.659   0.382 -0.0302  0.5756 -0.5059
 7333TIP3   OH243489   0.544   1.197  14.602  0.1701 -0.6736 -0.1908
 7333TIP3    H143490   0.474   1.175  14.541  1.1679 -1.1647 -1.2097
 7333TIP3    H243491   0.535   1.133  14.673 -0.1704 -0.9970 -0.5183
 7334TIP3   OH243492   6.232   5.396   1.898  0.3125  0.4123  0.1939
 7334TIP3    H143493   6.220   5.483   1.861  0.8650 -0.2943 -1.7641
 7334TIP3    H243494   6.324   5.374   1.879 -0.4702 -1.5565 -1.6099
 7335TIP3   OH243495   5.571   6.342  11.619  0.1314  0.6609  0.4002
 7335TIP3    H143496   5.582   6.280  11.692  1.0283 -0.6305 -0.7743
 7335TIP3    H243497   5.488   6.386  11.637 -1.4551 -2.1286  0.4272
 7336TIP3   OH243498   4.294   6.737   4.232 -0.7491 -0.2252 -0.3019
 7336TIP3    H143499   4.264   6.727   4.142 -3.5062 -0.9582  0.6226
 7336TIP3    H243500   4.342   6.656   4.250  0.2076  0.1105 -1.1915
 7337TIP3   OH243501   6.233   6.309  13.427 -0.2591 -0.8620 -0.2803
 7337TIP3    H143502   6.298   6.347  13.369 -0.5539 -0.8813 -0.6238
 7337TIP3    H243503   6.282   6.284  13.506  0.6236 -2.9935 -1.4181
 7338TIP3   OH243504   0.040   4.927  10.850  0.0584 -0.4290 -0.3107
 7338TIP3    H143505   0.002   4.843  10.825 -0.0556 -0.3653 -0.3540
 7338TIP3    H243506   0.104   4.946  10.781 -1.1449  0.3529 -1.2565
 7339TIP3   OH243507   5.629   3.105  12.500  0.3518 -0.4089 -0.7658
 7339TIP3    H143508   5.659   3.018  12.524  1.4401 -0.3930 -1.9328
 7339TIP3    H243509   5.705   3.147  12.460  0.5997  1.9835  1.8840
 7340TIP3   OH243510   4.250   1.048   6.375 -0.7029  0.1458 -0.4955
 7340TIP3    H143511   4.163   1.087   6.379 -0.8062  0.2635 -2.5801
 7340TIP3    H243512   4.238   0.957   6.404 -1.0836  0.7006  1.1992
 7341TIP3   OH243513   6.619   2.707  15.780 -0.0128  0.9256 -0.1651
 7341TIP3    H143514   6.534   2.716  15.737  0.0560  2.8931 -0.0135
 7341TIP3    H243515   6.598   2.687  15.871 -0.2871  0.5426 -0.3118
 7342TIP3   OH243516   1.751   0.693  14.641  0.0491 -0.2488 -0.6921
 7342TIP3    H143517   1.820   0.734  14.694  0.6016 -1.1312 -0.7024
 7342TIP3    H243518   1.686   0.762  14.629 -0.0157  0.0401  0.9911
 7343TIP3   OH243519   2.949   0.622   5.887 -0.4429  0.2405 -0.4127
 7343TIP3    H143520   2.861   0.643   5.855 -0.6233 -0.6786 -0.5331
 7343TIP3    H243521   2.940   0.534   5.924  0.1682  0.5855  0.5807
 7344TIP3   OH243522   4.314   4.246   2.962  0.7359 -0.6920  0.5350
 7344TIP3    H143523   4.367   4.314   3.004  0.7169 -0.9440  0.9793
 7344TIP3    H243524   4.224   4.276   2.972  0.7191 -0.8314  0.8360
 7345TIP3   OH243525   1.492   3.019   1.504 -0.2721  0.1821  0.6680
 7345TIP3    H143526   1.457   2.930   1.495 -0.6089  0.2755  1.0173
 7345TIP3    H243527   1.416   3.075   1.491  0.4185  0.5690 -2.5491
 7346TIP3   OH243528   6.371   1.429  16.740  0.4904  0.2348 -0.0973
 7346TIP3    H143529   6.431   1.490  16.783 -0.4419  1.3602 -0.3245
 7346TIP3    H243530   6.287   1.476  16.738 -0.6179 -1.5750  0.9390
 7347TIP3   OH243531   4.984   1.252  10.374 -0.0566 -0.0309 -0.2396
 7347TIP3    H143532   5.006   1.335  10.416  0.3964  0.6693 -1.7938
 7347TIP3    H243533   5.053   1.239  10.309 -1.1212 -0.6997 -1.2716
 7348TIP3   OH243534   6.481   5.971  15.878  0.5830  0.1447  0.0522
 7348TIP3    H143535   6.499   5.879  15.897  1.1519 -0.3744 -2.6499
 7348TIP3    H243536   6.532   5.990  15.799 -1.6411  2.0023 -1.0491
 7349TIP3   OH243537   3.813   6.120  12.228 -0.0870  0.5339 -0.2905
 7349TIP3    H143538   3.880   6.159  12.282 -0.1939  0.4896 -0.1253
 7349TIP3    H243539   3.861   6.077  12.157  0.1118 -0.2314  0.2959
 7350TIP3   OH243540   2.559   6.701  12.743  0.1162 -0.0858  0.1989
 7350TIP3    H143541   2.574   6.633  12.677  2.5073 -0.0064  0.5450
 7350TIP3    H243542   2.518   6.656  12.816 -1.2172 -0.4811 -0.7663
 7351TIP3   OH243543   5.126   2.566   2.488  0.3286 -0.3697 -0.3568
 7351TIP3    H143544   5.192   2.624   2.527  0.4476  0.1005 -1.2276
 7351TIP3    H243545   5.064   2.625   2.446 -1.0901 -0.7714  1.0690
 7352TIP3   OH243546   3.023   5.882   2.904 -0.7471  0.2918 -0.5015
 7352TIP3    H143547   3.045   5.931   2.825  2.3523  0.8536  0.5469
 7352TIP3    H243548   3.064   5.797   2.892  1.8196  1.1378  1.2859
 7353TIP3   OH243549   1.348   3.038  12.130 -0.6325 -0.0654 -0.1187
 7353TIP3    H143550   1.335   3.106  12.064 -1.9666  0.2367  0.4332
 7353TIP3    H243551   1.277   2.976  12.113  0.5239 -1.3202 -0.5762
 7354TIP3   OH243552   3.889   2.767   0.746  0.2117  0.0613  0.2511
 7354TIP3    H143553   3.912   2.855   0.775  0.6684 -0.3369  1.1466
 7354TIP3    H243554   3.793   2.765   0.747  0.1965  0.0193  1.9540
 7355TIP3   OH243555   4.681   6.615   6.593 -0.6812 -0.5480 -0.2402
 7355TIP3    H143556   4.589   6.612   6.564 -0.6232  1.4793 -0.7967
 7355TIP3    H243557   4.694   6.706   6.620  0.9038 -1.0540  0.8113
 7356TIP3   OH243558   4.223   4.807  15.322  0.0440 -0.2791  0.0334
 7356TIP3    H143559   4.153   4.782  15.262 -1.4672 -0.7867  1.9188
 7356TIP3    H243560   4.283   4.733  15.321  0.8041  0.2960 -1.8483
 7357TIP3   OH243561   2.053   2.748  16.155  0.6672 -0.3727 -0.0075
 7357TIP3    H143562   2.144   2.771  16.135  0.8890 -1.3414 -0.1889
 7357TIP3    H243563   2.006   2.762  16.073  1.2017 -2.4672 -0.7455
 7358TIP3   OH243564   2.293   3.311   4.239  0.1212  0.2136  0.5437
 7358TIP3    H143565   2.208   3.351   4.254  0.3527  0.6914  0.5871
 7358TIP3    H243566   2.277   3.247   4.169 -0.3694 -0.0501  0.8894
 7359TIP3   OH243567   6.039   5.832  12.707  0.0525  0.1655 -0.2715
 7359TIP3    H143568   6.063   5.889  12.634  0.9680  0.7963  0.5018
 7359TIP3    H243569   5.991   5.760  12.666 -0.9469  1.3723 -1.2925
 7360TIP3   OH243570   3.281   4.548  15.755 -0.4704  0.3731 -0.3237
 7360TIP3    H143571   3.229   4.561  15.834  0.6280  0.0412  0.4603
 7360TIP3    H243572   3.297   4.636  15.722  1.0310  0.6688  1.1183
 7361TIP3   OH243573   1.300   0.714  16.529 -0.1123 -0.0919  0.2974
 7361TIP3    H143574   1.307   0.772  16.453  0.0075  0.8684  1.0147
 7361TIP3    H243575   1.391   0.693  16.551 -0.1256 -0.0615  0.3855
 7362TIP3   OH243576   6.644   2.854  12.729 -0.7051 -0.6612 -0.3975
 7362TIP3    H143577   6.670   2.933  12.681 -0.2102 -0.0451  0.8465
 7362TIP3    H243578   6.695   2.784  12.689  0.7549  0.0658  0.1230
 7363TIP3   OH243579   6.523   1.018   2.043  0.1427 -0.2031 -0.4110
 7363TIP3    H143580   6.448   1.033   1.985  0.4389  1.2467 -0.4711
 7363TIP3    H243581   6.485   0.981   2.122 -0.7198  0.8629 -0.2954
 7364TIP3   OH243582   4.737   2.754  15.386 -0.0454 -0.4312 -0.1777
 7364TIP3    H143583   4.833   2.760  15.383 -0.0667 -0.2859 -1.7825
 7364TIP3    H243584   4.708   2.840  15.416  0.3424 -0.7949  1.2886
 7365TIP3   OH243585   0.369   2.761  16.502  0.2316  0.0412  0.5889
 7365TIP3    H143586   0.463   2.773  16.511  0.1453  3.3745 -1.1965
 7365TIP3    H243587   0.360   2.694  16.434  1.4094  1.1088 -0.6774
 7366TIP3   OH243588   6.776   3.755  16.284  0.1787 -0.2060  0.0480
 7366TIP3    H143589   6.792   3.793  16.370  0.5638 -1.3483  0.4971
 7366TIP3    H243590   6.855   3.705  16.265 -0.5824 -1.3369 -0.2233
 7367TIP3   OH243591   6.810   1.701  15.061  0.2056 -0.2547  0.0367
 7367TIP3    H143592   6.761   1.771  15.017  0.1642  0.4178  1.1348
 7367TIP3    H243593   6.747   1.661  15.121  0.1727 -1.3811 -0.7155
 7368TIP3   OH243594   4.591   4.224  13.689  0.2755 -0.7759 -0.1202
 7368TIP3    H143595   4.551   4.138  13.675 -1.5679 -0.1984  1.1627
 7368TIP3    H243596   4.552   4.255  13.771  2.4795  0.4140  0.5674
 7369TIP3   OH243597   3.851   4.623   0.681 -0.3346  0.2370 -0.0134
 7369TIP3    H143598   3.880   4.612   0.590 -1.2861 -0.8835 -0.2071
 7369TIP3    H243599   3.919   4.676   0.722  0.3761  0.3047 -1.2446
 7370TIP3   OH243600   0.584   1.515   1.354  0.2156 -0.3236 -0.5819
 7370TIP3    H143601   0.608   1.427   1.323  0.4844  0.3398 -2.4078
 7370TIP3    H243602   0.668   1.559   1.367  0.0767 -0.2101 -0.0571
 7371TIP3   OH243603   6.598   4.658  16.544 -0.1238  0.4908 -0.3610
 7371TIP3    H143604   6.596   4.655  16.449 -0.4760  1.2476 -0.3863
 7371TIP3    H243605   6.686   4.688  16.566  0.4737 -1.1529 -0.3823
 7372TIP3   OH243606   1.689   4.306  14.947 -0.4851 -0.0339 -0.0056
 7372TIP3    H143607   1.698   4.232  15.006  0.7376  1.3335  1.6487
 7372TIP3    H243608   1.642   4.372  14.998 -3.0001 -0.1260 -1.9719
 7373TIP3   OH243609   2.441   4.452   0.032  0.1905 -0.5055 -0.0304
 7373TIP3    H143610   2.458   4.361   0.056 -0.6720 -0.3134  1.4069
 7373TIP3    H243611   2.411   4.493   0.113 -2.0487  0.3983 -1.2311
 7374TIP3   OH243612   6.297   4.569  14.162 -0.2303  0.0538  0.0393
 7374TIP3    H143613   6.286   4.632  14.091  0.7142 -0.6930 -0.8084
 7374TIP3    H243614   6.280   4.619  14.242  1.7177  1.7449 -0.5060
 7375TIP3   OH243615   0.595   4.574   5.979 -0.2777 -0.1052  0.2141
 7375TIP3    H143616   0.533   4.611   6.041 -0.0462  2.9590 -1.1829
 7375TIP3    H243617   0.542   4.546   5.905 -0.3231 -1.4191  0.7212
 7376TIP3   OH243618   1.199   0.205  11.679 -0.6731 -0.2004 -0.3039
 7376TIP3    H143619   1.289   0.178  11.664 -0.8243 -0.7513 -0.2071
 7376TIP3    H243620   1.191   0.288  11.632  0.5466  1.0630  1.5931
 7377TIP3   OH243621   2.595   3.960   5.419  0.6192  0.3128 -0.3914
 7377TIP3    H143622   2.515   4.008   5.399  0.1675 -0.5584 -0.7284
 7377TIP3    H243623   2.646   4.019   5.475  0.4503  1.5015 -1.4455
 7378TIP3   OH243624   1.595   2.478  13.043 -0.3383 -0.2634  0.4075
 7378TIP3    H143625   1.583   2.573  13.039 -1.2238 -0.3503  0.7611
 7378TIP3    H243626   1.537   2.444  12.975  0.7959 -0.4969 -0.4546
 7379TIP3   OH243627   0.579   2.010   4.364  0.1847 -0.6490  0.0802
 7379TIP3    H143628   0.671   2.008   4.392 -0.0569 -1.2330  0.8782
 7379TIP3    H243629   0.574   1.945   4.294  0.3863 -0.5956  0.0164
 7380TIP3   OH243630   4.132   5.885   2.827  0.2102 -0.0005  0.4422
 7380TIP3    H143631   4.182   5.925   2.898 -0.4467 -0.9076  1.4377
 7380TIP3    H243632   4.162   5.794   2.824  1.7559  0.4872 -1.8648
 7381TIP3   OH243633   2.013   5.723   2.472 -0.1266  0.2147 -0.1655
 7381TIP3    H143634   1.966   5.799   2.507  0.3522 -0.1074  1.2291
 7381TIP3    H243635   2.105   5.741   2.491  0.3912  0.7737 -2.7376
 7382TIP3   OH243636   2.273   0.543  15.412  0.3929 -0.3037  0.1323
 7382TIP3    H143637   2.191   0.502  15.383  0.7282 -0.0133 -1.2996
 7382TIP3    H243638   2.282   0.514  15.503 -0.6240 -1.4209 -0.0796
 7383TIP3   OH243639   2.868   3.942   5.163  0.9411  0.1044  0.0410
 7383TIP3    H143640   2.944   3.968   5.110  1.0773  0.5838  0.4633
 7383TIP3    H243641   2.803   4.010   5.147  0.5105 -0.4289 -0.4979
 7384TIP3   OH243642   5.188   6.320   1.521 -0.5904 -0.1243 -0.1721
 7384TIP3    H143643   5.173   6.302   1.614  0.1967 -1.5595 -0.2975
 7384TIP3    H243644   5.101   6.344   1.488 -0.7066  1.4132  1.1099
 7385TIP3   OH243645   2.665   0.415   5.911 -0.0257 -0.2673 -0.9600
 7385TIP3    H143646   2.658   0.329   5.869 -0.2037  0.5829 -2.7659
 7385TIP3    H243647   2.682   0.476   5.839 -1.5445  1.4413  0.0214
 7386TIP3   OH243648   1.790   5.668  15.089 -0.4451 -0.3652 -0.4064
 7386TIP3    H143649   1.745   5.608  15.147  2.8509 -1.2435  1.5365
 7386TIP3    H243650   1.778   5.754  15.129 -1.0408 -0.4588 -0.3784
 7387TIP3   OH243651   4.764   3.797   3.004  0.0445  0.1464  0.1410
 7387TIP3    H143652   4.719   3.882   3.005  1.0637  0.6845  1.0075
 7387TIP3    H243653   4.840   3.812   2.948  0.3323 -0.1488  0.4613
 7388TIP3   OH243654   2.416   4.558  16.001 -0.6916 -0.0762  0.2372
 7388TIP3    H143655   2.399   4.630  16.062 -1.3601 -0.5531  0.6330
 7388TIP3    H243656   2.461   4.599  15.927 -1.7976  0.9104  0.0735
 7389TIP3   OH243657   2.114   6.731   5.659  0.0479  0.2203  0.4116
 7389TIP3    H143658   2.129   6.822   5.688 -0.0270  1.0224 -1.8680
 7389TIP3    H243659   2.038   6.703   5.710 -0.5445  1.8002  0.4750
 7390TIP3   OH243660   4.423   5.291   5.450  0.5544 -0.5799  0.4247
 7390TIP3    H143661   4.496   5.283   5.388 -0.5593 -0.2610 -0.9517
 7390TIP3    H243662   4.460   5.342   5.523  1.5323  0.0949 -0.5163
 7391TIP3   OH243663   4.512   1.043  16.505 -0.4555 -0.3101  0.9866
 7391TIP3    H143664   4.535   0.951  16.494 -0.4075 -0.2277  0.4027
 7391TIP3    H243665   4.596   1.087  16.520  0.1233  0.2814 -3.0212
 7392TIP3   OH243666   3.848   6.162  13.450  0.3939 -0.1630 -0.1991
 7392TIP3    H143667   3.865   6.076  13.488  0.4698 -0.3607 -0.6792
 7392TIP3    H243668   3.933   6.206  13.451  0.4558 -0.2784 -0.4179
 7393TIP3   OH243669   5.371   1.722  11.881  0.6369 -0.1537  0.3045
 7393TIP3    H143670   5.354   1.767  11.963 -1.0287 -0.2237  0.0354
 7393TIP3    H243671   5.317   1.643  11.885  0.6797 -0.2528 -0.7807
 7394TIP3   OH243672   6.471   5.723   0.545 -0.1129  0.0535  0.1721
 7394TIP3    H143673   6.445   5.811   0.518 -0.9403  0.1710  1.2568
 7394TIP3    H243674   6.566   5.729   0.559  0.1843  0.2226 -1.6509
 7395TIP3   OH243675   5.555   3.309  13.899 -0.0630 -0.1065 -0.1569
 7395TIP3    H143676   5.488   3.251  13.860 -1.9424  2.3204 -0.7641
 7395TIP3    H243677   5.581   3.367  13.827  1.4281  0.1486  0.5538
 7396TIP3   OH243678   0.626   2.701   0.834  0.2390 -0.1260 -0.0531
 7396TIP3    H143679   0.694   2.668   0.775  0.7369 -0.7526  0.8575
 7396TIP3    H243680   0.597   2.624   0.883 -1.1409  0.1321 -0.4318
 7397TIP3   OH243681   2.510   3.723  14.622 -0.0564  0.3384  0.3369
 7397TIP3    H143682   2.595   3.764  14.610 -0.6930  2.1926  1.8512
 7397TIP3    H243683   2.469   3.727  14.536  0.8091  0.7563 -0.0622
 7398TIP3   OH243684   4.869   4.182  12.547 -0.0989 -0.2169  0.1757
 7398TIP3    H143685   4.952   4.164  12.503 -1.3879 -0.6733 -2.2399
 7398TIP3    H243686   4.893   4.237  12.622  2.1909  1.2218 -1.4737
 7399TIP3   OH243687   2.038   1.441  11.511  0.6407 -0.5383 -0.2129
 7399TIP3    H143688   2.117   1.477  11.553 -0.6086  2.7093 -0.3026
 7399TIP3    H243689   2.058   1.443  11.418  0.2256  1.2473 -0.3166
 7400TIP3   OH243690   4.400   2.198  16.962  0.3321 -0.9801  0.5730
 7400TIP3    H143691   4.462   2.252  16.914 -0.1816  1.3498  2.3767
 7400TIP3    H243692   4.447   2.171  17.041  0.3159 -2.5930  0.0683
 7401TIP3   OH243693   3.632   2.574   0.820 -0.4061 -0.5162 -0.0838
 7401TIP3    H143694   3.671   2.557   0.905 -0.6411  2.5163  0.7625
 7401TIP3    H243695   3.581   2.655   0.833  2.1034  1.9746 -3.7772
 7402TIP3   OH243696   6.612   2.796  10.630  0.1996 -0.6317  0.1307
 7402TIP3    H143697   6.705   2.803  10.654  0.6982 -2.5543 -0.9783
 7402TIP3    H243698   6.571   2.752  10.704  0.6532 -1.7714 -0.2717
 7403TIP3   OH243699   4.079   6.013   1.127 -0.3887 -0.2454 -0.3320
 7403TIP3    H143700   4.149   6.078   1.132 -0.4047 -0.2899  2.9743
 7403TIP3    H243701   4.001   6.060   1.157 -0.8705 -1.2132 -0.0370
 7404TIP3   OH243702   1.858   0.088   6.672 -0.1660 -0.4101 -0.0216
 7404TIP3    H143703   1.917   0.155   6.706  0.3322 -0.5570 -0.5773
 7404TIP3    H243704   1.911   0.008   6.673 -1.1308 -1.0888  1.8261
 7405TIP3   OH243705   6.504   3.978  13.415 -0.2393 -0.5136 -0.4135
 7405TIP3    H143706   6.422   3.929  13.417 -0.3489 -0.3539 -0.9426
 7405TIP3    H243707   6.504   4.029  13.496 -0.9708 -0.0194 -0.7183
 7406TIP3   OH243708   3.013   3.378   5.349  0.4709 -0.3806 -0.1594
 7406TIP3    H143709   2.925   3.414   5.339  1.1672  1.3449 -0.4897
 7406TIP3    H243710   3.039   3.353   5.260 -1.1782 -4.9163  0.3785
 7407TIP3   OH243711   3.201   3.033  11.545  0.1775  0.1546 -1.0838
 7407TIP3    H143712   3.156   3.092  11.485  0.4687  0.2591 -1.2043
 7407TIP3    H243713   3.228   3.088  11.618  0.1589  0.1039 -1.0386
 7408TIP3   OH243714   5.972   0.170   4.782  0.1514  0.2974  0.6474
 7408TIP3    H143715   5.903   0.181   4.717 -0.2276 -1.1233  0.7802
 7408TIP3    H243716   5.939   0.214   4.860  0.2005  1.1998  0.1641
 7409TIP3   OH243717   3.081   0.876   4.972 -0.4314  0.4494  0.4328
 7409TIP3    H143718   3.109   0.798   4.924 -0.0102  1.5815 -1.2631
 7409TIP3    H243719   2.988   0.885   4.950 -1.1202 -0.8500  2.5417
 7410TIP3   OH243720   5.737   1.524   3.287  0.0338  0.2117  0.2532
 7410TIP3    H143721   5.692   1.440   3.299  0.1354  0.2942  1.3254
 7410TIP3    H243722   5.779   1.516   3.201  1.2009 -1.3987  0.9123
 7411TIP3   OH243723   1.532   0.494   0.136  0.2486 -0.2619  0.1882
 7411TIP3    H143724   1.549   0.489   0.230 -0.4131 -1.1005  0.2764
 7411TIP3    H243725   1.482   0.576   0.125  0.5065 -0.0542  0.5299
 7412TIP3   OH243726   3.920   4.974   5.587 -0.6749  0.0717 -0.2599
 7412TIP3    H143727   3.918   4.964   5.682 -0.1264 -0.0337 -0.2563
 7412TIP3    H243728   4.014   4.972   5.564 -0.5888  3.0468 -0.4871
 7413TIP3   OH243729   3.341   6.562   4.941  0.4658  0.5737 -0.2735
 7413TIP3    H143730   3.338   6.572   5.036  0.7714 -1.8604  0.0711
 7413TIP3    H243731   3.413   6.619   4.912  0.8817  0.7518  1.0625
 7414TIP3   OH243732   3.501   2.179   5.725 -0.0339  0.6551  0.0034
 7414TIP3    H143733   3.423   2.179   5.668  0.3128 -0.9130 -0.5193
 7414TIP3    H243734   3.564   2.123   5.679  1.5090  2.0716  0.3029
 7415TIP3   OH243735   0.738   6.471   4.232  0.3151  0.0331 -0.2730
 7415TIP3    H143736   0.667   6.532   4.214  0.4428  0.6016  1.0563
 7415TIP3    H243737   0.694   6.390   4.259  0.1618  0.0678 -0.4163
 7416TIP3   OH243738   0.540   6.286  11.171  0.1806 -0.5134 -0.2118
 7416TIP3    H143739   0.446   6.270  11.161 -0.1761  0.8894  0.7369
 7416TIP3    H243740   0.581   6.221  11.113 -1.3949 -0.5011 -1.4109
 7417TIP3   OH243741   2.887   4.486  11.512 -0.2136  0.1157  0.0699
 7417TIP3    H143742   2.795   4.502  11.533  0.2153  1.7314  0.8770
 7417TIP3    H243743   2.931   4.484  11.597  0.3857 -1.6585 -0.2363
 7418TIP3   OH243744   4.616   0.128  13.697  0.0920  0.4207 -0.8328
 7418TIP3    H143745   4.580   0.216  13.705  1.7579  1.0550  0.2220
 7418TIP3    H243746   4.709   0.138  13.717  0.8388 -1.1879 -3.0454
 7419TIP3   OH243747   0.644   2.732  16.514  0.4166  0.5163 -0.0412
 7419TIP3    H143748   0.664   2.735  16.420 -1.7628  0.6632 -0.5525
 7419TIP3    H243749   0.714   2.680  16.552  0.5922 -0.7442 -1.9761
 7420TIP3   OH243750   1.066   2.213  11.097 -0.1143  0.1259 -0.0933
 7420TIP3    H143751   1.126   2.262  11.041  0.5280 -0.9866 -0.4151
 7420TIP3    H243752   1.057   2.128  11.053  0.9569 -1.0347  1.8102
 7421TIP3   OH243753   4.929   6.303   5.218  0.3631 -0.6984  0.6122
 7421TIP3    H143754   4.908   6.295   5.311 -3.6084 -0.0784 -0.0278
 7421TIP3    H243755   4.948   6.396   5.206  1.8678 -0.9393  0.8784
 7422TIP3   OH243756   0.113   1.599  12.286  0.4732 -0.2225 -0.0942
 7422TIP3    H143757   0.139   1.684  12.320  1.6971 -0.7668  0.4094
 7422TIP3    H243758   0.160   1.536  12.341 -0.5097 -1.2290 -0.3684
 7423TIP3   OH243759   6.816   3.947  16.480 -0.1972  0.1905  0.4700
 7423TIP3    H143760   6.747   4.010  16.503 -0.1789 -0.1293  1.4104
 7423TIP3    H243761   6.861   3.928  16.562  1.4666  0.8941 -0.2235
 7424TIP3   OH243762   2.752   2.077   4.777  0.7819  1.0916  0.2094
 7424TIP3    H143763   2.768   1.984   4.794 -1.6826  0.3568 -0.8918
 7424TIP3    H243764   2.676   2.098   4.832  1.0274  2.3393  0.0959
 7425TIP3   OH243765   6.563   5.632   1.683 -0.2958  0.0569 -0.1842
 7425TIP3    H143766   6.584   5.566   1.749  2.9322  0.1962 -0.9067
 7425TIP3    H243767   6.482   5.600   1.643  1.0027 -3.4777 -0.4053
 7426TIP3   OH243768   2.123   6.015   4.192 -0.5746  0.2553  0.2291
 7426TIP3    H143769   2.056   5.980   4.251 -0.2794  0.5170  0.7158
 7426TIP3    H243770   2.206   5.992   4.233 -0.3715  1.5493  0.5694
 7427TIP3   OH243771   3.846   5.790  10.645 -0.1014  0.0366  0.0768
 7427TIP3    H143772   3.915   5.776  10.579  1.8810  3.7806  1.0646
 7427TIP3    H243773   3.789   5.857  10.606 -0.9971 -0.2875  0.7943
 7428TIP3   OH243774   3.758   3.064  12.238  0.4490 -0.3531  0.2434
 7428TIP3    H143775   3.715   3.137  12.283  0.3791 -0.2950  0.0829
 7428TIP3    H243776   3.839   3.101  12.204 -0.7471  0.3508 -2.0678
 7429TIP3   OH243777   2.229   3.981   5.249  0.7484  0.1485 -0.5097
 7429TIP3    H143778   2.262   4.047   5.310 -0.6826  1.8551 -1.4839
 7429TIP3    H243779   2.232   3.899   5.298  1.0740  1.1885  1.2997
 7430TIP3   OH243780   2.829   1.231   4.853 -0.6779  1.1244  0.5614
 7430TIP3    H143781   2.815   1.138   4.871  0.0489  0.1771 -3.0686
 7430TIP3    H243782   2.922   1.236   4.830 -0.7237  2.7724  0.6532
 7431TIP3   OH243783   4.157   4.920  12.570 -0.3121  0.2670 -0.2891
 7431TIP3    H143784   4.193   4.857  12.509 -0.8642 -1.3015  0.9429
 7431TIP3    H243785   4.220   4.993  12.569  1.6166 -1.3196  0.0038
 7432TIP3   OH243786   5.665   2.411  11.094  0.0878 -0.2469 -0.1763
 7432TIP3    H143787   5.680   2.318  11.106  0.2504 -0.3930 -1.4194
 7432TIP3    H243788   5.750   2.452  11.112 -0.0548 -0.2926  0.6546
 7433TIP3   OH243789   1.605   1.531  16.357 -0.0454  0.4820  0.3507
 7433TIP3    H143790   1.597   1.615  16.312  1.1913  0.6935  0.4838
 7433TIP3    H243791   1.699   1.517  16.364 -0.1432 -2.0446 -1.7684
 7434TIP3   OH243792   0.346   3.157  17.172 -0.5562 -0.3537 -0.1559
 7434TIP3    H143793   0.409   3.146  17.244 -0.9442 -0.4883  0.1717
 7434TIP3    H243794   0.313   3.246  17.182 -0.3919 -0.2743 -0.3425
 7435TIP3   OH243795   4.972   0.915  14.800  0.0855  0.2948  0.2615
 7435TIP3    H143796   4.988   0.866  14.719 -0.3054  0.0626  0.3193
 7435TIP3    H243797   4.894   0.874  14.837 -0.4127  1.1418  0.1761
 7436TIP3   OH243798   5.595   3.763   0.315 -0.1817 -0.3706  0.2108
 7436TIP3    H143799   5.601   3.847   0.270  1.3236 -0.2274  0.6395
 7436TIP3    H243800   5.542   3.709   0.256  0.2038  0.3743 -0.8620
 7437TIP3   OH243801   6.153   0.534  16.127 -0.3886 -0.1454 -0.0435
 7437TIP3    H143802   6.204   0.612  16.106 -1.8003  0.3690 -1.8257
 7437TIP3    H243803   6.218   0.465  16.139  0.8325  1.0517  0.5146
 7438TIP3   OH243804   3.103   0.068  16.910  0.0751  0.1090  0.2332
 7438TIP3    H143805   3.198   0.064  16.904  0.0678  1.1464 -1.6808
 7438TIP3    H243806   3.083   0.160  16.892 -1.3357 -0.3790 -0.8553
 7439TIP3   OH243807   3.497   2.319   2.344  0.2960  0.1238  0.2154
 7439TIP3    H143808   3.588   2.339   2.321 -0.1014  1.5974 -0.2193
 7439TIP3    H243809   3.476   2.241   2.294  1.3960 -0.3871  0.5200
 7440TIP3   OH243810   2.618   0.219   0.027 -0.6637  0.0102  0.4514
 7440TIP3    H143811   2.640   0.192   0.116  1.9813  1.3205  0.3130
 7440TIP3    H243812   2.584   0.308   0.037 -0.5289  0.0934  0.1653
 7441TIP3   OH243813   5.335   2.094  16.681  0.1462 -0.4023 -0.0516
 7441TIP3    H143814   5.419   2.138  16.668 -0.2337  0.4803  0.3898
 7441TIP3    H243815   5.339   2.017  16.624 -0.0408  1.4137 -2.7224
 7442TIP3   OH243816   5.236   1.853   1.066  0.0176  0.1254  0.3347
 7442TIP3    H143817   5.189   1.823   0.988  0.6904  0.6745 -0.2947
 7442TIP3    H243818   5.273   1.937   1.041  0.9015 -0.0558  0.9776
 7443TIP3   OH243819   0.059   0.293   3.463 -0.0085  0.1641  0.1476
 7443TIP3    H143820   0.114   0.370   3.449 -0.9950  1.0478  0.9440
 7443TIP3    H243821   0.087   0.260   3.548 -0.0640  0.0729  0.1302
 7444TIP3   OH243822   1.749   2.553  12.037  0.3939  0.7015 -0.2684
 7444TIP3    H143823   1.677   2.617  12.035  0.1634  0.4403 -0.4429
 7444TIP3    H243824   1.828   2.606  12.046  0.0784  0.9160  1.6643
 7445TIP3   OH243825   0.833   2.515   5.449 -1.0560  0.2228 -0.0563
 7445TIP3    H143826   0.770   2.586   5.436 -2.0808 -0.9767 -2.0321
 7445TIP3    H243827   0.904   2.555   5.499 -2.6362  2.0322  0.8363
 7446TIP3   OH243828   4.788   3.834   1.597  0.2870 -0.7648  0.3338
 7446TIP3    H143829   4.754   3.827   1.686  0.2255 -0.2763  0.3507
 7446TIP3    H243830   4.728   3.782   1.544 -0.2156 -0.2982  0.4376
 7447TIP3   OH243831   4.239   2.622   5.825  0.1352  0.3794 -0.4897
 7447TIP3    H143832   4.250   2.601   5.917 -0.5557  1.1559 -0.2166
 7447TIP3    H243833   4.311   2.577   5.781  1.3203  1.1610  0.5882
 7448TIP3   OH243834   5.169   3.080  14.512 -0.2054 -0.5532 -0.1463
 7448TIP3    H143835   5.257   3.049  14.536 -1.5213 -3.4568  1.4680
 7448TIP3    H243836   5.173   3.090  14.417  1.7190 -1.2189 -0.1785
 7449TIP3   OH243837   5.800   1.425  13.689  0.0519  0.1149 -0.6330
 7449TIP3    H143838   5.802   1.466  13.775 -1.0674 -3.2974  1.2070
 7449TIP3    H243839   5.744   1.482  13.636 -0.7967  1.3171  1.4708
 7450TIP3   OH243840   0.991   4.212  16.961 -0.5008 -0.2830  0.6821
 7450TIP3    H143841   1.029   4.299  16.976 -0.2959 -0.3405  0.4940
 7450TIP3    H243842   1.054   4.167  16.906 -0.4266 -0.6899  1.0938
 7451TIP3   OH243843   5.645   4.983   0.484  0.0729 -0.1188 -0.1230
 7451TIP3    H143844   5.604   4.897   0.496 -0.0069 -0.2085 -1.0080
 7451TIP3    H243845   5.715   4.985   0.549  1.0964 -1.4848 -1.1332
 7452TIP3   OH243846   1.689   3.006  12.986  0.5165 -0.4230  0.2219
 7452TIP3    H143847   1.611   3.006  12.932  1.9197 -2.5958 -2.0215
 7452TIP3    H243848   1.698   2.915  13.016  1.1182  0.2053  2.1559
 7453TIP3   OH243849   6.410   4.266   0.801 -0.2392  0.5190 -0.3098
 7453TIP3    H143850   6.461   4.241   0.878 -0.5830  0.4145 -0.1146
 7453TIP3    H243851   6.323   4.229   0.817 -0.7321  1.7386 -0.0576
 7454TIP3   OH243852   1.745   5.649  14.012  0.3540  0.4202  0.6950
 7454TIP3    H143853   1.678   5.581  14.007 -1.2422  1.8894  0.9319
 7454TIP3    H243854   1.818   5.608  14.058  0.9274 -2.2007 -2.2642
 7455TIP3   OH243855   5.278   2.554  10.957 -0.0177 -1.1208 -0.1365
 7455TIP3    H143856   5.369   2.571  10.934 -0.2272  0.6199  0.1767
 7455TIP3    H243857   5.254   2.477  10.905  1.0066 -0.3569 -1.8177
 7456TIP3   OH243858   4.108   4.879  13.481  0.4999  0.3286  0.1539
 7456TIP3    H143859   4.173   4.846  13.419  0.5788  2.2002 -0.8390
 7456TIP3    H243860   4.157   4.939  13.537  0.0008  0.2804  0.6466
 7457TIP3   OH243861   6.513   1.095   4.524 -0.1771  0.2075 -0.3120
 7457TIP3    H143862   6.434   1.143   4.549  0.0712  1.2282 -1.4089
 7457TIP3    H243863   6.483   1.028   4.462 -0.3098 -0.0420  0.0206
 7458TIP3   OH243864   1.142   1.917   4.156  0.0494 -0.2687  0.1742
 7458TIP3    H143865   1.184   1.846   4.106  0.7556 -0.2805  0.7639
 7458TIP3    H243866   1.146   1.887   4.247 -1.1788 -0.2241  0.2503
 7459TIP3   OH243867   3.620   1.951  16.855  0.0598  0.5112 -0.0884
 7459TIP3    H143868   3.686   2.006  16.897  0.3930 -0.7123  1.0679
 7459TIP3    H243869   3.667   1.905  16.786  0.1746  0.4642  0.0186
 7460TIP3   OH243870   4.375   1.913   5.528  0.2611  0.1150  0.4741
 7460TIP3    H143871   4.448   1.852   5.531  1.8144  1.8880  0.4752
 7460TIP3    H243872   4.313   1.874   5.466  2.1601 -0.4424 -1.1680
 7461TIP3   OH243873   0.976   2.383   0.442  0.5314  0.7368  0.0368
 7461TIP3    H143874   1.059   2.420   0.473  1.3743 -0.2681 -0.9210
 7461TIP3    H243875   0.918   2.387   0.518  1.0631  2.5501  0.3897
 7462TIP3   OH243876   0.858   0.967   5.114 -0.4356 -0.9091 -0.3955
 7462TIP3    H143877   0.777   0.916   5.114 -0.7746 -0.4892 -2.8880
 7462TIP3    H243878   0.874   0.988   5.022  3.0462 -1.7939 -0.1352
 7463TIP3   OH243879   6.636   3.018  16.164 -0.0388 -0.7185  0.3174
 7463TIP3    H143880   6.666   3.032  16.254  0.9458  0.2022 -0.1381
 7463TIP3    H243881   6.558   2.963  16.173 -1.2538  1.1533  1.9121
 7464TIP3   OH243882   0.845   3.816   0.995 -0.2495 -0.0453 -0.6040
 7464TIP3    H143883   0.781   3.884   1.020 -0.2076 -0.2473  0.0539
 7464TIP3    H243884   0.927   3.844   1.035  0.2152  0.4745 -1.8557
 7465TIP3   OH243885   3.846   6.046   2.073  0.7205  0.3275  0.3213
 7465TIP3    H143886   3.939   6.047   2.047  0.4490 -1.1360 -0.8596
 7465TIP3    H243887   3.828   5.954   2.093 -0.0745  0.8565  2.2347
 7466TIP3   OH243888   4.982   3.692  16.753  0.2289  0.1100  0.3683
 7466TIP3    H143889   5.035   3.752  16.700 -0.3438  0.1148 -0.2074
 7466TIP3    H243890   4.938   3.749  16.816 -0.0533  0.2525  0.0419
 7467TIP3   OH243891   5.570   0.093   4.762 -0.3851  0.5044  0.0494
 7467TIP3    H143892   5.627   0.120   4.690 -0.0098  0.7529  0.4341
 7467TIP3    H243893   5.578   0.163   4.827 -2.1970  1.2273 -0.4444
 7468TIP3   OH243894   2.174   2.870   3.022  0.1434  0.2037 -0.0972
 7468TIP3    H143895   2.158   2.805   3.091  0.5350  1.4430  1.2263
 7468TIP3    H243896   2.268   2.863   3.005 -0.3183 -1.7897 -2.3501
 7469TIP3   OH243897   0.627   4.437  12.123 -0.5599 -0.0029 -0.0168
 7469TIP3    H143898   0.627   4.407  12.032  0.5865  0.4058 -0.1687
 7469TIP3    H243899   0.703   4.495  12.129 -3.1582  3.8517 -0.0835
 7470TIP3   OH243900   3.077   2.430  12.166  0.2408 -0.5915 -0.2705
 7470TIP3    H143901   3.000   2.485  12.149  0.7835 -0.3480 -2.0854
 7470TIP3    H243902   3.068   2.356  12.106  1.1440 -0.8590 -0.0935
 7471TIP3   OH243903   1.708   1.726  11.580 -0.4563 -0.3138 -0.5287
 7471TIP3    H143904   1.616   1.705  11.599 -0.2397 -0.8598 -0.0621
 7471TIP3    H243905   1.758   1.667  11.636  0.2292 -1.7724 -2.5391
 7472TIP3   OH243906   1.154   2.131   1.454  0.0312 -0.4684  0.4817
 7472TIP3    H143907   1.111   2.047   1.438 -1.9969  0.6331 -0.3565
 7472TIP3    H243908   1.168   2.168   1.366  1.4570 -0.1661  0.8078
 7473TIP3   OH243909   0.912   4.557  12.736 -0.0437 -0.0811  0.0978
 7473TIP3    H143910   0.908   4.532  12.828 -0.8179 -0.3099  0.0075
 7473TIP3    H243911   0.829   4.528  12.699  0.2574  0.0097 -0.6757
 7474TIP3   OH243912   3.672   0.576   1.605 -0.0346 -0.2917  0.3187
 7474TIP3    H143913   3.579   0.556   1.612  0.0305 -0.2602  1.5722
 7474TIP3    H243914   3.715   0.493   1.625  0.2152 -0.2805 -0.1561
 7475TIP3   OH243915   2.543   3.439   4.232 -0.3915  0.4139  0.1717
 7475TIP3    H143916   2.575   3.391   4.309 -0.7473 -0.9502 -0.4964
 7475TIP3    H243917   2.448   3.426   4.234 -0.2712 -1.0483 -1.3568
 7476TIP3   OH243918   0.915   2.820   0.996 -0.4852  0.3098 -0.7152
 7476TIP3    H143919   0.898   2.767   0.919  0.4850 -0.1929 -0.5976
 7476TIP3    H243920   0.843   2.799   1.056 -1.3417  0.8438 -1.5380
 7477TIP3   OH243921   1.822   2.134   3.846 -0.5124 -0.0142  0.4533
 7477TIP3    H143922   1.830   2.056   3.791 -1.3172 -0.2072  0.5912
 7477TIP3    H243923   1.895   2.127   3.908  0.1784  0.0161 -0.3366
 7478TIP3   OH243924   0.452   0.640   5.546 -0.2884  0.1343 -0.3719
 7478TIP3    H143925   0.545   0.641   5.569 -0.7722 -0.2591  1.8364
 7478TIP3    H243926   0.422   0.553   5.570 -1.3343  0.3955 -0.6767
 7479TIP3   OH243927   4.297   2.818  13.692  0.6807  0.0412 -0.4166
 7479TIP3    H143928   4.240   2.895  13.693 -0.5991 -0.8821 -0.6835
 7479TIP3    H243929   4.319   2.806  13.600  0.9218  0.1025 -0.3692
 7480TIP3   OH243930   1.427   5.365   3.144  0.5797 -0.6664 -0.1136
 7480TIP3    H143931   1.389   5.296   3.198  0.3377  0.4563  1.2219
 7480TIP3    H243932   1.421   5.444   3.198  1.8374  0.1969 -1.1537
 7481TIP3   OH243933   2.410   4.877   3.797  0.2586 -0.7560  0.0645
 7481TIP3    H143934   2.443   4.823   3.869  0.6935  0.1865  0.5973
 7481TIP3    H243935   2.366   4.815   3.739 -0.1496 -1.5425  1.1630
 7482TIP3   OH243936   4.875   6.244   4.618 -0.3388 -0.4005 -0.1515
 7482TIP3    H143937   4.800   6.302   4.606  0.7562  1.6886  2.1925
 7482TIP3    H243938   4.944   6.283   4.564 -0.0501 -0.4569  0.1695
 7483TIP3   OH243939   3.564   5.575  13.223 -0.0244  0.7860 -0.1130
 7483TIP3    H143940   3.597   5.495  13.264  0.4125  0.9539 -0.1413
 7483TIP3    H243941   3.589   5.645  13.283 -1.3420  0.8064  0.4646
 7484TIP3   OH243942   6.242   4.508  16.091 -0.2877 -0.0738 -0.0994
 7484TIP3    H143943   6.278   4.543  16.010  2.6979 -2.7350 -0.1138
 7484TIP3    H243944   6.163   4.460  16.064  1.0940 -1.6005 -1.6545
 7485TIP3   OH243945   4.709   3.516   0.941  0.0918 -0.4739  0.0193
 7485TIP3    H143946   4.712   3.421   0.930  2.2825 -0.8581  2.7112
 7485TIP3    H243947   4.800   3.545   0.927 -0.6126  1.3656 -1.2474
 7486TIP3   OH243948   6.721   0.920   0.872 -0.0772 -0.1642  0.4977
 7486TIP3    H143949   6.812   0.925   0.842  0.0977 -0.1094  1.0355
 7486TIP3    H243950   6.727   0.890   0.962 -0.5554  0.4311  0.7362
 7487TIP3   OH243951   5.642   6.472  13.840  0.0287  0.3480 -0.5067
 7487TIP3    H143952   5.685   6.477  13.925 -0.3998  2.2458 -0.3454
 7487TIP3    H243953   5.576   6.404  13.850  0.3561  0.1619  0.4986
 7488TIP3   OH243954   1.159   4.972   0.070  0.2751  0.3349  0.1363
 7488TIP3    H143955   1.238   4.924   0.096  0.8356  0.5689 -1.0949
 7488TIP3    H243956   1.099   4.960   0.144  1.3914  0.0117  1.0160
 7489TIP3   OH243957   0.559   5.965   3.916  0.0497  0.0324 -0.4858
 7489TIP3    H143958   0.549   5.912   3.837 -2.0739 -0.7475  0.2554
 7489TIP3    H243959   0.483   6.023   3.916 -1.0358 -1.2539  1.8740
 7490TIP3   OH243960   4.405   1.157  11.112 -0.0919  0.0102  0.1412
 7490TIP3    H143961   4.373   1.166  11.022 -0.1469 -0.5534  0.0964
 7490TIP3    H243962   4.495   1.125  11.102  0.6348  1.9131  0.2602
 7491TIP3   OH243963   4.519   1.481   4.716  0.1523 -0.0531 -0.7356
 7491TIP3    H143964   4.612   1.495   4.734  0.2694 -0.9684 -0.5605
 7491TIP3    H243965   4.502   1.530   4.636  0.7908  0.1226 -0.7649
 7492TIP3   OH243966   4.228   4.182  13.756 -0.3149 -0.3046 -0.0903
 7492TIP3    H143967   4.301   4.120  13.753  1.3684  1.6064 -1.5408
 7492TIP3    H243968   4.234   4.222  13.843  1.4836  1.0154 -0.7701
 7493TIP3   OH243969   1.206   3.870  16.164 -0.4526  0.4152 -0.0044
 7493TIP3    H143970   1.136   3.806  16.151  0.2083 -0.2252 -0.4636
 7493TIP3    H243971   1.279   3.819  16.199  0.5586  0.6406 -1.6834
 7494TIP3   OH243972   4.713   0.100   5.879 -0.0673  0.2582 -0.6765
 7494TIP3    H143973   4.804   0.101   5.851  0.4788  0.7004  1.0124
 7494TIP3    H243974   4.717   0.106   5.974 -1.8579 -0.0059 -0.5535
 7495TIP3   OH243975   1.156   6.764   1.098 -0.0052 -0.7910  0.2171
 7495TIP3    H143976   1.080   6.735   1.148  0.1043  2.2399  2.3934
 7495TIP3    H243977   1.221   6.788   1.164  1.0392  1.2124 -1.4274
 7496TIP3   OH243978   4.288   2.284   5.239  0.5215  0.0906 -0.1712
 7496TIP3    H143979   4.360   2.231   5.272 -0.3127 -1.5973 -0.9401
 7496TIP3    H243980   4.279   2.355   5.302  0.6951 -1.5197  1.7374
 7497TIP3   OH243981   6.804   1.495  14.843  0.0466 -0.1461 -0.3305
 7497TIP3    H143982   6.796   1.588  14.866 -0.5491 -0.1375 -0.5508
 7497TIP3    H243983   6.844   1.455  14.920 -1.4609 -0.0386  0.5456
 7498TIP3   OH243984   5.001   1.201  12.611 -0.3907 -0.4207 -0.1105
 7498TIP3    H143985   4.919   1.224  12.567  0.1349  2.3184  0.1816
 7498TIP3    H243986   5.019   1.275  12.669  2.1317 -1.0902  0.0766
 7499TIP3   OH243987   6.149   2.553   6.307 -0.1436 -0.3512  0.4147
 7499TIP3    H143988   6.152   2.480   6.245  0.7977  0.0093  0.0127
 7499TIP3    H243989   6.096   2.619   6.263  0.1635 -0.2614  0.1787
 7500TIP3   OH243990   6.702   0.503   1.556  0.6015 -0.1906  0.0544
 7500TIP3    H143991   6.698   0.407   1.560  0.2089 -0.1672  0.2781
 7500TIP3    H243992   6.623   0.528   1.508  1.0996 -0.0150 -0.7030
 7501TIP3   OH243993   4.995   2.134  14.971  0.0848 -0.7647 -0.0951
 7501TIP3    H143994   5.064   2.106  14.911  0.8454 -0.4889  0.6269
 7501TIP3    H243995   5.039   2.193  15.031 -1.3667  1.7201 -1.3268
 7502TIP3   OH243996   2.429   4.524  10.702 -0.3616 -0.3438  0.4272
 7502TIP3    H143997   2.402   4.606  10.661  1.3494  0.3480  0.5962
 7502TIP3    H243998   2.433   4.461  10.631 -0.7699 -0.0442  0.1342
 7503TIP3   OH243999   1.689   0.136  16.679 -0.1701 -0.2380 -0.3497
 7503TIP3    H144000   1.602   0.155  16.713  0.5716  2.4771  0.2113
 7503TIP3    H244001   1.723   0.068  16.738 -1.2684 -0.1237  0.4469
 7504TIP3   OH244002   2.706   4.397  17.151 -0.0213  0.1637  0.2397
 7504TIP3    H144003   2.710   4.314  17.199 -1.2475 -1.4513 -2.2653
 7504TIP3    H244004   2.617   4.429  17.166 -0.0943  0.1472 -0.1494
 7505TIP3   OH244005   1.633   0.688  12.548  0.6256  0.2795 -0.2315
 7505TIP3    H144006   1.693   0.748  12.592 -0.6554 -0.0424  2.1721
 7505TIP3    H244007   1.553   0.740  12.534  0.2561 -0.2462 -0.1112
 7506TIP3   OH244008   3.555   0.794  13.835 -0.0244  0.1788 -0.3691
 7506TIP3    H144009   3.548   0.883  13.800 -0.7994  0.5781  0.7608
 7506TIP3    H244010   3.468   0.755  13.821 -0.5350  0.5389  1.5568
 7507TIP3   OH244011   2.181   6.202  17.036 -0.6855  0.0137 -0.1117
 7507TIP3    H144012   2.220   6.169  17.116 -2.3353 -1.0215  0.3206
 7507TIP3    H244013   2.254   6.241  16.987  0.2766  1.0985  2.0712
 7508TIP3   OH244014   5.260   1.856   1.985  0.3121 -0.6238  0.2093
 7508TIP3    H144015   5.272   1.858   1.890 -1.7340 -1.2680 -0.1163
 7508TIP3    H244016   5.172   1.891   1.999  1.0271  0.6132  1.9991
 7509TIP3   OH244017   5.045   6.782  13.696 -0.0817  0.5809 -0.2061
 7509TIP3    H144018   4.980   6.829  13.748 -1.4020  0.7626 -1.9184
 7509TIP3    H244019   5.102   6.851  13.661  0.6384  0.4826  0.7352
 7510TIP3   OH244020   1.681   0.587   4.897  0.4621 -0.1158  0.6806
 7510TIP3    H144021   1.656   0.614   4.986  0.5542  1.3987  0.2677
 7510TIP3    H244022   1.777   0.587   4.898  0.5418 -2.6632  1.2906
 7511TIP3   OH244023   3.606   3.887   4.154  0.4432 -0.0544 -0.3031
 7511TIP3    H144024   3.530   3.885   4.212 -0.0592 -1.5280 -0.9651
 7511TIP3    H244025   3.646   3.801   4.164  1.9813  0.6658 -0.0540
 7512TIP3   OH244026   2.006   4.198   2.777  0.4630  0.7305  0.1500
 7512TIP3    H144027   1.923   4.214   2.733  0.1108  1.7916  1.1540
 7512TIP3    H244028   2.071   4.195   2.706 -0.4929 -0.7972 -0.7057
 7513TIP3   OH244029   0.929   6.777   3.284  0.0706  0.3136  0.2989
 7513TIP3    H144030   0.942   6.834   3.359  2.2572 -0.3631  0.5211
 7513TIP3    H244031   0.937   6.835   3.208  2.7254  0.3559  0.5056
 7514TIP3   OH244032   3.814   2.191   1.915  0.1506 -0.1412 -0.2272
 7514TIP3    H144033   3.719   2.183   1.923  0.2968 -2.8912 -0.4987
 7514TIP3    H244034   3.842   2.225   2.000 -0.8046 -2.7875  1.2793
 7515TIP3   OH244035   0.032   5.063  17.089 -0.4309  0.3841 -0.5569
 7515TIP3    H144036  -0.047   5.039  17.137  1.0434 -0.6344  1.5345
 7515TIP3    H244037   0.072   5.132  17.142  2.1448 -1.9630  0.8357
 7516TIP3   OH244038   2.353   2.055  16.349  0.5305  0.2491  0.6005
 7516TIP3    H144039   2.405   2.024  16.423  0.9286  1.2297  0.7480
 7516TIP3    H244040   2.349   2.150  16.360 -0.5404  0.2854  0.0933
 7517TIP3   OH244041   4.186   5.349   5.780  0.0423  1.0382 -0.4042
 7517TIP3    H144042   4.233   5.266   5.785  1.4285  1.8838  1.7265
 7517TIP3    H244043   4.246   5.407   5.733 -0.4401  1.1603 -0.8750
 7518TIP3   OH244044   5.283   3.560   4.009  0.3538  0.1106  0.4135
 7518TIP3    H144045   5.374   3.556   3.980  0.3993 -1.2852  0.6868
 7518TIP3    H244046   5.287   3.554   4.104 -0.0326 -0.3758  0.4055
 7519TIP3   OH244047   4.836   4.809   3.008 -0.6020 -0.1144  0.1248
 7519TIP3    H144048   4.845   4.796   3.102 -1.8226  1.0749  0.4387
 7519TIP3    H244049   4.875   4.731   2.969 -1.1579 -1.2043  1.6597
 7520TIP3   OH244050   4.918   5.983   2.803  0.2187 -0.4725 -0.0104
 7520TIP3    H144051   4.837   5.933   2.810  0.9146 -1.5478  0.7054
 7520TIP3    H244052   4.938   6.008   2.893  0.9905 -0.7565 -0.0911
 7521TIP3   OH244053   2.294   3.949  13.713  0.1019  0.4063 -0.1324
 7521TIP3    H144054   2.227   3.955  13.645  0.8927  2.7128 -0.8026
 7521TIP3    H244055   2.257   3.890  13.778 -3.0957  2.3792  0.0306
 7522TIP3   OH244056   4.730   6.484  14.709 -0.1325 -0.0161 -0.4440
 7522TIP3    H144057   4.790   6.538  14.657 -0.4039 -1.1191 -1.9311
 7522TIP3    H244058   4.771   6.398  14.712 -0.1695 -0.0096  1.1241
 7523TIP3   OH244059   4.526   3.519   2.564 -0.2222 -0.8667 -0.2954
 7523TIP3    H144060   4.467   3.445   2.581 -0.7768  0.0483  2.2406
 7523TIP3    H244061   4.513   3.540   2.472 -0.8362 -3.2290 -0.8136
 7524TIP3   OH244062   4.289   3.737   1.289  0.0205  0.0916 -0.1500
 7524TIP3    H144063   4.305   3.823   1.328 -0.3864 -0.4738  1.3134
 7524TIP3    H244064   4.375   3.709   1.258  0.3602  0.5437  0.3685
 7525TIP3   OH244065   3.973   0.465   6.530  0.3203 -0.4397  0.2582
 7525TIP3    H144066   3.947   0.470   6.438  0.0068 -0.3753  0.3464
 7525TIP3    H244067   3.920   0.393   6.566 -0.6481  0.4804  0.7262
 7526TIP3   OH244068   2.242   2.470   1.251 -0.1156  0.1685 -0.4158
 7526TIP3    H144069   2.230   2.495   1.159  0.9270 -0.8763 -0.8647
 7526TIP3    H244070   2.162   2.424   1.274 -0.3722  0.4119 -0.8086
 7527TIP3   OH244071   2.612   0.441   4.752 -0.7211 -0.1233  0.7605
 7527TIP3    H144072   2.527   0.439   4.709 -1.0338 -1.5888  1.3831
 7527TIP3    H244073   2.594   0.429   4.845  0.1567 -0.3660  0.9161
 7528TIP3   OH244074   1.487   0.808   6.043  0.2728  0.2122  0.2310
 7528TIP3    H144075   1.460   0.897   6.019 -0.2653 -0.4249 -1.6789
 7528TIP3    H244076   1.574   0.819   6.079 -0.1359  1.6179  0.8658
 7529TIP3   OH244077   3.210   3.222   2.539  0.1951 -0.0264  0.1672
 7529TIP3    H144078   3.207   3.277   2.617  2.2367  1.1226 -0.4903
 7529TIP3    H244079   3.209   3.132   2.573 -1.4024  0.3890  1.3462
 7530TIP3   OH244080   0.878   0.630   4.644  0.2585 -0.3623 -0.2089
 7530TIP3    H144081   0.906   0.542   4.622  0.4619  0.1858 -2.3011
 7530TIP3    H244082   0.957   0.671   4.680  0.4569 -0.7013 -0.2523
 7531TIP3   OH244083   6.035   1.049   1.808 -0.4965 -0.4329 -0.4633
 7531TIP3    H144084   6.034   1.140   1.778 -0.9286 -0.8535 -1.7927
 7531TIP3    H244085   5.973   1.004   1.751  2.0301 -2.2208 -2.0283
 7532TIP3   OH244086   2.292   2.932  17.019  0.9951 -0.0142  0.0079
 7532TIP3    H144087   2.304   2.975  16.935 -1.1986  0.5924 -0.0475
 7532TIP3    H244088   2.248   2.849  16.997  0.0758  0.3160  0.5739
 7533TIP3   OH244089   3.143   4.198  14.300 -0.3127  0.3056 -0.1291
 7533TIP3    H144090   3.054   4.168  14.313  0.1845 -1.4770 -0.6351
 7533TIP3    H244091   3.181   4.201  14.388 -0.3350 -0.7356 -0.0754
 7534TIP3   OH244092   0.911   4.055  16.410  0.2637  0.5949  0.7617
 7534TIP3    H144093   0.926   4.046  16.316  1.4884  1.0339  0.8947
 7534TIP3    H244094   0.835   4.000  16.427  1.4459 -1.4460 -0.0943
 7535TIP3   OH244095   1.444   5.680  16.300 -0.0330  0.4171 -0.5335
 7535TIP3    H144096   1.419   5.591  16.325  3.4192 -0.7937 -0.8450
 7535TIP3    H244097   1.410   5.735  16.371 -1.6586 -1.1976  0.0208
 7536TIP3   OH244098   5.508   0.494  12.100 -0.1046  0.4277 -0.4105
 7536TIP3    H144099   5.566   0.420  12.121  0.8309  1.2307 -0.1157
 7536TIP3    H244100   5.430   0.452  12.063  1.1825 -0.6363 -2.0927
 7537TIP3   OH244101   6.458   3.919   3.977  0.2493  0.3142  0.4423
 7537TIP3    H144102   6.514   3.870   4.038 -0.2291 -2.1582 -0.9591
 7537TIP3    H244103   6.515   3.987   3.941  2.4646 -2.0688 -0.9193
 7538TIP3   OH244104   5.274   2.843   1.487 -0.1645  0.0137  0.0123
 7538TIP3    H144105   5.253   2.757   1.525  0.4270  1.1947  3.3826
 7538TIP3    H244106   5.355   2.869   1.532 -0.6009  2.5418 -0.5585
 7539TIP3   OH244107   5.166   3.955  14.882 -0.2119 -0.1205  0.6452
 7539TIP3    H144108   5.082   3.972  14.839  0.4187  0.9427 -0.2336
 7539TIP3    H244109   5.166   3.860  14.897 -0.4325 -0.5818 -1.8451
 7540TIP3   OH244110   2.852   2.739  16.106 -0.0138  0.2007  0.0371
 7540TIP3    H144111   2.875   2.733  16.014  1.4862  0.6513  0.3586
 7540TIP3    H244112   2.930   2.774  16.149 -1.1339  1.2966  1.2916
 7541TIP3   OH244113   3.814   0.239   4.821  0.1255  0.0261  0.4976
 7541TIP3    H144114   3.816   0.331   4.847 -0.8870  0.1587  0.1579
 7541TIP3    H244115   3.899   0.204   4.846  0.3463  0.9472  1.0363
 7542TIP3   OH244116   5.601   3.098  14.749 -0.5082  0.3059 -0.2199
 7542TIP3    H144117   5.570   3.169  14.806  0.1923  0.2609  0.2307
 7542TIP3    H244118   5.672   3.138  14.699 -0.8266  0.2187 -0.7434
 7543TIP3   OH244119   3.386   1.005   2.117  0.2990 -0.0587 -0.1028
 7543TIP3    H144120   3.476   0.989   2.089 -0.7671 -2.6217 -2.5415
 7543TIP3    H244121   3.372   0.943   2.188  0.5054  0.4631  0.3945
 7544TIP3   OH244122   2.113   4.467   4.627 -0.4546  0.2320  0.6232
 7544TIP3    H144123   2.153   4.511   4.701  0.7012  0.1435  0.0744
 7544TIP3    H244124   2.073   4.388   4.665 -1.1283  0.9170  1.3550
 7545TIP3   OH244125   3.794   4.122   3.841  0.6331 -0.0211  0.5938
 7545TIP3    H144126   3.791   4.027   3.827  0.9443  0.1104 -0.4809
 7545TIP3    H244127   3.886   4.145   3.826  0.3347  0.6092 -0.3200
 7546TIP3   OH244128   6.134   6.466   3.656  0.2743 -0.3216 -0.5871
 7546TIP3    H144129   6.143   6.475   3.561  0.7923  1.4698 -0.4158
 7546TIP3    H244130   6.063   6.526   3.679 -0.8258 -1.7913  0.0343
 7547TIP3   OH244131   6.204   0.530   2.485 -0.7072  0.4213 -0.1814
 7547TIP3    H144132   6.190   0.483   2.403  0.6507  1.5464 -1.1019
 7547TIP3    H244133   6.295   0.511   2.508 -0.9901  0.3558  0.9281
 7548TIP3   OH244134   5.036   1.679  16.800 -0.3977 -0.3983  0.4221
 7548TIP3    H144135   5.093   1.756  16.812  1.6164 -1.6444 -0.5545
 7548TIP3    H244136   5.021   1.675  16.706 -0.7656 -0.9969  0.5014
 7549TIP3   OH244137   5.130   2.353   5.259  0.5890 -0.4202 -0.5727
 7549TIP3    H144138   5.056   2.379   5.204  0.0240 -0.9703 -0.0785
 7549TIP3    H244139   5.179   2.290   5.206 -0.2459 -1.3515 -0.2641
 7550TIP3   OH244140   1.379   2.380   3.706 -0.0184  0.0978  0.1953
 7550TIP3    H144141   1.348   2.382   3.796 -1.9973 -2.6990 -0.2910
 7550TIP3    H244142   1.449   2.315   3.706 -1.1567 -1.1753 -0.5227
 7551TIP3   OH244143   2.391   4.716   4.676  0.1454  0.0288  0.2176
 7551TIP3    H144144   2.416   4.626   4.694  1.1750  0.0568 -0.9143
 7551TIP3    H244145   2.299   4.710   4.647  0.8700 -1.0158 -2.1348
 7552TIP3   OH244146   5.997   1.698  12.719  0.3359 -0.4536 -0.0268
 7552TIP3    H144147   6.029   1.705  12.809  1.1406  0.0589 -0.3503
 7552TIP3    H244148   5.996   1.788  12.686 -1.0221 -0.4985 -0.1775
 7553TIP3   OH244149   3.817   4.238   0.673  0.5181  0.0305 -0.0613
 7553TIP3    H144150   3.743   4.183   0.698  0.3867  1.4947  3.3835
 7553TIP3    H244151   3.798   4.263   0.582 -2.4349 -0.8474  0.1895
 7554TIP3   OH244152   5.222   6.099   1.975 -0.9358  0.3453  0.2119
 7554TIP3    H144153   5.273   6.105   2.055 -2.1630  1.6596  0.9357
 7554TIP3    H244154   5.274   6.044   1.917  2.1619  2.9721  0.2678
 7555TIP3   OH244155   3.179   4.832   6.485 -0.2392 -0.2374  0.0195
 7555TIP3    H144156   3.227   4.855   6.564  1.1669 -1.3835 -0.4606
 7555TIP3    H244157   3.185   4.910   6.430  2.2306 -0.7448 -0.5405
 7556TIP3   OH244158   2.510   1.759  10.987  0.1834  0.0290 -0.5929
 7556TIP3    H144159   2.416   1.745  10.985  0.3451 -1.9546  1.7067
 7556TIP3    H244160   2.520   1.854  10.994 -1.5889  0.3018 -1.2457
 7557TIP3   OH244161   0.448   3.711  14.460 -0.3714 -0.4904 -0.5297
 7557TIP3    H144162   0.383   3.780  14.443  0.8031  0.6600 -0.4803
 7557TIP3    H244163   0.395   3.636  14.488 -1.7009  0.3510 -0.6565
 7558TIP3   OH244164   3.036   2.640  14.978  0.0312  0.1114  0.1007
 7558TIP3    H144165   3.020   2.547  14.964 -1.2556  0.4139 -0.6679
 7558TIP3    H244166   3.101   2.644  15.048  0.1556 -1.3583  0.0859
 7559TIP3   OH244167   0.292   1.003  16.903  0.2861 -0.0994 -0.5227
 7559TIP3    H144168   0.293   1.092  16.869 -2.2440 -0.0573 -0.6779
 7559TIP3    H244169   0.368   0.999  16.961  0.3271  2.2320 -0.3162
 7560TIP3   OH244170   2.918   2.532  12.941  0.2606  0.2721 -0.0446
 7560TIP3    H144171   2.923   2.496  13.030 -0.5373  1.2072  0.3859
 7560TIP3    H244172   2.856   2.475  12.896  1.4175 -0.8184 -0.3260
 7561TIP3   OH244173   1.490   3.816   1.435  0.1589 -0.2084 -0.1473
 7561TIP3    H144174   1.578   3.833   1.401  0.8211 -1.3833  0.9094
 7561TIP3    H244175   1.501   3.743   1.495 -1.9702 -2.1174 -1.9202
 7562TIP3   OH244176   4.931   6.343  11.862 -0.6329 -0.2031  0.4345
 7562TIP3    H144177   4.845   6.313  11.831 -0.5417 -1.5188  1.3715
 7562TIP3    H244178   4.987   6.339  11.785 -1.4276  0.8562 -0.2371
 7563TIP3   OH244179   2.916   0.432  16.768 -0.2267  0.5951  0.0156
 7563TIP3    H144180   2.879   0.415  16.681  0.1502 -0.9356  0.1256
 7563TIP3    H244181   2.858   0.386  16.828  1.1725 -0.9296  0.2773
 7564TIP3   OH244182   6.268   1.777   4.058  0.3595  0.7762 -0.2289
 7564TIP3    H144183   6.339   1.841   4.056  0.6463  0.4838  0.6526
 7564TIP3    H244184   6.307   1.698   4.094 -0.5805  0.8362  0.9713
 7565TIP3   OH244185   3.475   3.812   2.814  0.0605  0.3937  0.0913
 7565TIP3    H144186   3.432   3.726   2.815 -1.2696  1.0342  0.9198
 7565TIP3    H244187   3.522   3.814   2.730  0.8836 -1.4796  0.4650
 7566TIP3   OH244188   6.312   2.722  12.294  0.1042  0.0745 -0.7981
 7566TIP3    H144189   6.242   2.785  12.309  1.1254  1.3104 -1.0247
 7566TIP3    H244190   6.390   2.765  12.330  1.0234 -0.5861 -1.9429
 7567TIP3   OH244191   4.041   3.772   4.247 -0.3155  0.1758 -0.3500
 7567TIP3    H144192   4.136   3.766   4.242 -0.0374  1.6494  1.6687
 7567TIP3    H244193   4.009   3.690   4.209  1.7514 -0.3914 -0.9597
 7568TIP3   OH244194   6.179   0.060   4.636 -0.2532 -0.1206 -0.3792
 7568TIP3    H144195   6.113   0.079   4.702  1.3848  0.3679  1.1884
 7568TIP3    H244196   6.218   0.145   4.614  0.9352 -0.5656 -0.0747
 7569TIP3   OH244197   4.870   6.557   5.611  0.1245 -0.5423  0.0772
 7569TIP3    H144198   4.905   6.624   5.670  2.3632 -0.8634 -0.7883
 7569TIP3    H244199   4.839   6.488   5.669  2.8792 -1.1523  0.9803
 7570TIP3   OH244200   2.808   2.677   6.719  0.1048  0.4589 -0.1712
 7570TIP3    H144201   2.759   2.722   6.787 -0.8876  0.6443 -0.9891
 7570TIP3    H244202   2.744   2.659   6.651  0.7612 -1.0393 -0.4282
 7571TIP3   OH244203   3.172   1.727   0.481  0.2861  0.5963 -0.3569
 7571TIP3    H144204   3.205   1.817   0.469  1.4920 -0.0123 -2.0379
 7571TIP3    H244205   3.117   1.711   0.404 -0.4634  0.1038  0.2666
 7572TIP3   OH244206   1.129   6.094   4.049 -0.0260  0.0334  0.6408
 7572TIP3    H144207   1.100   6.044   4.125  0.5116 -1.1275  0.0988
 7572TIP3    H244208   1.149   6.028   3.982  1.1755  0.9314  0.0723
 7573TIP3   OH244209   2.153   1.258   2.320 -0.1214  0.2000 -0.4031
 7573TIP3    H144210   2.229   1.277   2.374 -1.3495  1.0839  1.1150
 7573TIP3    H244211   2.152   1.328   2.255  0.0324  0.5292 -0.0561
 7574TIP3   OH244212   1.675   0.998   5.834  0.1341 -0.0978  0.0494
 7574TIP3    H144213   1.653   1.091   5.823  0.0254 -0.1890 -0.5331
 7574TIP3    H244214   1.609   0.952   5.783  0.1047 -0.5083  0.4517
 7575TIP3   OH244215   6.013   0.483  11.062  1.0164  0.3149 -0.6073
 7575TIP3    H144216   6.006   0.391  11.086  0.8179  0.2784 -0.8088
 7575TIP3    H244217   6.102   0.492  11.028  0.3036 -0.3121 -2.7650
 7576TIP3   OH244218   0.248   1.246   3.117 -0.0222 -0.0843 -0.2929
 7576TIP3    H144219   0.270   1.337   3.136 -1.1537  0.1622 -0.0971
 7576TIP3    H244220   0.154   1.248   3.098 -0.0249 -1.1884 -0.4182
 7577TIP3   OH244221   6.515   0.073  11.142  0.2045 -0.0035 -0.5890
 7577TIP3    H144222   6.434   0.111  11.175 -0.2611 -0.4590 -1.1760
 7577TIP3    H244223   6.583   0.136  11.165 -0.3599  0.5246 -0.3528
 7578TIP3   OH244224   3.366   4.755   2.072 -0.0928  0.0816 -0.7409
 7578TIP3    H144225   3.271   4.743   2.068 -0.0898  0.0383 -0.6705
 7578TIP3    H244226   3.399   4.715   1.991 -0.0683 -0.5099 -0.4383
 7579TIP3   OH244227   0.362   2.119   5.108  0.3627 -0.1445  0.8427
 7579TIP3    H144228   0.345   2.198   5.056 -2.5537 -0.1354  1.6265
 7579TIP3    H244229   0.402   2.058   5.047 -1.4167  0.4417 -1.0405
 7580TIP3   OH244230   1.958   0.785   2.386  0.5958 -0.2114  0.4152
 7580TIP3    H144231   2.025   0.852   2.392  0.4887 -0.1493  0.9702
 7580TIP3    H244232   1.994   0.719   2.327  1.1511 -0.1844  0.7219
 7581TIP3   OH244233   4.815   3.815   3.706 -0.3245 -0.2717 -0.2334
 7581TIP3    H144234   4.728   3.775   3.708 -0.5800  0.2843 -0.1150
 7581TIP3    H244235   4.829   3.847   3.795 -0.1875  0.0375 -0.3649
 7582TIP3   OH244236   0.138   2.245  15.610 -0.2094  0.0934  0.2342
 7582TIP3    H144237   0.094   2.268  15.528  0.0818  1.4807  0.4424
 7582TIP3    H244238   0.232   2.248  15.589 -0.1544 -0.9202  0.2833
 7583TIP3   OH244239   5.425   5.081  15.423  0.2896 -0.9346  0.1687
 7583TIP3    H144240   5.513   5.101  15.392  0.2951 -0.9286  0.1886
 7583TIP3    H244241   5.371   5.081  15.344 -0.0987  1.2343  0.3632
 7584TIP3   OH244242   5.669   0.968  15.330  0.1890 -0.2011 -0.0594
 7584TIP3    H144243   5.698   0.910  15.259  1.0264  0.2209 -0.0724
 7584TIP3    H244244   5.575   0.949  15.339 -0.1406  0.3230 -1.8597
 7585TIP3   OH244245   1.817   2.379  14.978  0.3080 -0.1511  0.0100
 7585TIP3    H144246   1.752   2.314  14.950  0.5084  0.6524 -2.6371
 7585TIP3    H244247   1.822   2.369  15.073 -0.7735 -2.9345 -0.1328
 7586TIP3   OH244248   0.816   5.321   5.929  0.5899 -0.1823  0.2335
 7586TIP3    H144249   0.906   5.302   5.954  0.4984 -1.5136 -0.3572
 7586TIP3    H244250   0.763   5.262   5.983  0.1072  0.1284  0.1093
 7587TIP3   OH244251   3.255   1.074   1.743  0.4761  0.4603 -0.6685
 7587TIP3    H144252   3.220   1.122   1.668  0.0925 -0.2498 -0.9531
 7587TIP3    H244253   3.233   1.128   1.818 -0.2352  0.5812 -0.9529
 7588TIP3   OH244254   2.695   3.326  14.790 -0.4441 -0.4289  0.5247
 7588TIP3    H144255   2.622   3.387  14.785 -1.3019 -1.5410 -2.2967
 7588TIP3    H244256   2.699   3.301  14.883 -2.4527  1.0295  1.0632
 7589TIP3   OH244257   5.837   6.128  11.983 -0.1441 -0.6009 -0.1844
 7589TIP3    H144258   5.834   6.049  11.928  0.1116  0.4466 -1.7897
 7589TIP3    H244259   5.915   6.175  11.952 -1.2038  1.0680 -0.4493
 7590TIP3   OH244260   4.227   3.800   6.216 -0.3143  0.6981 -0.0651
 7590TIP3    H144261   4.189   3.718   6.248  0.1746 -0.4191 -2.1929
 7590TIP3    H244262   4.164   3.867   6.243 -1.5296 -0.5625  0.3695
 7591TIP3   OH244263   5.213   6.738   1.248 -0.3556 -0.3244  0.2347
 7591TIP3    H144264   5.258   6.822   1.233  0.9226 -1.0794 -0.2961
 7591TIP3    H244265   5.237   6.714   1.337 -1.5641  0.3462  0.7680
 7592TIP3   OH244266   3.482   4.322  16.824  0.0942 -0.2407  0.1953
 7592TIP3    H144267   3.510   4.388  16.888 -0.8476  0.4736 -0.0975
 7592TIP3    H244268   3.444   4.252  16.876 -1.9354  0.9476  0.4251
 7593TIP3   OH244269   5.632   4.014   4.800 -0.3125  0.0429 -0.0446
 7593TIP3    H144270   5.549   4.035   4.842 -0.0795  0.6749  0.1084
 7593TIP3    H244271   5.696   4.014   4.871 -0.1459 -0.2598 -0.1907
 7594TIP3   OH244272   5.878   6.131   0.775 -0.3573  0.4187 -0.1880
 7594TIP3    H144273   5.902   6.076   0.850  2.5520  0.8822 -0.6325
 7594TIP3    H244274   5.865   6.070   0.703  0.0220  0.1204 -0.0126
 7595TIP3   OH244275   1.478   5.379   5.157  0.4264  0.2731 -0.2180
 7595TIP3    H144276   1.490   5.474   5.159  1.5055  0.1843 -1.1413
 7595TIP3    H244277   1.567   5.344   5.164  0.4245 -0.5774 -3.0873
 7596TIP3   OH244278   4.179   5.784  11.305  0.3349 -0.0554  0.0625
 7596TIP3    H144279   4.144   5.752  11.388  0.1556  0.8181  0.3323
 7596TIP3    H244280   4.130   5.737  11.238  0.2923 -0.5673  0.4473
 7597TIP3   OH244281   4.604   2.646   4.619 -1.0890  0.4028 -0.0735
 7597TIP3    H144282   4.632   2.712   4.555  0.2223  0.3448  0.4157
 7597TIP3    H244283   4.612   2.563   4.573  2.5258  0.0512  0.8829
 7598TIP3   OH244284   2.018   2.128   4.776 -0.1403 -0.0877 -0.4464
 7598TIP3    H144285   1.935   2.087   4.750 -0.7519  1.7221 -1.5479
 7598TIP3    H244286   2.020   2.210   4.727  1.2433  0.9828  1.2983
 7599TIP3   OH244287   2.913   3.963   3.571  0.4761  0.5290 -0.1698
 7599TIP3    H144288   2.873   3.876   3.561 -0.6982  1.1793 -1.4890
 7599TIP3    H244289   2.881   3.995   3.656 -1.0546  0.6171 -0.7397
 7600TIP3   OH244290   1.400   2.523   0.874 -0.4554  0.0858 -0.6357
 7600TIP3    H144291   1.309   2.512   0.899 -0.5533  1.2510 -0.4125
 7600TIP3    H244292   1.439   2.573   0.945  0.2114  0.1080 -1.0066
 7601TIP3   OH244293   2.798   3.551   5.960  0.0213 -0.3196 -0.4074
 7601TIP3    H144294   2.784   3.495   6.036 -0.1234  1.6439  1.0814
 7601TIP3    H244295   2.865   3.614   5.988  0.3712  0.1157 -2.1009
 7602TIP3   OH244296   3.324   0.819   2.316  0.5121  0.2876  0.6122
 7602TIP3    H144297   3.303   0.729   2.291 -0.6852  0.9738 -1.0883
 7602TIP3    H244298   3.270   0.836   2.393 -0.4891  0.0238 -0.0050
 7603TIP3   OH244299   5.985   4.731   0.587 -0.1237  0.1609  0.3844
 7603TIP3    H144300   6.030   4.662   0.636  1.3802 -0.3214 -1.5942
 7603TIP3    H244301   5.957   4.689   0.506  0.1356  1.6856 -0.5220
 7604TIP3   OH244302   4.884   1.275  15.483  0.1353  0.2373  0.0806
 7604TIP3    H144303   4.966   1.252  15.441  0.5124  2.3659 -0.4761
 7604TIP3    H244304   4.871   1.207  15.549 -0.1082 -2.8500 -2.8449
 7605TIP3   OH244305   1.988   1.926   2.058  0.1067  0.2405  0.9824
 7605TIP3    H144306   2.029   1.998   2.106 -0.5422  0.3375  1.4092
 7605TIP3    H244307   1.896   1.952   2.051 -0.0942 -0.4587  0.9688
 7606TIP3   OH244308   0.047   2.846  12.069  0.3070 -0.2805 -0.6318
 7606TIP3    H144309  -0.029   2.816  12.020 -0.2613 -0.0577  0.0896
 7606TIP3    H244310   0.030   2.818  12.159 -0.7999  2.9990  0.3626
 7607TIP3   OH244311   1.262   3.928   5.602 -0.1055 -0.3525  0.3959
 7607TIP3    H144312   1.326   3.984   5.647 -2.8306  1.8139  1.9023
 7607TIP3    H244313   1.265   3.956   5.511  0.2901  0.5586  0.6796
 7608TIP3   OH244314   5.835   0.913   2.545  0.1962  0.7306 -0.1518
 7608TIP3    H144315   5.801   0.862   2.618 -0.7165  0.2601 -0.8763
 7608TIP3    H244316   5.908   0.861   2.511  0.1217  0.5591 -0.0506
 7609TIP3   OH244317   0.124   5.612   5.073  0.0797 -0.1248 -0.1192
 7609TIP3    H144318   0.188   5.666   5.120  0.3228  0.7260 -1.3878
 7609TIP3    H244319   0.168   5.588   4.992 -1.2194  0.5463 -1.0628
 7610TIP3   OH244320   2.196   1.473  12.517  0.3373 -0.6392  0.5351
 7610TIP3    H144321   2.201   1.567  12.534  0.9793 -0.3932 -0.9207
 7610TIP3    H244322   2.266   1.436  12.570  0.0308 -0.3242  1.1805
 7611TIP3   OH244323   3.335   2.140   4.671  0.4120  0.2685  0.2432
 7611TIP3    H144324   3.374   2.077   4.732  0.9091  0.2255 -0.1101
 7611TIP3    H244325   3.247   2.156   4.706  0.8403  0.5824  1.2119
 7612TIP3   OH244326   0.208   4.301   2.828  0.4903  0.1527 -0.4731
 7612TIP3    H144327   0.130   4.269   2.873  0.6565 -0.3926 -0.5616
 7612TIP3    H244328   0.252   4.356   2.892  0.9102 -0.8987  0.1690
 7613TIP3   OH244329   6.755   6.146   3.886  0.2558 -0.2608 -0.2555
 7613TIP3    H144330   6.838   6.190   3.866 -0.1838  0.2600 -0.9602
 7613TIP3    H244331   6.709   6.141   3.803 -0.9910  0.6353  0.3371
 7614TIP3   OH244332   0.838   6.415   1.016  0.2101 -0.0922  0.2298
 7614TIP3    H144333   0.752   6.376   1.003 -0.3184  0.9433  0.5265
 7614TIP3    H244334   0.862   6.391   1.106 -0.1412  0.3291  0.4341
 7615TIP3   OH244335   1.415   3.516   1.624 -0.8181 -0.5819  0.1853
 7615TIP3    H144336   1.509   3.505   1.609 -0.7369 -0.8404  0.8666
 7615TIP3    H244337   1.375   3.496   1.539 -0.1676  1.1381 -0.5872
 7616TIP3   OH244338   1.253   2.528   1.400  0.1729 -0.4696  0.2011
 7616TIP3    H144339   1.191   2.496   1.466  1.0589  0.3646  1.4848
 7616TIP3    H244340   1.323   2.464   1.400 -0.2603 -0.9688 -0.6494
 7617TIP3   OH244341   6.783   1.031  13.078 -0.3557 -0.2715 -0.3442
 7617TIP3    H144342   6.725   1.107  13.084  2.7406  2.4158 -1.4740
 7617TIP3    H244343   6.850   1.047  13.144  0.7054 -1.6774 -1.0323
 7618TIP3   OH244344   3.649   5.012   2.836  0.0622  0.5360  0.5976
 7618TIP3    H144345   3.648   4.922   2.802 -0.0789  1.2149 -1.3108
 7618TIP3    H244346   3.734   5.047   2.810 -0.3639  1.3380  0.2601
 7619TIP3   OH244347   4.272   5.419  13.469 -0.9948 -0.3139 -0.0626
 7619TIP3    H144348   4.285   5.349  13.405  2.0269 -0.1515  0.2350
 7619TIP3    H244349   4.232   5.376  13.544 -1.7436 -1.1307 -0.9062
 7620TIP3   OH244350   1.589   0.476  11.270 -0.4145  0.3618  0.1070
 7620TIP3    H144351   1.589   0.550  11.330 -3.2460 -0.8552  1.8464
 7620TIP3    H244352   1.519   0.496  11.208 -0.6317 -0.4495  0.0798
 7621TIP3   OH244353   5.653   0.860   3.214 -0.4241  0.2235  0.3041
 7621TIP3    H144354   5.635   0.917   3.139 -1.3026  0.7763  0.9214
 7621TIP3    H244355   5.731   0.898   3.255  0.5051 -0.5078 -0.7321
 7622TIP3   OH244356   2.070   3.051  11.537  0.6963 -0.0195  0.0917
 7622TIP3    H144357   2.038   3.132  11.578 -0.3070  1.2124 -2.8284
 7622TIP3    H244358   1.996   2.990  11.544  1.2480 -0.5457  1.7832
 7623TIP3   OH244359   6.503   4.957  15.502 -0.0168 -0.1656  0.6031
 7623TIP3    H144360   6.583   5.006  15.483 -0.4569  0.7616  1.1162
 7623TIP3    H244361   6.444   4.978  15.429  0.4112 -1.3677 -0.1292
 7624TIP3   OH244362   6.234   0.756   6.448 -0.1056 -0.2599 -0.1036
 7624TIP3    H144363   6.212   0.807   6.370  0.5986 -2.3237 -1.7538
 7624TIP3    H244364   6.154   0.756   6.500 -0.4895  1.4628 -0.6264
 7625TIP3   OH244365   6.267   2.833  13.523 -0.0098 -0.4364  0.4534
 7625TIP3    H144366   6.258   2.797  13.435  0.3434  0.2415  0.1340
 7625TIP3    H244367   6.326   2.908  13.513  0.7756 -0.8946  1.4116
 7626TIP3   OH244368   0.923   2.795   1.300 -0.0715  0.2184  0.1396
 7626TIP3    H144369   0.988   2.772   1.233 -1.4367 -0.7044 -0.9384
 7626TIP3    H244370   0.845   2.746   1.274 -1.5050  2.0435  0.8365
 7627TIP3   OH244371   3.490   6.235  14.835 -0.0217 -0.4657 -0.4674
 7627TIP3    H144372   3.567   6.214  14.888 -0.1900  0.8578  0.3334
 7627TIP3    H244373   3.417   6.191  14.880  0.2056 -1.5502 -1.1147
 7628TIP3   OH244374   0.292   6.176  13.142  0.0823 -0.2901  0.7113
 7628TIP3    H144375   0.367   6.156  13.085 -0.0560 -2.1825  1.1303
 7628TIP3    H244376   0.332   6.193  13.228  0.1152 -0.1659  0.6707
 7629TIP3   OH244377   4.047   1.960   6.242 -0.1984  0.3221  0.2444
 7629TIP3    H144378   3.994   1.907   6.302  0.8771  0.2562  1.1789
 7629TIP3    H244379   4.135   1.957   6.279  0.9651 -1.2978 -2.3532
 7630TIP3   OH244380   2.929   3.359  11.700  0.2941 -0.4128  0.0715
 7630TIP3    H144381   2.985   3.382  11.626 -0.7426  0.7189 -0.3902
 7630TIP3    H244382   2.846   3.332  11.659  0.2595 -1.4160  0.7653
 7631TIP3   OH244383   2.066   4.398  14.468 -0.2522 -0.4335 -0.3106
 7631TIP3    H144384   2.053   4.437  14.555  0.9244  2.3169 -1.2383
 7631TIP3    H244385   2.137   4.449  14.429  1.4355 -3.6253 -1.7838
 7632TIP3   OH244386   3.629   0.218   1.168  0.3312  0.0132  0.0308
 7632TIP3    H144387   3.686   0.141   1.163 -0.3586 -0.9804  4.0197
 7632TIP3    H244388   3.548   0.185   1.208 -0.9978  2.3530 -0.5524
 7633TIP3   OH244389   3.214   4.030  15.757 -0.6561 -0.0333  0.7518
 7633TIP3    H144390   3.235   3.938  15.774  2.4563  0.7257  1.8038
 7633TIP3    H244391   3.223   4.039  15.662 -0.2761 -0.6927  0.7178
 7634TIP3   OH244392   6.488   3.855  12.842 -0.6637  0.4196 -0.4992
 7634TIP3    H144393   6.455   3.945  12.847  0.9005  1.0546 -1.0689
 7634TIP3    H244394   6.543   3.855  12.764 -0.4997 -0.9984 -0.3980
 7635TIP3   OH244395   1.475   6.019   2.259 -0.3382 -0.1114  0.5646
 7635TIP3    H144396   1.441   6.093   2.309 -0.5861  0.1444  0.0142
 7635TIP3    H244397   1.567   6.012   2.287 -0.1484  0.7661  0.1991
 7636TIP3   OH244398   1.498   2.204   2.042 -0.1594  0.1023 -0.0782
 7636TIP3    H144399   1.557   2.274   2.069  0.0816 -0.0417 -0.2296
 7636TIP3    H244400   1.449   2.242   1.968 -1.9267  1.0490  1.4947
 7637TIP3   OH244401   0.969   6.222  14.978  0.6130  0.0106 -0.4610
 7637TIP3    H144402   1.022   6.290  14.936  1.1238 -0.7724 -1.1290
 7637TIP3    H244403   0.965   6.248  15.070  0.3834  1.1951 -0.7814
 7638TIP3   OH244404   0.847   4.783  11.396 -0.2823  0.3489 -0.2879
 7638TIP3    H144405   0.889   4.866  11.420 -0.2583 -0.0340  1.1087
 7638TIP3    H244406   0.856   4.778  11.301  1.2365  1.1381 -0.2200
 7639TIP3   OH244407   0.608   3.387  12.858 -0.5475 -0.1096 -0.3344
 7639TIP3    H144408   0.646   3.304  12.886  1.3898  0.3141 -1.5533
 7639TIP3    H244409   0.586   3.432  12.940  1.1531 -0.6140  0.4439
 7640TIP3   OH244410   2.402   0.379  10.694  0.3169 -0.4189 -0.1560
 7640TIP3    H144411   2.413   0.285  10.677 -0.8804 -0.3409 -1.5247
 7640TIP3    H244412   2.378   0.416  10.609 -2.1328  0.6481  0.8940
 7641TIP3   OH244413   1.635   5.596   1.130  0.0288 -0.0192 -0.0401
 7641TIP3    H144414   1.550   5.552   1.130  0.6534 -1.3766 -1.9443
 7641TIP3    H244415   1.686   5.547   1.066  1.9939  1.2681  0.4809
 7642TIP3   OH244416   2.556   4.448  11.273 -0.1251  0.0241 -0.0041
 7642TIP3    H144417   2.570   4.528  11.222 -0.8174  0.3766  0.3537
 7642TIP3    H244418   2.643   4.408  11.277  0.3166  0.9697  0.1660
 7643TIP3   OH244419   6.620   2.124   1.094 -0.1995 -0.0708 -0.1853
 7643TIP3    H144420   6.528   2.152   1.100  0.3747  1.7048  0.9538
 7643TIP3    H244421   6.620   2.059   1.022 -2.3953 -0.4480  0.0675
 7644TIP3   OH244422   6.078   3.653   5.247  0.3547  0.0530  0.5483
 7644TIP3    H144423   6.136   3.726   5.224 -1.8584  1.5940 -0.5070
 7644TIP3    H244424   6.072   3.601   5.167 -0.6050  0.5885  0.2491
 7645TIP3   OH244425   5.205   5.263  15.587 -0.5126 -0.0732  0.0141
 7645TIP3    H144426   5.299   5.269  15.569 -0.1129 -1.9562  1.1933
 7645TIP3    H244427   5.187   5.332  15.650 -0.2259  1.1163 -1.1475
 7646TIP3   OH244428   2.540   0.148  13.536  0.0428 -0.6034  0.6150
 7646TIP3    H144429   2.610   0.161  13.471 -1.3266  0.1125 -0.7747
 7646TIP3    H244430   2.586   0.116  13.614  1.7266 -1.8550 -0.8005
 7647TIP3   OH244431   3.596   3.964   2.038  0.1195 -0.0910  0.0540
 7647TIP3    H144432   3.508   3.992   2.062  0.4408  1.0633 -0.0803
 7647TIP3    H244433   3.604   3.876   2.075 -0.2437  0.6975  2.1199
 7648TIP3   OH244434   0.126   6.702  14.181 -0.4208 -0.1163 -0.3862
 7648TIP3    H144435   0.047   6.754  14.165 -0.0443  1.0687  1.2958
 7648TIP3    H244436   0.197   6.766  14.183  0.5552 -1.1179 -1.5150
 7649TIP3   OH244437   5.666   0.797  15.104 -0.5188 -0.3181  0.2622
 7649TIP3    H144438   5.580   0.803  15.061 -0.9281 -4.6342  0.0581
 7649TIP3    H244439   5.725   0.843  15.045 -2.6256  3.3156  0.6880
 7650TIP3   OH244440   4.218   3.614  12.827  0.2853 -0.2207 -0.6158
 7650TIP3    H144441   4.234   3.544  12.889 -0.4308 -0.5809 -0.8202
 7650TIP3    H244442   4.129   3.597  12.794  1.1072 -0.7746 -2.6763
 7651TIP3   OH244443   4.072   5.852   6.024  0.0229  0.2207 -0.0862
 7651TIP3    H144444   4.041   5.943   6.022  0.0726  0.2756 -3.0376
 7651TIP3    H244445   4.134   5.846   5.951  1.6080 -1.7117  1.2824
 7652TIP3   OH244446   0.874   4.610  14.781 -0.2926 -0.8000 -0.0535
 7652TIP3    H144447   0.940   4.643  14.842  1.0643  0.2969 -1.9845
 7652TIP3    H244448   0.867   4.678  14.714  0.2298 -2.9839 -2.5065
 7653TIP3   OH244449   3.015   1.862  14.134  0.2912 -0.3406 -0.7035
 7653TIP3    H144450   3.056   1.853  14.220 -1.3049  1.4750  0.3199
 7653TIP3    H244451   3.050   1.789  14.083  1.9810 -0.9364  1.1865
 7654TIP3   OH244452   3.193   0.379   3.022  0.4131 -0.0217 -0.2665
 7654TIP3    H144453   3.236   0.310   3.073 -1.2407 -0.7288  0.2622
 7654TIP3    H244454   3.208   0.459   3.073 -0.1596 -0.5137  0.7073
 7655TIP3   OH244455   0.474   5.963  14.235 -0.2463 -0.0687  0.4217
 7655TIP3    H144456   0.524   5.975  14.154 -0.0536 -0.6873  0.4444
 7655TIP3    H244457   0.533   5.913  14.292 -0.3948  0.3297  0.9310
 7656TIP3   OH244458   4.652   2.767  14.235  0.2384  0.1725  0.3956
 7656TIP3    H144459   4.620   2.825  14.304 -0.1876  0.1672  0.2029
 7656TIP3    H244460   4.575   2.718  14.207  0.5517 -0.3328  0.4051
 7657TIP3   OH244461   0.147   3.634   1.418  0.0554  0.1833 -0.2851
 7657TIP3    H144462   0.148   3.687   1.339  0.1293  0.7351  0.0806
 7657TIP3    H244463   0.068   3.663   1.465 -0.7530 -1.1045 -0.8028
 7658TIP3   OH244464   1.482   0.695  13.680 -0.2445  0.0820 -0.0602
 7658TIP3    H144465   1.484   0.599  13.672 -2.0237 -0.0341  0.4242
 7658TIP3    H244466   1.392   0.715  13.707  0.0239  1.9171 -0.3885
 7659TIP3   OH244467   4.457   2.429  11.424  0.1029  0.6469  0.3351
 7659TIP3    H144468   4.378   2.394  11.464  0.1278  0.4224  0.1898
 7659TIP3    H244469   4.426   2.493  11.360 -0.0449 -0.6123 -0.8934
 7660TIP3   OH244470   1.023   5.092   1.810 -0.5357 -0.0630  0.2726
 7660TIP3    H144471   1.105   5.056   1.777  0.2974  0.8078  1.3461
 7660TIP3    H244472   0.992   5.028   1.873  0.2150  0.3902  1.1259
 7661TIP3   OH244473   2.223   5.672  15.676 -0.3795  0.3298  0.1527
 7661TIP3    H144474   2.152   5.661  15.739 -0.4662 -0.5345 -0.0795
 7661TIP3    H244475   2.179   5.696  15.594 -0.3662  0.2951  0.1342
 7662TIP3   OH244476   4.965   4.625  13.111  0.1564 -0.5201 -0.2714
 7662TIP3    H144477   4.881   4.640  13.068 -0.2815 -0.4475  0.6022
 7662TIP3    H244478   5.022   4.694  13.077 -0.5315  0.2806  0.1908
 7663TIP3   OH244479   2.969   0.570   5.311  0.1358 -0.2120  0.5751
 7663TIP3    H144480   3.054   0.535   5.284 -0.1893 -1.2575  0.8469
 7663TIP3    H244481   2.981   0.595   5.402  0.3488  0.3189  0.4031
 7664TIP3   OH244482   2.437   6.294   5.022 -0.2430 -0.2366 -0.1364
 7664TIP3    H144483   2.410   6.343   4.945 -1.5131 -1.0468 -0.2329
 7664TIP3    H244484   2.501   6.231   4.988 -0.3384 -0.1855 -0.4169
 7665TIP3   OH244485   0.515   0.335  16.420  0.2201  0.2049  0.7382
 7665TIP3    H144486   0.550   0.414  16.460  1.6715 -0.1423  0.2388
 7665TIP3    H244487   0.574   0.317  16.346 -0.7373 -0.7163  0.1662
 7666TIP3   OH244488   1.249   5.528   4.923 -0.3742 -0.3234 -0.1171
 7666TIP3    H144489   1.243   5.459   4.989  2.1206 -2.3884 -1.8596
 7666TIP3    H244490   1.303   5.595   4.964 -0.3608 -0.7552  0.5984
 7667TIP3   OH244491   2.317   4.544   2.743 -0.3888  0.2025 -0.0244
 7667TIP3    H144492   2.248   4.541   2.809 -2.5359  0.0472 -2.1491
 7667TIP3    H244493   2.341   4.452   2.729  1.2060  0.3274  1.5805
 7668TIP3   OH244494   3.011   4.509  12.670  0.0823  0.5432 -0.3677
 7668TIP3    H144495   3.055   4.500  12.586 -1.8228  0.1975 -1.3767
 7668TIP3    H244496   2.999   4.603  12.681  1.5156  0.6844  0.1939
 7669TIP3   OH244497   0.315   2.822  13.342  0.4427 -0.4931  0.7487
 7669TIP3    H144498   0.392   2.876  13.325 -0.5021  0.2177 -1.8142
 7669TIP3    H244499   0.317   2.755  13.273 -1.1211 -0.5307  0.6988
 7670TIP3   OH244500   5.391   2.759   5.500 -0.2265 -0.1439 -0.0720
 7670TIP3    H144501   5.354   2.830   5.552  0.0458 -0.4873  0.6067
 7670TIP3    H244502   5.396   2.794   5.411  2.0232  1.5022  0.6295
 7671TIP3   OH244503   3.003   2.843  14.817  0.4670  0.2263 -0.2868
 7671TIP3    H144504   3.032   2.767  14.868 -2.1599  0.0189  1.0954
 7671TIP3    H244505   2.921   2.870  14.859 -0.0678  2.1960 -2.3783
 7672TIP3   OH244506   1.342   5.775  13.907 -0.2113  0.2822  0.0889
 7672TIP3    H144507   1.340   5.744  13.816  0.6541  1.4050 -0.3449
 7672TIP3    H244508   1.298   5.706  13.957  1.4391 -1.5646 -0.8353
 7673TIP3   OH244509   3.046   6.344  15.911  0.1064 -0.0024  0.4923
 7673TIP3    H144510   3.021   6.278  15.846 -0.3827  0.1182  0.5574
 7673TIP3    H244511   3.085   6.294  15.983  1.3742 -0.0841 -0.2136
 7674TIP3   OH244512   3.576   0.160   4.750  0.3560 -0.0870  0.7227
 7674TIP3    H144513   3.524   0.224   4.800  1.8571  0.3851  1.7535
 7674TIP3    H244514   3.660   0.158   4.795  0.9076 -1.5656 -0.3154
 7675TIP3   OH244515   6.000   5.430  15.242  0.4212  0.8729 -0.5894
 7675TIP3    H144516   6.081   5.456  15.197  0.8386  1.8935  0.6985
 7675TIP3    H244517   5.936   5.495  15.215  0.4906  1.0842 -0.2429
 7676TIP3   OH244518   1.426   1.623  15.181  0.3134 -0.4193  0.1796
 7676TIP3    H144519   1.333   1.600  15.181  0.3156 -0.4390  0.9089
 7676TIP3    H244520   1.429   1.714  15.211  0.2706  0.7996 -3.1422
 7677TIP3   OH244521   1.662   4.257   4.321  0.0141  0.5076  0.4596
 7677TIP3    H144522   1.585   4.244   4.265  1.1902 -1.4574 -0.8271
 7677TIP3    H244523   1.635   4.222   4.406 -0.7092  0.4163  0.2041
 7678TIP3   OH244524   5.990   6.353  13.611  0.1392  0.3813  0.3728
 7678TIP3    H144525   5.943   6.275  13.641  0.2759  0.2107  0.1450
 7678TIP3    H244526   6.078   6.321  13.592 -0.0506  0.4145 -0.5716
 7679TIP3   OH244527   2.942   4.955  14.504 -0.0379  0.1544  0.4277
 7679TIP3    H144528   3.035   4.978  14.511  0.3507 -1.2895  0.2619
 7679TIP3    H244529   2.938   4.894  14.431 -1.1609  0.3458  0.3180
 7680TIP3   OH244530   6.056   6.767   4.426 -0.0745  0.2913 -0.3211
 7680TIP3    H144531   6.088   6.809   4.506 -1.3121 -0.2902  0.5020
 7680TIP3    H244532   6.135   6.732   4.385  0.5944  0.6965  0.5852
 7681TIP3   OH244533   0.051   2.240   4.523 -0.0147 -0.3619 -0.0115
 7681TIP3    H144534   0.091   2.213   4.606 -1.7415  1.2578  1.4102
 7681TIP3    H244535  -0.037   2.204   4.526 -0.9314  1.7417  0.0330
 7682TIP3   OH244536   2.230   2.839  14.961 -0.2534 -0.0352  0.1695
 7682TIP3    H144537   2.255   2.845  14.868  0.1342 -2.5010  0.0183
 7682TIP3    H244538   2.199   2.749  14.970  1.5706 -0.4928  2.8448
 7683TIP3   OH244539   0.582   2.834  12.215 -0.3660  0.0834  0.7184
 7683TIP3    H144540   0.500   2.868  12.179 -0.0043 -0.4501 -0.6567
 7683TIP3    H244541   0.589   2.745  12.180 -0.2814 -0.7058  2.6011
 7684TIP3   OH244542   5.305   2.998   0.724 -0.6990 -0.2804  0.2448
 7684TIP3    H144543   5.369   2.942   0.768 -1.1661 -1.0953 -0.0790
 7684TIP3    H244544   5.331   3.087   0.747 -0.2605 -0.6429  1.2341
 7685TIP3   OH244545   5.037   0.455   0.232 -0.0800  0.6447  0.3850
 7685TIP3    H144546   4.947   0.425   0.226  0.3859 -0.8699  0.4824
 7685TIP3    H244547   5.065   0.468   0.141 -0.1723  0.4016  0.3224
 7686TIP3   OH244548   6.611   6.745   3.022  0.1088  0.5175  0.1126
 7686TIP3    H144549   6.674   6.735   3.094 -0.5982  2.8189  1.1201
 7686TIP3    H244550   6.623   6.834   2.991 -1.9297  0.6659 -0.3770
 7687TIP3   OH244551   3.912   2.319  16.538  0.0391  0.3001 -0.3885
 7687TIP3    H144552   3.936   2.321  16.630 -0.8161  0.5213 -0.1617
 7687TIP3    H244553   3.912   2.411  16.511 -0.5414  0.3070 -0.3806
 7688TIP3   OH244554   3.854   3.334  16.042 -0.2667 -0.2670 -0.2709
 7688TIP3    H144555   3.887   3.245  16.030  0.1871 -0.2357  0.6822
 7688TIP3    H244556   3.927   3.390  16.015  1.7503 -0.1531  4.4224
 7689TIP3   OH244557   5.637   3.881   1.112  0.0163 -0.1240 -0.3323
 7689TIP3    H144558   5.658   3.856   1.022  0.1715 -0.5482 -0.1832
 7689TIP3    H244559   5.556   3.834   1.131  0.7123 -1.1511  0.2061
 7690TIP3   OH244560   1.403   0.646  15.998  0.2317  0.5652  0.4849
 7690TIP3    H144561   1.410   0.592  15.919 -1.3993  0.9988  0.0103
 7690TIP3    H244562   1.322   0.616  16.040  1.1243  0.2646  2.0814
 7691TIP3   OH244563   5.450   4.728  12.697 -0.1904  0.2328 -0.0283
 7691TIP3    H144564   5.477   4.820  12.703 -3.5273  1.3181  0.4592
 7691TIP3    H244565   5.434   4.714  12.604  1.4101 -0.2849 -0.2615
 7692TIP3   OH244566   6.793   1.303  13.150 -0.3134 -0.4265 -0.0545
 7692TIP3    H144567   6.777   1.372  13.086  1.5997  0.4198  0.3328
 7692TIP3    H244568   6.848   1.343  13.217  0.4774 -2.1792  0.4192
 7693TIP3   OH244569   2.892   3.345  13.314  0.1694 -0.3062 -0.2530
 7693TIP3    H144570   2.895   3.375  13.404 -3.0286 -0.4700  0.0384
 7693TIP3    H244571   2.912   3.251  13.320  0.2057 -0.2690  0.2762
 7694TIP3   OH244572   5.538   5.546  16.731  0.3418 -0.1470 -0.1964
 7694TIP3    H144573   5.458   5.496  16.713  0.2950  0.0099 -0.4170
 7694TIP3    H244574   5.530   5.571  16.823 -0.4814  0.9874 -0.5578
 7695TIP3   OH244575   2.819   5.062   4.785  0.4204  0.2791  0.0454
 7695TIP3    H144576   2.887   5.001   4.812  0.4609  0.7390  1.0496
 7695TIP3    H244577   2.765   5.073   4.863  0.1050  1.1131 -0.2810
 7696TIP3   OH244578   3.988   5.534   2.558  0.2733  0.6351  0.0111
 7696TIP3    H144579   3.947   5.458   2.516 -1.5069  2.9559 -2.7489
 7696TIP3    H244580   3.928   5.557   2.629 -0.9459  1.3406 -1.2088
 7697TIP3   OH244581   5.529   3.395   1.797 -0.3623 -0.2032 -0.3451
 7697TIP3    H144582   5.548   3.386   1.704 -1.0625 -1.7081 -0.3840
 7697TIP3    H244583   5.605   3.440   1.834  0.8502 -1.3957 -1.3081
 7698TIP3   OH244584   3.860   3.712   5.304  0.0435  0.0048  0.2087
 7698TIP3    H144585   3.768   3.704   5.281  0.0902  0.3717 -0.1251
 7698TIP3    H244586   3.860   3.761   5.386 -0.1150 -1.1627  0.9280
 7699TIP3   OH244587   3.943   6.547   4.059  0.0922  0.2661  0.1133
 7699TIP3    H144588   4.032   6.561   4.027 -0.3395 -2.0419 -2.4950
 7699TIP3    H244589   3.907   6.634   4.070  1.6645  1.2623 -1.9320
 7700TIP3   OH244590   4.289   5.635  12.649  0.2917 -0.2601 -0.1686
 7700TIP3    H144591   4.285   5.730  12.635  0.6450 -0.4633 -1.8452
 7700TIP3    H244592   4.382   5.614  12.644  0.3552 -0.5457  1.5722
 7701TIP3   OH244593   3.304   0.876  11.267  0.3332 -0.2700 -0.6863
 7701TIP3    H144594   3.236   0.893  11.332  0.6067 -0.9163 -0.2121
 7701TIP3    H244595   3.385   0.872  11.318  0.8579  1.2941 -1.3476
 7702TIP3   OH244596   1.867   6.657   1.762  0.4619  0.6219 -0.2529
 7702TIP3    H144597   1.959   6.678   1.776  0.5352 -0.5959  1.3112
 7702TIP3    H244598   1.824   6.682   1.844 -0.2066 -0.9010 -0.1057
 7703TIP3   OH244599   3.807   4.573  14.609 -0.5279  0.6892  0.0521
 7703TIP3    H144600   3.724   4.615  14.586 -0.2286  0.6284 -1.2226
 7703TIP3    H244601   3.868   4.646  14.621 -0.6560  0.7162  0.5606
 7704TIP3   OH244602   2.968   4.441  14.538  0.2969  0.1588 -0.0648
 7704TIP3    H144603   2.900   4.377  14.515  0.4874  0.5394 -1.7624
 7704TIP3    H244604   2.927   4.494  14.607 -1.0382  0.2021 -0.8497
 7705TIP3   OH244605   2.937   6.041  13.684  0.0973 -0.2354 -0.0174
 7705TIP3    H144606   2.995   6.055  13.610  0.1015  1.1606  0.2352
 7705TIP3    H244607   2.991   6.055  13.761  0.3346 -2.5763  0.3389
 7706TIP3   OH244608   2.837   4.501  16.369 -0.3112  0.2948  0.2677
 7706TIP3    H144609   2.839   4.466  16.458 -0.9000  2.2615  1.1281
 7706TIP3    H244610   2.837   4.424  16.313  0.7552 -1.0015  1.9364
 7707TIP3   OH244611   1.131   4.789  13.174  0.3458  0.0793  0.1635
 7707TIP3    H144612   1.223   4.815  13.181  0.5642 -0.5051 -0.4571
 7707TIP3    H244613   1.132   4.694  13.189 -0.0435 -0.0667 -0.6937
 7708TIP3   OH244614   1.379   1.220   0.396 -0.1859 -0.3739 -0.1808
 7708TIP3    H144615   1.421   1.142   0.362  0.9716 -0.3052  1.0173
 7708TIP3    H244616   1.302   1.232   0.340 -0.4398 -2.3940 -0.3331
 7709TIP3   OH244617   5.231   3.605   0.038 -0.3734 -0.2741  0.0943
 7709TIP3    H144618   5.164   3.662  -0.001 -1.0278 -1.3294 -0.3569
 7709TIP3    H244619   5.192   3.518   0.038  0.8367 -0.8398  0.2282
 7710TIP3   OH244620   0.271   6.765   3.452  0.9807  0.7280 -0.1701
 7710TIP3    H144621   0.312   6.716   3.381  2.7212  0.1556  1.1489
 7710TIP3    H244622   0.179   6.739   3.449  0.9800  0.8281 -2.2669
 7711TIP3   OH244623   4.111   3.990   4.931  0.0706 -0.0821  0.9635
 7711TIP3    H144624   4.128   3.940   5.011 -1.4994 -2.1884  0.0995
 7711TIP3    H244625   4.016   3.997   4.928  0.0396 -0.7458 -1.0605
 7712TIP3   OH244626   5.231   3.841   3.941 -0.2170  0.6106 -0.3539
 7712TIP3    H144627   5.265   3.760   3.979  1.7865  1.8518  0.6501
 7712TIP3    H244628   5.302   3.874   3.887 -1.9032  0.4868 -2.8152
 7713TIP3   OH244629   4.178   4.438  13.310 -0.2176  0.4661  0.6188
 7713TIP3    H144630   4.173   4.437  13.405 -1.9613  0.7536  0.5647
 7713TIP3    H244631   4.139   4.522  13.285  0.0638  0.3190 -0.3501
 7714TIP3   OH244632   0.324   4.960  10.737 -0.3505 -0.4042  0.5417
 7714TIP3    H144633   0.287   4.874  10.754 -0.9879 -0.0053  1.2220
 7714TIP3    H244634   0.408   4.942  10.695 -1.0668 -1.3307 -0.5620
 7715TIP3   OH244635   5.886   4.264  13.313 -0.4060 -0.4532 -0.0945
 7715TIP3    H144636   5.971   4.240  13.274 -0.7379 -1.1954 -0.3951
 7715TIP3    H244637   5.854   4.336  13.259 -0.0929 -0.3544 -0.1516
 7716TIP3   OH244638   2.525   0.244  13.979 -0.4387 -0.0533 -0.0732
 7716TIP3    H144639   2.529   0.333  14.016  0.3137 -0.2262  0.2865
 7716TIP3    H244640   2.432   0.221  13.982 -0.5339  0.3900  0.6510
 7717TIP3   OH244641   0.434   0.548  12.485  0.0627 -0.2876  0.4910
 7717TIP3    H144642   0.386   0.476  12.443  0.1997 -0.1778  0.1376
 7717TIP3    H244643   0.504   0.569  12.423  0.1307  0.0323  0.6752
 7718TIP3   OH244644   1.175   4.112   0.681 -0.1720  0.4960 -0.5876
 7718TIP3    H144645   1.137   4.171   0.616 -0.1750 -0.1747 -1.2019
 7718TIP3    H244646   1.161   4.025   0.646  1.0093  0.1825 -0.3191
 7719TIP3   OH244647   3.361   0.330  14.593  0.2479  0.4342  0.2515
 7719TIP3    H144648   3.409   0.413  14.586  1.7632 -0.4266  0.1935
 7719TIP3    H244649   3.390   0.292  14.676  1.7114 -1.3105 -0.9728
 7720TIP3   OH244650   0.365   4.065  13.357 -0.2240 -0.4434 -0.2231
 7720TIP3    H144651   0.357   3.971  13.368  0.8782 -0.7114 -1.4556
 7720TIP3    H244652   0.428   4.076  13.286  0.8609  1.2521  0.9062
 7721TIP3   OH244653   5.489   3.199   5.292 -0.7418  0.0299  0.0660
 7721TIP3    H144654   5.572   3.225   5.254 -1.5090  1.3480 -0.7896
 7721TIP3    H244655   5.489   3.236   5.380 -0.8319  0.9106 -0.2979
 7722TIP3   OH244656   2.109   4.775   3.931  0.0851  0.3595 -0.3018
 7722TIP3    H144657   2.045   4.707   3.909  1.3606 -0.5540 -1.3627
 7722TIP3    H244658   2.093   4.844   3.866 -1.0014  0.9788  0.5805
 7723TIP3   OH244659   5.959   3.760  14.797  0.7171  0.1111  0.5193
 7723TIP3    H144660   6.048   3.736  14.822  1.0333  0.9411  0.2162
 7723TIP3    H244661   5.954   3.855  14.811  0.0278  0.1494  0.0854
 7724TIP3   OH244662   5.003   3.518   4.980 -0.0500  0.0163 -0.0386
 7724TIP3    H144663   4.926   3.469   4.951 -0.6722  0.4666  0.8216
 7724TIP3    H244664   5.015   3.494   5.072  0.5453  0.3252 -0.0252
 7725TIP3   OH244665   1.671   2.430   1.700  0.0874 -0.0867  0.4602
 7725TIP3    H144666   1.656   2.507   1.756  1.4548 -0.0659  0.8357
 7725TIP3    H244667   1.664   2.356   1.760 -1.7123 -0.3143  0.0060
 7726TIP3   OH244668   5.686   2.628   4.114 -0.1954  0.0889  0.1303
 7726TIP3    H144669   5.658   2.610   4.025  1.5098 -2.0058 -0.0656
 7726TIP3    H244670   5.762   2.572   4.127  0.7866  1.7680  2.2760
 7727TIP3   OH244671   6.078   4.976  13.242  0.2675  0.0828  0.2619
 7727TIP3    H144672   6.077   5.040  13.313  1.6372  0.6337 -0.1885
 7727TIP3    H244673   5.996   4.928  13.252  0.2037  0.4938  1.8854
 7728TIP3   OH244674   1.917   6.127   3.198  0.2178  0.0049  0.5294
 7728TIP3    H144675   1.977   6.140   3.272  0.1027 -1.1914  0.8587
 7728TIP3    H244676   1.830   6.119   3.238 -0.6076  3.8717 -0.0705
 7729TIP3   OH244677   5.895   3.309   1.401  0.4838  0.3911  0.0285
 7729TIP3    H144678   5.989   3.320   1.417  0.1960 -0.6551  3.3037
 7729TIP3    H244679   5.879   3.215   1.415 -1.1991  0.7377  0.7304
 7730TIP3   OH244680   4.091   0.283  16.815 -0.0137  0.0845 -0.4747
 7730TIP3    H144681   3.996   0.289  16.807  0.0852  0.6447 -1.3849
 7730TIP3    H244682   4.106   0.254  16.905 -1.0962 -1.3705 -0.7280
 7731TIP3   OH244683   5.573   6.230   0.803  0.4855  0.3920  0.0415
 7731TIP3    H144684   5.668   6.238   0.814  0.3938  0.1911  1.1765
 7731TIP3    H244685   5.553   6.141   0.832  0.1282 -0.1184 -1.6758
 7732TIP3   OH244686   6.741   3.101  11.190  0.1462  0.4344  0.0781
 7732TIP3    H144687   6.827   3.064  11.210  0.1540 -0.7313 -1.8897
 7732TIP3    H244688   6.687   3.078  11.266  0.9462 -1.0153  0.2508
 7733TIP3   OH244689   5.354   1.714  12.764 -0.1662 -0.0493 -0.6417
 7733TIP3    H144690   5.274   1.694  12.813  0.1224  0.4321  0.0330
 7733TIP3    H244691   5.407   1.768  12.824 -0.0723  1.0716 -1.6988
 7734TIP3   OH244692   5.922   5.031   5.113  0.1578  0.2210  0.0244
 7734TIP3    H144693   5.861   4.963   5.084  0.6198 -1.1509  2.0335
 7734TIP3    H244694   5.868   5.108   5.127 -1.0512 -0.7585  1.0434
 7735TIP3   OH244695   6.672   6.191  14.916  0.2024  0.8677 -0.3619
 7735TIP3    H144696   6.704   6.275  14.884  3.4482  0.0098  0.3270
 7735TIP3    H244697   6.607   6.214  14.982 -1.6793  2.7068 -2.6662
 7736TIP3   OH244698   3.623   4.537  16.664  0.2012 -0.3331  0.6500
 7736TIP3    H144699   3.651   4.487  16.741  2.3378 -2.0837 -1.1400
 7736TIP3    H244700   3.528   4.529  16.664  0.1950 -0.8417  2.7272
 7737TIP3   OH244701   5.483   5.632   0.584 -0.0872 -0.4785 -0.0512
 7737TIP3    H144702   5.407   5.614   0.640 -0.8353  1.0217 -0.5203
 7737TIP3    H244703   5.461   5.591   0.500 -1.2662  1.4882 -0.7645
 7738TIP3   OH244704   4.862   0.493  14.769  0.1549 -0.0324 -0.1755
 7738TIP3    H144705   4.814   0.569  14.802  2.3366  0.5910  1.8586
 7738TIP3    H244706   4.919   0.529  14.700 -0.1901 -0.2070 -0.5552
 7739TIP3   OH244707   5.854   3.529  13.394  0.0964 -0.3416  0.7671
 7739TIP3    H144708   5.876   3.560  13.481  1.6344  0.6735  0.0519
 7739TIP3    H244709   5.923   3.465  13.373  0.0487 -0.1832  0.0976
 7740TIP3   OH244710   3.195   3.540  13.578 -1.0171 -0.1721  0.1477
 7740TIP3    H144711   3.155   3.462  13.617  0.3029 -0.5838  0.7244
 7740TIP3    H244712   3.180   3.609  13.642 -2.5221  0.1792 -0.5308
 7741TIP3   OH244713   4.611   5.302   0.508 -0.1852 -0.4395  0.0692
 7741TIP3    H144714   4.703   5.277   0.522 -0.5250 -1.7642  0.0498
 7741TIP3    H244715   4.616   5.369   0.439  0.7242 -0.9694 -0.4103
 7742TIP3   OH244716   3.261   3.325  11.647  0.9076  0.5763 -0.0506
 7742TIP3    H144717   3.249   3.379  11.725 -1.4589  0.8067 -0.5090
 7742TIP3    H244718   3.191   3.353  11.587  1.2983 -1.1193 -1.3680
 7743TIP3   OH244719   0.621   5.294  16.818  0.2670  0.5716  0.1411
 7743TIP3    H144720   0.683   5.272  16.749 -0.5111  0.3478 -0.4950
 7743TIP3    H244721   0.537   5.263  16.786 -0.1006  0.4019  1.2199
 7744TIP3   OH244722   1.186   0.929  13.040 -0.0680  0.2717 -0.0166
 7744TIP3    H144723   1.223   0.913  12.953 -0.1516  1.1568 -0.2274
 7744TIP3    H244724   1.252   0.982  13.085 -0.7077  1.2001 -0.1247
 7745TIP3   OH244725   2.286   5.442  14.275 -0.2171  0.4270 -0.3512
 7745TIP3    H144726   2.285   5.522  14.328  0.1402  0.7274 -0.7946
 7745TIP3    H244727   2.315   5.374  14.335 -0.1112  0.7064 -0.0810
 7746TIP3   OH244728   4.331   1.498   0.650  0.2768  0.3979 -0.1625
 7746TIP3    H144729   4.275   1.545   0.712  1.8930  0.6099  1.2089
 7746TIP3    H244730   4.411   1.550   0.646  1.1663 -0.9459 -0.5268
 7747TIP3   OH244731   3.530   3.719   2.200 -0.6104  0.2469  0.0652
 7747TIP3    H144732   3.473   3.795   2.202 -0.4028  0.4304  2.8140
 7747TIP3    H244733   3.560   3.709   2.290  1.3943 -1.5812 -0.7105
 7748TIP3   OH244734   2.885   2.174   2.096  0.2336 -0.2826 -0.0463
 7748TIP3    H144735   2.883   2.158   2.190  0.8814 -1.9181 -0.2855
 7748TIP3    H244736   2.972   2.144   2.068  0.2695  0.7083 -1.0888
 7749TIP3   OH244737   2.015   5.681  13.309 -0.1203 -0.6318  0.6966
 7749TIP3    H144738   1.945   5.635  13.262  0.6382 -0.6772 -0.4385
 7749TIP3    H244739   1.974   5.760  13.342 -1.0457 -1.3299  1.2499
 7750TIP3   OH244740   2.224   2.981   4.970 -0.1237 -0.2632 -0.0060
 7750TIP3    H144741   2.170   2.992   5.048  0.7360  2.8359  0.2617
 7750TIP3    H244742   2.179   3.032   4.903 -0.0787 -1.7131 -1.1953
 7751TIP3   OH244743   6.250   4.520  11.045 -0.1849 -0.5245  0.0183
 7751TIP3    H144744   6.313   4.454  11.017  0.0246 -0.4688  0.3554
 7751TIP3    H244745   6.278   4.545  11.133  1.0140  1.5316 -0.8625
 7752TIP3   OH244746   6.766   5.793   5.095  0.4583  0.2715 -0.0746
 7752TIP3    H144747   6.848   5.821   5.054  0.5851 -0.1154 -0.0896
 7752TIP3    H244748   6.792   5.723   5.155 -0.0755 -1.1442 -1.4164
 7753TIP3   OH244749   2.325   0.519   0.299 -0.1220  0.2075  0.0807
 7753TIP3    H144750   2.309   0.568   0.380  0.4008  0.8019 -0.1636
 7753TIP3    H244751   2.300   0.429   0.319  0.7191  0.1929  1.1482
 7754TIP3   OH244752   3.867   5.152   2.773 -0.2462  0.6604  0.3116
 7754TIP3    H144753   3.891   5.244   2.770  1.1152  0.3081 -0.0034
 7754TIP3    H244754   3.917   5.111   2.702 -2.1935 -0.0217 -0.7561
 7755TIP3   OH244755   5.519   2.226   2.792  0.3630  0.2185 -0.5494
 7755TIP3    H144756   5.447   2.288   2.803  0.3686  0.2579 -0.7307
 7755TIP3    H244757   5.597   2.274   2.819  0.6530  0.9535 -2.4941
 7756TIP3   OH244758   4.078   6.823   5.601  0.5820 -0.0723  0.6789
 7756TIP3    H144759   4.117   6.831   5.514  1.0165  1.0798  0.9632
 7756TIP3    H244760   3.999   6.770   5.587  1.7519 -1.7201 -0.0432
 7757TIP3   OH244761   3.403   0.893  11.005  0.2351  0.9057 -0.2114
 7757TIP3    H144762   3.372   0.857  11.089  1.0855 -0.7840 -0.5725
 7757TIP3    H244763   3.403   0.988  11.018  0.9400  0.6753  1.9271
 7758TIP3   OH244764   6.107   3.664  10.544  0.0208  0.1806 -0.2803
 7758TIP3    H144765   6.106   3.576  10.582  0.9670 -0.1671 -1.0213
 7758TIP3    H244766   6.145   3.720  10.612  2.7299 -0.6202 -1.0068
 7759TIP3   OH244767   4.469   4.387   5.474 -0.4090  0.2317  0.1353
 7759TIP3    H144768   4.478   4.315   5.535  0.7987  1.1308  1.0793
 7759TIP3    H244769   4.501   4.352   5.391  2.4869  0.2765  1.0952
 7760TIP3   OH244770   6.394   0.042   6.316  0.7301 -0.2910  0.4796
 7760TIP3    H144771   6.488   0.053   6.335  0.8610  0.2924 -0.4363
 7760TIP3    H244772   6.390  -0.041   6.268  0.6148 -0.8945  1.4928
 7761TIP3   OH244773   2.932   4.229   1.214 -0.1422 -0.2150 -0.1405
 7761TIP3    H144774   2.907   4.150   1.166  0.3358 -1.1503  1.0898
 7761TIP3    H244775   2.853   4.253   1.262 -0.2795  0.0439 -0.4934
 7762TIP3   OH244776   3.310   4.146  15.002 -0.6561  0.3930 -0.6490
 7762TIP3    H144777   3.302   4.094  15.082 -2.5644  2.2935  0.5119
 7762TIP3    H244778   3.365   4.093  14.944 -0.8372 -1.9434  1.1646
 7763TIP3   OH244779   2.936   6.045   0.903 -0.2693  0.2881 -0.3574
 7763TIP3    H144780   2.884   5.992   0.842  0.0194  0.0203 -0.3738
 7763TIP3    H244781   2.993   6.097   0.846  0.1704 -0.1391 -0.3089
 7764TIP3   OH244782   1.207   5.786  10.919  0.2429  0.6100  0.2986
 7764TIP3    H144783   1.191   5.782  10.825  1.6152  0.7993  0.0435
 7764TIP3    H244784   1.206   5.880  10.939 -0.3493  0.5564  0.5309
 7765TIP3   OH244785   0.094   1.935  12.370  0.2909  0.1151  0.7705
 7765TIP3    H144786   0.174   1.888  12.396 -0.3348 -2.4816 -1.4910
 7765TIP3    H244787   0.123   2.000  12.306  0.6678 -0.5828  0.2199
 7766TIP3   OH244788   3.316   6.427  14.367  0.4845 -0.2009  0.4622
 7766TIP3    H144789   3.368   6.500  14.334  1.5304 -0.5918  1.1943
 7766TIP3    H244790   3.360   6.349  14.333  0.0102 -0.5286  0.5819
 7767TIP3   OH244791   5.246   4.855   1.487 -0.1146 -0.7041 -0.4161
 7767TIP3    H144792   5.178   4.832   1.551  0.6099 -1.1073  0.2321
 7767TIP3    H244793   5.232   4.948   1.469 -0.1730 -0.5133  0.5489
 7768TIP3   OH244794   2.289   0.777   5.191 -0.3928 -0.2775 -0.0893
 7768TIP3    H144795   2.333   0.853   5.153 -1.4121  0.1973 -0.3466
 7768TIP3    H244796   2.201   0.780   5.155 -0.5662 -1.3679  0.2085
 7769TIP3   OH244797   4.743   1.884   0.460 -0.4855  1.0769  0.5972
 7769TIP3    H144798   4.736   1.979   0.459 -0.0473  1.1100  0.4223
 7769TIP3    H244799   4.816   1.865   0.400 -1.6549  0.5439 -0.7154
 7770TIP3   OH244800   5.231   2.311  11.992  0.4355  0.2930 -0.2773
 7770TIP3    H144801   5.253   2.367  11.918  0.0092 -0.0464 -0.6641
 7770TIP3    H244802   5.310   2.258  12.006  0.6839  0.6863 -0.1880
 7771TIP3   OH244803   5.824   4.524   2.297 -0.1810 -0.5726 -0.4049
 7771TIP3    H144804   5.857   4.596   2.243 -1.4931  0.3531 -0.0441
 7771TIP3    H244805   5.809   4.452   2.235 -3.6849  1.1202 -1.8298
 7772TIP3   OH244806   3.737   0.025   1.595 -0.5841  0.9501  0.2204
 7772TIP3    H144807   3.744   0.094   1.528 -0.3664 -0.1833 -0.9558
 7772TIP3    H244808   3.712   0.072   1.674  0.1212  2.4669 -0.4061
 7773TIP3   OH244809   6.628   0.517   4.247  0.2711  0.0910  0.3023
 7773TIP3    H144810   6.641   0.460   4.171 -1.3372  1.7439 -1.3060
 7773TIP3    H244811   6.564   0.470   4.301  0.3746 -0.4636 -0.0461
 7774TIP3   OH244812   1.252   3.630  13.787  0.2028  0.3613  0.3318
 7774TIP3    H144813   1.308   3.556  13.764 -0.2202 -0.7244  2.5019
 7774TIP3    H244814   1.227   3.669  13.703  1.4185 -1.1968 -0.8192
 7775TIP3   OH244815   4.703   0.270   2.673  0.3218  0.6496  0.1099
 7775TIP3    H144816   4.655   0.216   2.736  0.2283  0.4316 -0.1453
 7775TIP3    H244817   4.643   0.279   2.598  0.3550  1.0670  0.1312
 7776TIP3   OH244818   5.929   3.719   4.607  0.2289 -0.5520  0.3095
 7776TIP3    H144819   5.850   3.665   4.602  0.0621 -0.2243 -0.7095
 7776TIP3    H244820   5.953   3.716   4.700 -0.4353 -1.4246  0.4715
 7777TIP3   OH244821   2.226   4.735   0.195 -0.3367 -0.5423  0.3047
 7777TIP3    H144822   2.169   4.812   0.189  0.3037 -0.0039  0.8891
 7777TIP3    H244823   2.189   4.673   0.133  0.3298  1.0354 -1.8244
 7778TIP3   OH244824   5.183   3.218   3.622  0.3716  0.2837  0.3679
 7778TIP3    H144825   5.165   3.129   3.593  2.3068 -0.1630  0.4268
 7778TIP3    H244826   5.107   3.242   3.675 -0.2553 -1.2437  0.2047
 7779TIP3   OH244827   5.950   1.619  16.314 -0.0412  0.2018  0.3494
 7779TIP3    H144828   5.930   1.708  16.344  0.9344  0.6397 -0.2646
 7779TIP3    H244829   6.044   1.611  16.325  0.2603  0.1348 -1.8910
 7780TIP3   OH244830   5.661   3.871  11.256  1.2203 -0.1030 -0.2857
 7780TIP3    H144831   5.669   3.842  11.347 -0.3398 -0.1250 -0.1353
 7780TIP3    H244832   5.693   3.797  11.205 -1.5901 -1.7482  0.1371
 7781TIP3   OH244833   2.656   4.695  14.495 -0.4304  0.6007 -0.2283
 7781TIP3    H144834   2.621   4.624  14.550  1.3910 -0.7059 -0.6749
 7781TIP3    H244835   2.600   4.695  14.418 -1.0138  0.2757  0.1841
 7782TIP3   OH244836   6.807   2.213   1.591  0.2321  0.4142 -0.5835
 7782TIP3    H144837   6.816   2.280   1.658  0.5772  1.9083 -2.0363
 7782TIP3    H244838   6.891   2.213   1.545  0.1490 -0.8612 -0.7608
 7783TIP3   OH244839   0.973   6.494   2.033  0.2839 -0.4234  0.1343
 7783TIP3    H144840   0.999   6.443   2.109  0.9560 -1.9676 -1.0732
 7783TIP3    H244841   0.877   6.491   2.034  0.2989 -2.1447 -0.1316
 7784TIP3   OH244842   0.966   3.462  13.546 -0.1672  0.4027 -0.1637
 7784TIP3    H144843   0.974   3.557  13.537 -2.4939  0.5819 -0.8988
 7784TIP3    H244844   0.997   3.426  13.463  2.1063  0.3379  0.6223
 7785TIP3   OH244845   1.456   3.228  11.502 -0.0666 -0.1004  0.0745
 7785TIP3    H144846   1.534   3.257  11.456  1.7042 -1.5539  1.9709
 7785TIP3    H244847   1.403   3.307  11.512  1.1316  0.9242 -1.2617
 7786TIP3   OH244848   2.555   5.476  10.917  0.0528  0.0011  0.0883
 7786TIP3    H144849   2.533   5.563  10.884 -2.2267  0.7006  3.0492
 7786TIP3    H244850   2.588   5.429  10.840  1.0282  3.2902 -1.7094
 7787TIP3   OH244851   5.150   3.846  15.908 -0.1801  0.3408  0.5910
 7787TIP3    H144852   5.213   3.840  15.836  0.5073  0.1672  1.1951
 7787TIP3    H244853   5.079   3.900  15.873  0.4501  0.8126  0.0052
 7788TIP3   OH244854   2.924   6.803   5.879  0.5370 -0.1291  0.3143
 7788TIP3    H144855   2.995   6.867   5.886 -0.4373  0.9687  0.3828
 7788TIP3    H244856   2.895   6.790   5.970 -1.5994  2.0656  0.0376
 7789TIP3   OH244857   5.098   2.145   0.945 -0.0069  0.1135  0.4715
 7789TIP3    H144858   5.020   2.127   0.892  0.3361 -2.6543  0.7462
 7789TIP3    H244859   5.169   2.106   0.895  1.1353  1.9258  0.6043
 7790TIP3   OH244860   6.621   6.081  13.046 -0.3565 -0.6112 -0.2080
 7790TIP3    H144861   6.685   6.045  13.107 -0.0827  1.5733  0.8728
 7790TIP3    H244862   6.670   6.092  12.964  0.6979  0.9156  0.5704
 7791TIP3   OH244863   0.467   0.613  12.738 -0.3454 -0.3421  0.2262
 7791TIP3    H144864   0.530   0.685  12.735 -0.2383 -0.4232  0.4967
 7791TIP3    H244865   0.469   0.575  12.651  0.1469 -0.4847  0.3003
 7792TIP3   OH244866   2.646   5.715   1.688  0.2679  0.1441  0.1053
 7792TIP3    H144867   2.682   5.668   1.764 -0.2607 -0.7279 -0.1670
 7792TIP3    H244868   2.670   5.807   1.703  0.4019 -0.0541  1.1888
 7793TIP3   OH244869   2.340   5.275  14.929 -0.0343 -0.6054  0.2120
 7793TIP3    H144870   2.365   5.354  14.978 -0.2892 -0.1999 -0.2983
 7793TIP3    H244871   2.244   5.278  14.926  0.0046 -0.2305 -0.9360
 7794TIP3   OH244872   2.629   6.465  14.986  0.0769  0.0505 -0.3741
 7794TIP3    H144873   2.677   6.412  15.050  0.0051  0.0573 -0.3147
 7794TIP3    H244874   2.665   6.438  14.901 -0.5882 -0.7537 -0.4125
 7795TIP3   OH244875   4.258   6.259  13.193  0.2746 -0.3829  0.4825
 7795TIP3    H144876   4.274   6.227  13.104  1.2010  1.1189  0.0519
 7795TIP3    H244877   4.181   6.316  13.184  0.6501  0.1416  0.5220
 7796TIP3   OH244878   1.118   6.451   0.999  0.1352  0.3278  0.4288
 7796TIP3    H144879   1.146   6.543   1.003 -1.4565  0.9353 -1.3033
 7796TIP3    H244880   1.023   6.454   1.002  0.0493 -1.2827  0.2919
 7797TIP3   OH244881   3.594   0.010  15.610  0.1612 -0.0373 -0.5183
 7797TIP3    H144882   3.524  -0.055  15.607 -0.7345  0.9166 -1.8877
 7797TIP3    H244883   3.670  -0.034  15.572 -0.9193  0.1916 -3.1324
 7798TIP3   OH244884   0.897   0.208   0.120  0.4796 -0.3767  0.2905
 7798TIP3    H144885   0.878   0.199   0.027 -0.1216 -0.1298  0.3823
 7798TIP3    H244886   0.982   0.165   0.132 -0.1436 -1.7624 -0.0959
 7799TIP3   OH244887   2.624   5.120   1.560 -0.3201  0.2490  0.2633
 7799TIP3    H144888   2.671   5.197   1.526  1.5400 -0.1633  1.7314
 7799TIP3    H244889   2.532   5.141   1.546  0.2307  1.0987 -2.7924
 7800TIP3   OH244890   0.694   2.644   6.045  0.2990 -0.0361  0.5459
 7800TIP3    H144891   0.774   2.677   6.086 -0.6002  2.7644  0.2217
 7800TIP3    H244892   0.628   2.651   6.113 -0.0660 -0.6343  0.2626
 7801TIP3   OH244893   1.915   1.649   4.327  0.4633 -0.0403 -0.2137
 7801TIP3    H144894   1.894   1.558   4.307 -1.0098  0.3768 -0.7080
 7801TIP3    H244895   1.836   1.685   4.367  1.5030  0.6654  1.3270
 7802TIP3   OH244896   2.667   0.850  11.024  0.4162  0.0120 -0.1932
 7802TIP3    H144897   2.708   0.824  11.107  1.0910 -0.3659 -0.6311
 7802TIP3    H244898   2.632   0.769  10.988  0.0240  0.1938 -0.2250
 7803TIP3   OH244899   3.863   4.716  11.197  0.0165  0.2423 -0.5924
 7803TIP3    H144900   3.848   4.625  11.225 -0.1739 -0.1440 -1.8692
 7803TIP3    H244901   3.949   4.714  11.154  0.4704  0.8956  0.2570
 7804TIP3   OH244902   3.543   4.285   2.173 -0.7025  0.4790  0.0701
 7804TIP3    H144903   3.501   4.199   2.172  1.6950 -0.8068  1.4040
 7804TIP3    H244904   3.513   4.327   2.092 -2.8487 -1.1148 -0.0521
 7805TIP3   OH244905   4.867   1.504   5.615 -0.2400 -0.5017  0.4292
 7805TIP3    H144906   4.876   1.585   5.665  1.3019 -0.5968  0.3516
 7805TIP3    H244907   4.956   1.478   5.595 -0.7684 -1.1023 -1.3777
 7806TIP3   OH244908   4.624   4.230  12.438 -0.0221  0.6309  0.0651
 7806TIP3    H144909   4.692   4.209  12.502  0.4088  1.2048 -0.2031
 7806TIP3    H244910   4.667   4.223  12.353 -0.8754 -1.2652 -0.2721
 7807TIP3   OH244911   6.119   6.582   4.704  0.0486 -0.8369  0.0376
 7807TIP3    H144912   6.066   6.655   4.734 -0.7041 -1.7547  1.0400
 7807TIP3    H244913   6.193   6.579   4.764  1.4336  0.5753 -1.4887
 7808TIP3   OH244914   2.855   5.052  13.211  0.2860  0.5426  0.1395
 7808TIP3    H144915   2.912   5.001  13.152 -0.4247  0.7277 -0.7307
 7808TIP3    H244916   2.902   5.134  13.225  1.4675 -0.3255  1.5933
 7809TIP3   OH244917   5.574   4.367  13.080  0.2204  0.8018  0.0310
 7809TIP3    H144918   5.522   4.441  13.111 -0.1003  0.3591  0.5774
 7809TIP3    H244919   5.617   4.399  13.001  0.8745  1.8755  0.8009
 7810TIP3   OH244920   0.056   5.312  15.846 -0.1965 -0.1817  0.2204
 7810TIP3    H144921   0.146   5.333  15.821  0.0331  0.5459  1.5937
 7810TIP3    H244922   0.007   5.316  15.764  0.6660  1.3978 -0.2489
 7811TIP3   OH244923   6.249   1.556  15.768 -0.1946 -0.6520 -0.5387
 7811TIP3    H144924   6.262   1.626  15.704 -0.7136 -0.7662 -0.7677
 7811TIP3    H244925   6.270   1.475  15.721  0.1326 -0.6812 -0.3526
 7812TIP3   OH244926   6.706   1.225   6.207  0.2563 -0.4156 -0.0496
 7812TIP3    H144927   6.690   1.138   6.244  0.9999 -1.0335 -1.1247
 7812TIP3    H244928   6.789   1.253   6.246 -0.3788  0.1697  0.9062
 7813TIP3   OH244929   1.963   2.975  12.243 -0.6904 -0.0582 -0.1239
 7813TIP3    H144930   2.050   2.951  12.209 -0.4006  1.2766 -0.4178
 7813TIP3    H244931   1.977   2.988  12.336 -0.4117  0.7653 -0.2706
 7814TIP3   OH244932   5.479   4.304   1.727  0.1193 -0.0874  0.5851
 7814TIP3    H144933   5.466   4.399   1.729 -0.2638 -0.1361  0.4730
 7814TIP3    H244934   5.438   4.276   1.646  0.4190 -0.3233  0.5155
 7815TIP3   OH244935   0.029   2.694  14.154  0.4072  0.0605  0.4632
 7815TIP3    H144936   0.119   2.667  14.133 -0.0833 -0.6866 -0.8082
 7815TIP3    H244937   0.021   2.782  14.118  0.2317 -0.3978 -0.6553
 7816TIP3   OH244938   4.101   6.264  13.444 -0.5119  0.0502 -0.0449
 7816TIP3    H144939   4.169   6.241  13.508 -1.4625 -1.8374  0.3713
 7816TIP3    H244940   4.136   6.339  13.397  1.3287 -0.1138  0.9818
 7817TIP3   OH244941   5.473   5.163  12.556 -0.0253 -0.6205 -0.1884
 7817TIP3    H144942   5.496   5.255  12.542  2.6215 -1.4644 -2.2222
 7817TIP3    H244943   5.378   5.160  12.544 -0.6144  2.1635  2.4637
 7818TIP3   OH244944   4.982   4.958  15.516  0.1942 -0.2601 -0.2094
 7818TIP3    H144945   5.010   5.023  15.452  0.3247  1.0234  1.1086
 7818TIP3    H244946   5.044   4.966  15.588  0.3848 -2.0666 -0.1353
 7819TIP3   OH244947   0.492   3.067   5.451 -0.1702 -0.0057  0.4992
 7819TIP3    H144948   0.569   3.114   5.482  0.3597 -1.9061  2.2622
 7819TIP3    H244949   0.522   3.020   5.373 -0.3709  1.4858 -0.5197
 7820TIP3   OH244950   5.134   5.039   5.495 -0.1023 -0.4376 -0.0126
 7820TIP3    H144951   5.121   5.117   5.549 -0.6879 -1.0273  0.7354
 7820TIP3    H244952   5.072   5.048   5.423  0.9644  0.5495 -0.8264
 7821TIP3   OH244953   5.636   1.610  16.872  0.2423 -0.0392 -0.5864
 7821TIP3    H144954   5.594   1.696  16.869 -2.2135 -1.0062  1.7053
 7821TIP3    H244955   5.698   1.616  16.945 -0.4687 -0.3789  0.0614
 7822TIP3   OH244956   5.694   4.784   5.923 -0.3848  0.0230 -0.1751
 7822TIP3    H144957   5.704   4.696   5.886  0.3112  0.1530 -0.3169
 7822TIP3    H244958   5.606   4.785   5.959 -1.9469  0.5653 -3.6315
 7823TIP3   OH244959   2.049   6.089  16.164  0.9590 -0.1719  0.0913
 7823TIP3    H144960   2.082   6.178  16.153  1.1893 -0.2535  0.1258
 7823TIP3    H244961   2.082   6.041  16.088  0.3214 -0.0767 -0.2523
 7824TIP3   OH244962   6.396   6.466  13.252  0.2997  0.1273  0.3057
 7824TIP3    H144963   6.340   6.506  13.186 -1.9976 -1.0712  1.3878
 7824TIP3    H244964   6.466   6.424  13.202 -1.4017 -0.8048 -1.4202
 7825TIP3   OH244965   2.554   4.819   2.016  0.0086  0.3014 -0.0427
 7825TIP3    H144966   2.586   4.885   2.077  0.4451 -0.5781  0.6935
 7825TIP3    H244967   2.593   4.843   1.932  1.6565 -0.0541  0.5892
 7826TIP3   OH244968   1.088   0.872  16.594  0.2736 -0.4530  0.1780
 7826TIP3    H144969   1.179   0.843  16.588  0.3392 -0.0352 -1.2958
 7826TIP3    H244970   1.093   0.967  16.591 -0.2358 -0.4381 -0.9294
 7827TIP3   OH244971   0.150   0.919   2.988 -0.1959 -0.1834  0.4125
 7827TIP3    H144972   0.090   0.927   2.914  1.0366  0.0975 -0.5891
 7827TIP3    H244973   0.157   0.824   3.002  1.0131 -0.3499 -1.0880
 7828TIP3   OH244974   0.468   5.803   0.761  0.1229  0.0841  0.0440
 7828TIP3    H144975   0.469   5.810   0.856 -1.6330  4.9846  0.0087
 7828TIP3    H244976   0.560   5.805   0.736  0.5756  0.7015  1.6328
 7829TIP3   OH244977   4.157   5.003   5.292  0.3362  0.4337 -0.0774
 7829TIP3    H144978   4.143   5.066   5.362  0.4449  0.7050 -0.2976
 7829TIP3    H244979   4.186   4.923   5.336 -2.5626 -0.4220  0.4908
 7830TIP3   OH244980   4.985   0.704  12.931 -0.3524  0.9510  0.3393
 7830TIP3    H144981   4.996   0.719  12.837  0.3630 -1.2884  0.0014
 7830TIP3    H244982   4.922   0.633  12.936 -0.0776  0.7773  1.5352
 7831TIP3   OH244983   2.331   3.542   0.572 -0.1294 -0.5713  0.8036
 7831TIP3    H144984   2.372   3.487   0.639 -1.6693  1.2028  3.3673
 7831TIP3    H244985   2.398   3.606   0.549  0.0730 -0.5378  1.4658
 7832TIP3   OH244986   2.748   4.456  12.561 -0.5543 -0.1723 -0.1959
 7832TIP3    H144987   2.820   4.497  12.608  0.0264 -0.6154 -0.6843
 7832TIP3    H244988   2.683   4.526  12.551 -0.4287  0.0835  0.7126
 7833TIP3   OH244989   2.562   3.255   6.004 -0.1573 -0.6910  0.2735
 7833TIP3    H144990   2.639   3.260   5.948 -0.3647 -1.4078 -0.0921
 7833TIP3    H244991   2.598   3.243   6.092  0.1894  1.2557  0.4382
 7834TIP3   OH244992   0.719   6.556   0.623 -0.7711 -0.1910  0.0088
 7834TIP3    H144993   0.758   6.576   0.708 -1.0720 -1.2622  0.4088
 7834TIP3    H244994   0.714   6.641   0.579 -0.0978  0.2959  0.8349
 7835TIP3   OH244995   4.801   5.485  17.052 -0.0253  0.1928  0.3453
 7835TIP3    H144996   4.840   5.500  16.965 -1.0050  3.8350  0.3801
 7835TIP3    H244997   4.723   5.540  17.053 -0.9411 -1.0003  3.0224
 7836TIP3   OH244998   2.852   4.683   1.565 -0.6596  0.0978 -0.4945
 7836TIP3    H144999   2.779   4.745   1.567  0.4708  1.6718 -2.9696
 7836TIP3    H245000   2.833   4.625   1.492 -0.9945 -1.6585  0.9127
 7837TIP3   OH245001   3.016   1.256   5.445 -0.5968  0.0850 -0.2691
 7837TIP3    H145002   3.006   1.255   5.541  1.5225  0.9008  0.0198
 7837TIP3    H245003   3.041   1.166   5.423 -0.5458  0.0229  0.0251
 7838TIP3   OH245004   3.687   4.931   3.356 -0.8349  0.0582  0.7033
 7838TIP3    H145005   3.646   4.889   3.281  0.7017  0.3557 -0.3685
 7838TIP3    H245006   3.688   5.024   3.334 -0.7165  0.2013  1.2811
 7839TIP3   OH245007   2.947   2.852  16.581  0.6936 -0.3251 -0.2754
 7839TIP3    H145008   2.961   2.928  16.637  0.6977  0.0787 -0.8068
 7839TIP3    H245009   2.949   2.777  16.640  0.1293  0.1308  0.3374
 7840TIP3   OH245010   5.872   5.550   2.076  0.1634  0.5132  0.2122
 7840TIP3    H145011   5.902   5.576   2.163 -0.1411  0.7823  0.2407
 7840TIP3    H245012   5.870   5.632   2.027 -0.5047  0.5008  0.2071
 7841TIP3   OH245013   5.175   5.081  12.585 -0.5928 -0.5730 -0.8442
 7841TIP3    H145014   5.109   5.120  12.642 -0.0063 -0.9758  0.1459
 7841TIP3    H245015   5.143   4.993  12.566  0.3757 -1.3716  0.9724
 7842TIP3   OH245016   6.718   6.620   0.809  0.0374 -0.7945  0.1720
 7842TIP3    H145017   6.637   6.585   0.770  0.2410  0.3032 -1.3574
 7842TIP3    H245018   6.701   6.714   0.817  1.2962 -0.4876 -0.5414
 7843TIP3   OH245019   2.700   0.438   1.438  0.3427 -0.2165 -0.0450
 7843TIP3    H145020   2.655   0.503   1.383 -0.0645 -1.0671 -0.7264
 7843TIP3    H245021   2.689   0.472   1.527 -0.4407  0.3232 -0.3299
 7844TIP3   OH245022   0.361   4.297  13.991 -0.2155  0.1106 -0.0585
 7844TIP3    H145023   0.438   4.244  13.974  0.1527  0.7282 -0.3620
 7844TIP3    H245024   0.391   4.388  13.978 -1.5094  0.2748 -2.3630
 7845TIP3   OH245025   4.525   0.456  16.237  0.4313 -0.7249 -0.2624
 7845TIP3    H145026   4.464   0.404  16.185 -0.6972  1.4226 -1.2026
 7845TIP3    H245027   4.583   0.496  16.173 -0.5471  1.4240  0.1201
 7846TIP3   OH245028   5.339   1.157   1.430  0.8266 -0.6360  0.7192
 7846TIP3    H145029   5.367   1.095   1.362 -2.3704 -1.2579 -0.1933
 7846TIP3    H245030   5.307   1.101   1.501  1.0249  0.0069  1.3241
 7847TIP3   OH245031   4.538   0.384  11.728  0.4001  0.4759  0.3683
 7847TIP3    H145032   4.474   0.453  11.745 -0.4221 -0.5835  1.9044
 7847TIP3    H245033   4.500   0.335  11.655  0.1781  0.7074  0.3251
 7848TIP3   OH245034   5.117   5.898   3.529  0.3650 -0.6402  0.0402
 7848TIP3    H145035   5.170   5.920   3.452  0.7681 -2.3779 -0.2167
 7848TIP3    H245036   5.106   5.803   3.524 -0.7232 -0.6157  1.4277
 7849TIP3   OH245037   6.011   6.313  16.109 -0.2992  0.1769 -0.7143
 7849TIP3    H145038   6.080   6.286  16.049  0.0472  1.1487 -0.7791
 7849TIP3    H245039   5.957   6.235  16.120  0.9594 -0.6990 -0.4423
 7850TIP3   OH245040   2.685   3.562   1.277 -0.1909  0.0288  0.2523
 7850TIP3    H145041   2.656   3.536   1.364  0.8800 -2.0987  0.0450
 7850TIP3    H245042   2.764   3.614   1.292  1.5992 -2.6184  0.5557
 7851TIP3   OH245043   2.929   1.423  13.515  0.8466 -0.2831  0.9272
 7851TIP3    H145044   2.883   1.423  13.599  2.0114 -0.6202  1.5862
 7851TIP3    H245045   2.873   1.474  13.456 -1.0206 -1.7697  1.3280
 7852TIP3   OH245046   1.718   1.340   2.079  0.3295  0.2096 -0.2976
 7852TIP3    H145047   1.690   1.428   2.055  1.0945  0.4936 -0.1801
 7852TIP3    H245048   1.649   1.308   2.137 -0.2639  0.4881 -0.8494
 7853TIP3   OH245049   1.507   4.883  12.648  0.4816 -0.4095 -0.1268
 7853TIP3    H145050   1.567   4.905  12.577 -0.3136 -0.5493 -0.8419
 7853TIP3    H245051   1.517   4.956  12.710  1.1178 -0.2493 -0.4006
 7854TIP3   OH245052   6.371   5.164  16.119  0.2060 -0.0871 -0.1724
 7854TIP3    H145053   6.385   5.250  16.160 -1.3264 -0.4336  1.2226
 7854TIP3    H245054   6.448   5.113  16.143 -0.2746 -0.0202  1.7004
 7855TIP3   OH245055   3.441   1.280   4.467 -0.0396  0.0034 -0.5748
 7855TIP3    H145056   3.451   1.260   4.560 -0.5594  0.6638 -0.3754
 7855TIP3    H245057   3.364   1.336   4.462 -0.1083 -0.1498 -1.4251
 7856TIP3   OH245058   5.949   4.847   1.265  0.5324 -0.7135 -0.0851
 7856TIP3    H145059   5.950   4.930   1.218 -1.7219 -0.5529  0.0500
 7856TIP3    H245060   5.917   4.783   1.201 -2.8273 -0.4469  1.1189
 7857TIP3   OH245061   5.752   4.854  15.870 -0.4025  0.6995 -0.0550
 7857TIP3    H145062   5.763   4.781  15.932 -0.3661  1.4361  0.8250
 7857TIP3    H245063   5.669   4.835  15.826  0.8190 -1.2103 -1.7092
 7858TIP3   OH245064   4.204   4.896   3.058  0.4082 -0.0934  0.6197
 7858TIP3    H145065   4.255   4.951   2.999  0.0710  1.8070  2.0014
 7858TIP3    H245066   4.115   4.929   3.051  0.6268  1.4612  3.4087
 7859TIP3   OH245067   0.812   1.885   1.231 -0.1951 -0.3641  0.1188
 7859TIP3    H145068   0.742   1.885   1.165 -0.5899 -1.6935  0.4951
 7859TIP3    H245069   0.809   1.797   1.269 -1.1695  0.8526  3.1863
 7860TIP3   OH245070   5.559   3.401  16.640 -0.3637  0.2502 -0.4174
 7860TIP3    H145071   5.648   3.414  16.674  0.2059 -1.0138 -1.3445
 7860TIP3    H245072   5.502   3.431  16.711  0.7947 -0.3121  0.8013
 7861TIP3   OH245073   3.487   2.842  14.762 -0.3102  0.0300 -0.6631
 7861TIP3    H145074   3.521   2.761  14.801  0.0262  0.6106  0.3112
 7861TIP3    H245075   3.538   2.854  14.682  1.0377  0.3018  0.2075
 7862TIP3   OH245076   1.983   3.181   5.448 -0.5576 -0.2775 -0.2623
 7862TIP3    H145077   1.912   3.201   5.387 -1.4111 -2.2721 -0.0322
 7862TIP3    H245078   1.942   3.122   5.512  1.1244 -0.8306  0.3451
 7863TIP3   OH245079   0.956   0.055  16.431 -0.2068  0.2712 -0.0290
 7863TIP3    H145080   0.930   0.127  16.373 -0.5408 -0.1368 -0.3933
 7863TIP3    H245081   0.888   0.053  16.498  0.6654  1.3374  0.9218
 7864TIP3   OH245082   6.271   4.580   1.467  0.3614  0.4156 -0.3613
 7864TIP3    H145083   6.245   4.549   1.380 -0.9952 -0.2828  0.2545
 7864TIP3    H245084   6.216   4.656   1.482  1.2022  1.0517 -0.4400
 7865TIP3   OH245085   3.222   4.207   5.901 -0.1947 -0.0629  0.7481
 7865TIP3    H145086   3.135   4.243   5.917 -0.4728 -0.5836  0.4374
 7865TIP3    H245087   3.207   4.114   5.884  0.2630  0.1090 -0.7489
 7866TIP3   OH245088   4.231   6.437   3.263  0.1153  0.5787 -0.1024
 7866TIP3    H145089   4.290   6.370   3.298 -0.7113 -0.2440 -0.2377
 7866TIP3    H245090   4.289   6.507   3.234  0.8874  0.9923  2.2252
 7867TIP3   OH245091   3.789   5.875   4.377 -0.2793 -0.4627  0.2579
 7867TIP3    H145092   3.711   5.920   4.345 -0.4992 -0.9914  0.0425
 7867TIP3    H245093   3.761   5.835   4.459  0.3298  1.0371  1.2377
 7868TIP3   OH245094   3.293   5.360   2.434  0.1176 -0.0617 -0.6654
 7868TIP3    H145095   3.296   5.361   2.529  3.1566  1.7428 -0.6424
 7868TIP3    H245096   3.288   5.452   2.409  0.8306 -0.4106 -2.2150
 7869TIP3   OH245097   0.388   3.689  15.414  0.0078 -0.2221  0.7457
 7869TIP3    H145098   0.303   3.722  15.444 -0.1874 -0.3880  0.3840
 7869TIP3    H245099   0.372   3.662  15.323  1.0490  2.1918 -0.2621
 7870TIP3   OH245100   2.662   3.600   5.670  0.8224  0.2497  0.2616
 7870TIP3    H145101   2.696   3.586   5.582 -1.1615  0.7120 -0.6166
 7870TIP3    H245102   2.671   3.514   5.713 -0.3484 -0.6362 -1.1844
 7871TIP3   OH245103   1.059   2.253   0.214  0.0240  0.7172 -0.6910
 7871TIP3    H145104   1.020   2.314   0.277  0.2022 -0.5451  0.7038
 7871TIP3    H245105   1.008   2.265   0.134 -1.5704  0.9245  0.3107
 7872TIP3   OH245106   4.505   2.117   5.810 -0.8613  0.0903  0.3510
 7872TIP3    H145107   4.466   2.096   5.724  0.1523  0.6073 -0.2503
 7872TIP3    H245108   4.518   2.211   5.808 -1.3532  0.1864  1.3142
 7873TIP3   OH245109   2.336   4.260  12.273  0.1072  0.4087 -0.3398
 7873TIP3    H145110   2.413   4.280  12.326 -0.0657  1.8446 -0.6017
 7873TIP3    H245111   2.263   4.298  12.321 -0.5779 -1.5298  0.2617
 7874TIP3   OH245112   3.425   1.374   5.265  0.1237 -0.2263  0.0987
 7874TIP3    H145113   3.512   1.369   5.227  0.2543  0.9300  0.2143
 7874TIP3    H245114   3.366   1.371   5.190  0.2473 -1.1175  0.0282
 7875TIP3   OH245115   1.297   6.230  16.673  0.2079 -0.2177  0.1218
 7875TIP3    H145116   1.300   6.136  16.688 -0.4974 -0.1875  0.5204
 7875TIP3    H245117   1.234   6.241  16.602  0.0533 -0.0286  0.2864
 7876TIP3   OH245118   4.974   3.748   4.180  0.1607  0.1884  0.1893
 7876TIP3    H145119   5.045   3.764   4.118  0.8150 -0.9205  0.6142
 7876TIP3    H245120   4.895   3.749   4.127  0.5641  0.7084 -0.4177
 7877TIP3   OH245121   1.845   5.643   2.247  0.0295 -0.1447  0.2474
 7877TIP3    H145122   1.832   5.715   2.185 -0.6435  0.0224  0.5702
 7877TIP3    H245123   1.923   5.667   2.296 -0.0781  0.2737  0.2177
 7878TIP3   OH245124   3.112   5.353  14.464 -0.3539  0.0003  0.1591
 7878TIP3    H145125   3.054   5.283  14.493  0.1679 -0.4494  0.1351
 7878TIP3    H245126   3.119   5.411  14.540  0.2279 -0.6527  0.6205
 7879TIP3   OH245127   1.865   1.158   5.470 -0.8477 -0.9356  0.3184
 7879TIP3    H145128   1.891   1.112   5.550 -0.9100 -1.5977 -0.0404
 7879TIP3    H245129   1.770   1.169   5.478 -0.4177  2.8324  2.3516
 7880TIP3   OH245130   0.823   4.538   6.116 -0.3063  0.1244  0.0962
 7880TIP3    H145131   0.797   4.557   6.206 -3.0141  0.6674 -0.6913
 7880TIP3    H245132   0.750   4.570   6.063  1.1808 -0.2059 -2.3101
 7881TIP3   OH245133   3.824   5.478   1.679  0.2503  0.3195 -0.1758
 7881TIP3    H145134   3.792   5.565   1.659  0.7661  0.3401 -0.9342
 7881TIP3    H245135   3.774   5.419   1.623 -1.3079 -0.0765  1.5333
 7882TIP3   OH245136   1.087   2.793   2.272 -0.3984  1.0284 -0.0014
 7882TIP3    H145137   1.150   2.775   2.202 -1.5325  0.5669 -0.9320
 7882TIP3    H245138   1.136   2.846   2.335  1.0919  0.2089 -0.4105
 7883TIP3   OH245139   0.447   1.075   0.182  0.0099 -0.4955  0.2805
 7883TIP3    H145140   0.518   1.103   0.124  0.9116 -0.6859  1.2786
 7883TIP3    H245141   0.470   0.985   0.206 -1.0901 -0.9181 -0.1608
 7884TIP3   OH245142   2.160   2.359   0.272  0.0220  0.3741 -0.3438
 7884TIP3    H145143   2.241   2.355   0.221 -0.9007 -2.1250 -1.8049
 7884TIP3    H245144   2.190   2.365   0.363  1.8018  0.9981 -0.9303
 7885TIP3   OH245145   3.219   5.144  11.620 -0.0574 -0.8643  0.4517
 7885TIP3    H145146   3.146   5.086  11.598  0.0525 -0.0342 -2.4909
 7885TIP3    H245147   3.220   5.209  11.550  2.2678  0.3773  1.5258
 7886TIP3   OH245148   1.258   1.916  16.923  0.0664  0.0875 -0.9995
 7886TIP3    H145149   1.193   1.868  16.871 -0.2655  0.2798 -0.7626
 7886TIP3    H245150   1.319   1.849  16.952 -1.2014 -0.4492  0.5565
 7887TIP3   OH245151   4.524   2.799   2.148 -0.2953 -0.3178  1.2420
 7887TIP3    H145152   4.547   2.889   2.173  0.3155 -0.5682  1.6197
 7887TIP3    H245153   4.589   2.745   2.194  1.3245 -0.7804 -1.4020
 7888TIP3   OH245154   3.259   5.680   3.802  0.0673 -0.1982  0.4448
 7888TIP3    H145155   3.225   5.770   3.799 -0.4517 -0.3892  0.6471
 7888TIP3    H245156   3.330   5.684   3.866  0.6724  0.2784 -0.2388
 7889TIP3   OH245157   0.719   1.879   4.601  0.2762 -0.2413  0.5571
 7889TIP3    H145158   0.688   1.791   4.579  3.8947 -1.6710  0.4280
 7889TIP3    H245159   0.749   1.915   4.518 -0.8556  1.0419  0.6702
 7890TIP3   OH245160   0.277   4.455  12.577 -0.2324 -0.0415  0.4331
 7890TIP3    H145161   0.370   4.467  12.595 -0.4612  0.5997  1.2663
 7890TIP3    H245162   0.268   4.361  12.562  0.8081  0.0958 -1.3690
 7891TIP3   OH245163   4.419   3.160  11.467  0.4653 -0.2298 -0.7115
 7891TIP3    H145164   4.483   3.094  11.439  1.7906 -0.0414  1.6763
 7891TIP3    H245165   4.338   3.111  11.476  0.7362 -0.9141 -1.7359
 7892TIP3   OH245166   0.160   2.640   2.225 -0.0767 -0.1698 -0.3654
 7892TIP3    H145167   0.252   2.664   2.235 -0.2443 -0.0786  1.2815
 7892TIP3    H245168   0.112   2.722   2.234 -0.3975 -0.4390  0.4550
 7893TIP3   OH245169   4.971   6.580   5.355 -0.0241 -0.0592  0.3526
 7893TIP3    H145170   4.960   6.574   5.450  0.7542  1.6736  0.5889
 7893TIP3    H245171   4.884   6.604   5.323 -0.1349 -0.0037  0.6876
 7894TIP3   OH245172   4.761   6.660   5.074 -0.2877  0.4044 -0.1182
 7894TIP3    H145173   4.852   6.688   5.079  0.3344 -1.5840  0.9534
 7894TIP3    H245174   4.712   6.740   5.059  1.5374  1.6943  0.4309
 7895TIP3   OH245175   4.923   3.837  11.393 -0.8910 -0.0754 -0.1638
 7895TIP3    H145176   5.005   3.873  11.427 -0.8693  0.6476 -0.9542
 7895TIP3    H245177   4.883   3.910  11.344 -0.7278 -1.1838 -2.0277
 7896TIP3   OH245178   2.266   5.719  12.578  0.0434  0.0685 -0.1635
 7896TIP3    H145179   2.206   5.686  12.512 -0.0057  1.1021 -0.6642
 7896TIP3    H245180   2.267   5.652  12.646 -0.4180 -0.7012 -0.9067
 7897TIP3   OH245181   5.648   3.157  12.092 -0.4521  0.0364 -0.3793
 7897TIP3    H145182   5.629   3.165  12.185 -0.0463 -0.2954 -0.2654
 7897TIP3    H245183   5.599   3.229  12.051 -1.6699 -0.5909 -0.0623
 7898TIP3   OH245184   0.807   1.351   0.507  0.7926  0.3320 -0.1276
 7898TIP3    H145185   0.772   1.400   0.582 -4.9937 -1.3767 -1.2209
 7898TIP3    H245186   0.824   1.263   0.541 -2.0905 -0.5205 -0.6252
 7899TIP3   OH245187   4.513   4.737   0.324  0.1597  0.1146 -0.1000
 7899TIP3    H145188   4.478   4.719   0.411  0.0008  1.5876  0.1623
 7899TIP3    H245189   4.438   4.729   0.266  0.4087 -1.6184 -0.2441
 7900TIP3   OH245190   5.971   3.397   2.121  0.2370 -0.3864  0.4838
 7900TIP3    H145191   5.881   3.374   2.145  0.3142 -0.3562  0.8079
 7900TIP3    H245192   6.023   3.373   2.198  0.8959 -2.8659 -0.6136
 7901TIP3   OH245193   5.316   2.385   2.862 -0.6901 -0.5025  0.3168
 7901TIP3    H145194   5.232   2.423   2.835  0.0739  0.3062 -0.9950
 7901TIP3    H245195   5.375   2.460   2.871  0.5941 -1.2596 -1.3860
 7902TIP3   OH245196   4.410   2.770  14.552 -0.6444 -0.7022  0.2798
 7902TIP3    H145197   4.442   2.838  14.493 -0.4631 -1.3236 -0.3629
 7902TIP3    H245198   4.334   2.733  14.507 -0.7017 -0.9624  0.5832
 7903TIP3   OH245199   4.424   1.400  12.956 -0.5928  1.0581  0.2696
 7903TIP3    H145200   4.438   1.315  12.915 -0.5280  1.7835 -1.2755
 7903TIP3    H245201   4.513   1.437  12.965 -0.5858  0.8231  1.2838
 7904TIP3   OH245202   2.575   6.040   1.863 -0.7564 -0.0613  0.1170
 7904TIP3    H145203   2.639   6.110   1.849 -0.3699 -0.8958 -3.3832
 7904TIP3    H245204   2.626   5.967   1.897  0.4144 -0.7812 -2.8104
 7905TIP3   OH245205   3.689   5.654   4.157  0.9568 -0.4431  0.0998
 7905TIP3    H145206   3.769   5.707   4.146 -0.1350  1.9365  2.4435
 7905TIP3    H245207   3.675   5.653   4.251 -1.6473 -1.0157 -0.2426
 7906TIP3   OH245208   6.764   3.355  11.405  0.4367 -0.5386 -0.6021
 7906TIP3    H145209   6.802   3.380  11.321  1.3729  0.8271  0.2002
 7906TIP3    H245210   6.696   3.420  11.422 -0.4679 -1.4026 -0.7481
 7907TIP3   OH245211   0.220   4.147  15.480  0.1496 -0.5215  0.3103
 7907TIP3    H145212   0.220   4.215  15.548  0.1866  0.3110 -0.4915
 7907TIP3    H245213   0.160   4.080  15.513 -1.1066  0.6275  0.4507
 7908TIP3   OH245214   4.421   2.503  15.989  0.2828 -0.7706  0.1515
 7908TIP3    H145215   4.334   2.492  15.950 -0.0593  0.3872  0.5304
 7908TIP3    H245216   4.403   2.545  16.073  1.2755  0.2421 -0.1333
 7909TIP3   OH245217   3.264   6.634  16.183  0.2939 -0.2316 -0.0220
 7909TIP3    H145218   3.353   6.602  16.199 -0.0107 -0.4840  1.2650
 7909TIP3    H245219   3.267   6.669  16.094  1.2182 -1.8733 -0.6839
 7910TIP3   OH245220   6.767   5.824   2.889 -0.0779 -0.2799  0.0194
 7910TIP3    H145221   6.861   5.806   2.897 -0.2277 -1.0700  0.0958
 7910TIP3    H245222   6.762   5.914   2.855  0.7100 -0.3909 -0.4097
 7911TIP3   OH245223   4.741   3.984  15.524  0.2647 -0.5943 -0.1221
 7911TIP3    H145224   4.784   4.061  15.486 -0.1067 -1.0602 -1.5617
 7911TIP3    H245225   4.664   4.019  15.568 -2.0361 -0.3452 -3.9207
 7912TIP3   OH245226   2.322   1.988   4.020  0.5014 -0.4398 -0.2820
 7912TIP3    H145227   2.292   2.049   4.087  2.8993 -1.8676  2.3427
 7912TIP3    H245228   2.374   2.041   3.960  0.3324  0.5020  0.3831
 7913TIP3   OH245229   3.393   4.816  15.091  0.5110  0.2563  0.4538
 7913TIP3    H145230   3.381   4.881  15.160 -0.4647 -0.1405  0.6737
 7913TIP3    H245231   3.460   4.757  15.126 -0.0083  0.0315  1.0935
 7914TIP3   OH245232   1.124   2.174  14.951 -0.3925 -0.1684 -0.0161
 7914TIP3    H145233   1.210   2.132  14.951 -0.2323  0.1543 -0.2099
 7914TIP3    H245234   1.120   2.220  15.035 -0.0394  0.4872 -0.3513
 7915TIP3   OH245235   3.133   4.740  11.635  0.4625  0.2732 -0.0397
 7915TIP3    H145236   3.219   4.721  11.598  1.4672  0.7574  1.9111
 7915TIP3    H245237   3.080   4.665  11.611  0.7964  0.8957 -3.0280
 7916TIP3   OH245238   0.440   5.634  13.976 -0.1418 -0.2706  0.1715
 7916TIP3    H145239   0.367   5.677  14.022 -1.0959 -2.1740  0.5791
 7916TIP3    H245240   0.487   5.705  13.933 -0.3752  1.3901  2.4889
 7917TIP3   OH245241   4.852   0.468  10.944  0.0664 -0.2027 -0.1296
 7917TIP3    H145242   4.791   0.518  10.998  0.4594 -0.3257  0.4372
 7917TIP3    H245243   4.937   0.483  10.984  0.0771 -2.1507  0.6981
 7918TIP3   OH245244   3.036   0.730   1.076  0.0846  0.5940 -0.0070
 7918TIP3    H145245   3.054   0.824   1.077 -0.7027  0.7506  0.8166
 7918TIP3    H245246   2.968   0.718   1.143  1.7986 -0.8858  1.5491
 7919TIP3   OH245247   5.993   4.396   1.721  0.1366  0.3430 -0.0054
 7919TIP3    H145248   5.913   4.433   1.684  0.7486  1.8408  0.0907
 7919TIP3    H245249   6.027   4.340   1.651 -1.0428 -0.4314  0.0086
 7920TIP3   OH245250   4.588   3.864  13.530  0.2913  0.2150  0.0616
 7920TIP3    H145251   4.524   3.793  13.531 -0.9247  1.1923 -1.5816
 7920TIP3    H245252   4.669   3.825  13.562 -0.9333 -1.2707  1.4885
 7921TIP3   OH245253   5.160   6.329   3.798  0.1128 -0.0658  0.0163
 7921TIP3    H145254   5.150   6.421   3.822 -1.0120 -0.2815  0.4722
 7921TIP3    H245255   5.233   6.328   3.736  1.4151  0.8554  1.4640
 7922TIP3   OH245256   1.827   6.679  11.984  0.2245  0.0983  0.3919
 7922TIP3    H145257   1.756   6.725  12.028 -0.6474 -0.6323 -0.2213
 7922TIP3    H245258   1.865   6.623  12.052  0.5206  0.8189  0.8342
 7923TIP3   OH245259   3.087   4.632  14.385 -0.1510 -0.6786 -0.1592
 7923TIP3    H145260   3.174   4.673  14.386 -0.0420 -0.8901 -0.5574
 7923TIP3    H245261   3.094   4.561  14.448  0.5234 -1.7853 -1.4133
 7924TIP3   OH245262   5.948   3.041   3.819 -0.4183  0.0820 -0.1850
 7924TIP3    H145263   5.981   2.972   3.878 -1.5634 -0.8392 -0.5698
 7924TIP3    H245264   5.856   3.051   3.844 -0.5674  0.6247 -0.9263
 7925TIP3   OH245265   5.765   6.828   3.242  0.5186  0.1641 -0.3349
 7925TIP3    H145266   5.780   6.752   3.186  0.1961 -0.3728  0.2918
 7925TIP3    H245267   5.853   6.861   3.262  0.6745 -0.2246 -0.3737
 7926TIP3   OH245268   1.980   0.466   4.250  0.3297 -0.3163  0.5816
 7926TIP3    H145269   1.966   0.402   4.320 -1.1487  0.9617  1.5248
 7926TIP3    H245270   1.898   0.467   4.202  1.6832 -1.9994 -1.9961
 7927TIP3   OH245271   0.732   1.918   1.525  0.7381 -0.4244 -0.7166
 7927TIP3    H145272   0.764   1.831   1.501 -0.9552 -1.6105  1.0397
 7927TIP3    H245273   0.794   1.951   1.589  0.3618 -1.2073  0.0678
 7928TIP3   OH245274   4.769   6.619  13.100 -0.0835 -0.1251 -0.6452
 7928TIP3    H145275   4.787   6.544  13.157 -0.9199 -0.4888 -0.8533
 7928TIP3    H245276   4.734   6.580  13.020  0.9279  0.3879 -1.3633
 7929TIP3   OH245277   0.478   3.072   0.246  0.3417 -0.0670  0.4405
 7929TIP3    H145278   0.527   3.049   0.325 -2.6077 -1.5739  2.0006
 7929TIP3    H245279   0.415   3.138   0.275 -0.8245 -0.6617 -0.6145
 7930TIP3   OH245280   0.974   4.926   2.027 -0.4219 -0.5055 -0.5409
 7930TIP3    H145281   1.049   4.893   2.076 -1.0196 -1.0018  0.0539
 7930TIP3    H245282   0.903   4.927   2.091 -0.9553 -0.1612 -1.1329
 7931TIP3   OH245283   4.001   4.142  12.680 -0.1568 -0.0873  0.4033
 7931TIP3    H145284   4.049   4.221  12.655  0.0131 -0.5048 -0.6513
 7931TIP3    H245285   3.922   4.144  12.626 -0.8129  0.0313  1.3364
 7932TIP3   OH245286   6.424   3.500  14.421  0.3433 -0.4106 -0.3230
 7932TIP3    H145287   6.438   3.431  14.356  1.1474 -0.8664  0.3066
 7932TIP3    H245288   6.374   3.567  14.375  0.1760 -1.0919 -1.1613
 7933TIP3   OH245289   6.055   1.408   4.660  0.0282 -0.1705 -0.1550
 7933TIP3    H145290   6.054   1.383   4.753  0.1099  0.4441  0.0139
 7933TIP3    H245291   6.073   1.502   4.660 -1.7043  0.2089 -0.7067
 7934TIP3   OH245292   2.085   4.506  14.754  0.0152 -0.0236 -0.5463
 7934TIP3    H145293   2.064   4.578  14.695  0.6155 -0.0532 -0.7964
 7934TIP3    H245294   2.109   4.549  14.836  0.3889  0.0625 -0.6995
 7935TIP3   OH245295   5.471   5.629   3.162  0.2030 -0.0868 -0.3391
 7935TIP3    H145296   5.524   5.638   3.083 -0.6221 -0.8485 -0.9986
 7935TIP3    H245297   5.519   5.567   3.216  0.3651 -0.1919 -0.5998
 7936TIP3   OH245298   3.739   2.347  15.796  0.1248 -0.0387 -0.4008
 7936TIP3    H145299   3.716   2.402  15.871  0.7223  0.4588 -0.5805
 7936TIP3    H245300   3.817   2.388  15.759  1.6445 -1.9863  0.4932
 7937TIP3   OH245301   1.292   6.212   2.963  0.2091  0.0795  0.0927
 7937TIP3    H145302   1.381   6.223   2.998  0.4260  0.6766 -0.6336
 7937TIP3    H245303   1.269   6.298   2.928 -0.7254 -0.0326  0.4156
 7938TIP3   OH245304   5.357   3.777   2.120 -0.1476 -0.3322  0.5712
 7938TIP3    H145305   5.264   3.774   2.144 -0.0475 -0.5951  0.9333
 7938TIP3    H245306   5.361   3.733   2.035 -0.4666  0.3643  0.1900
 7939TIP3   OH245307   5.315   2.082   2.671  0.2251 -0.4451  0.0984
 7939TIP3    H145308   5.387   2.127   2.715 -0.7124  0.6503  0.5640
 7939TIP3    H245309   5.315   2.117   2.582  0.4230 -0.6389  0.0210
 7940TIP3   OH245310   1.799   3.659   0.339 -0.0729  0.1417 -0.7251
 7940TIP3    H145311   1.750   3.580   0.364 -0.1119  0.2755 -0.3737
 7940TIP3    H245312   1.879   3.625   0.300  0.7675 -0.1019  1.1006
 7941TIP3   OH245313   1.037   3.488   4.240  0.7093  0.1087 -0.6998
 7941TIP3    H145314   1.015   3.509   4.149 -0.1349 -1.5757 -0.9217
 7941TIP3    H245315   1.071   3.399   4.237 -0.8527 -0.5991  0.8161
 7942TIP3   OH245316   6.173   5.608  11.832  1.1335 -0.4694 -0.1383
 7942TIP3    H145317   6.169   5.524  11.786 -2.6564 -0.0780 -0.8692
 7942TIP3    H245318   6.125   5.593  11.913  2.0952  0.5289  0.6458
 7943TIP3   OH245319   3.138   5.159   2.915 -0.2189 -0.8503 -0.2838
 7943TIP3    H145320   3.140   5.240   2.864 -0.7394 -1.6278 -1.5824
 7943TIP3    H245321   3.222   5.158   2.962 -0.7256  1.0540  0.7909
 7944TIP3   OH245322   0.818   6.245  12.249  0.3461 -0.7972  0.4821
 7944TIP3    H145323   0.810   6.284  12.336 -0.6313 -1.8910  0.9063
 7944TIP3    H245324   0.900   6.197  12.251  1.3594  0.8505  0.0916
 7945TIP3   OH245325   2.475   4.682   5.238  0.3567  0.6017  0.4265
 7945TIP3    H145326   2.431   4.738   5.174  2.1652  0.3482 -1.1106
 7945TIP3    H245327   2.492   4.741   5.312  0.3264  1.5413 -0.2843
 7946TIP3   OH245328   6.303   1.147   1.864 -0.0096  0.3062  0.0893
 7946TIP3    H145329   6.223   1.097   1.883  0.7320 -0.9281  0.0753
 7946TIP3    H245330   6.285   1.235   1.900 -0.5012 -0.5887  2.2260
 7947TIP3   OH245331   5.261   0.600   3.882 -0.0183  0.1497  0.2577
 7947TIP3    H145332   5.262   0.616   3.788  1.4639 -0.6858  0.1028
 7947TIP3    H245333   5.188   0.539   3.895 -1.3441  1.6003 -0.0697
 7948TIP3   OH245334   2.003   1.856   5.395 -0.6339  0.3405  0.0023
 7948TIP3    H145335   1.914   1.830   5.371 -0.9902 -1.0856  2.4949
 7948TIP3    H245336   2.049   1.773   5.410  1.2191  1.0319 -1.3339
 7949TIP3   OH245337   4.572   5.689  12.642 -0.0643 -0.6510  0.5609
 7949TIP3    H145338   4.622   5.611  12.617 -0.2566  0.3437 -3.7165
 7949TIP3    H245339   4.618   5.762  12.601 -1.5469  1.1320  1.9025
 7950TIP3   OH245340   1.957   0.853  14.807 -0.2889 -0.5971  0.5117
 7950TIP3    H145341   1.976   0.943  14.836 -1.6362  0.1617 -0.7922
 7950TIP3    H245342   1.982   0.798  14.881  1.3250  0.7749  1.0446
 7951TIP3   OH245343   0.893   3.016  12.213 -0.1146  0.4469 -0.3672
 7951TIP3    H145344   0.946   3.016  12.133  1.1272 -1.6649  0.3434
 7951TIP3    H245345   0.899   2.925  12.244 -0.7090  1.1640  1.9984
 7952TIP3   OH245346   4.158   0.137   0.896 -0.1287 -0.0451  0.4873
 7952TIP3    H145347   4.188   0.166   0.982  0.9984  1.0740 -0.2300
 7952TIP3    H245348   4.192   0.204   0.836 -1.4827 -0.4165 -0.7509
 7953TIP3   OH245349   2.964   4.953  17.031 -0.2688 -0.2793 -0.5227
 7953TIP3    H145350   2.953   5.023  16.966  2.9505 -0.3369 -1.2921
 7953TIP3    H245351   2.965   4.999  17.115 -0.0106  0.3648 -0.8701
 7954TIP3   OH245352   3.923   3.096  14.581  0.1036  0.4030 -0.6559
 7954TIP3    H145353   3.832   3.099  14.552 -0.4998  1.9779  1.1578
 7954TIP3    H245354   3.942   3.187  14.606  0.6382 -0.6147  3.2647
 7955TIP3   OH245355   5.551   3.755  11.969 -0.3423  0.1786  0.1502
 7955TIP3    H145356   5.504   3.675  11.943 -0.3645  0.4127 -0.5679
 7955TIP3    H245357   5.505   3.787  12.046 -0.6766 -0.1996  0.1093
 7956TIP3   OH245358   0.500   6.096  10.823 -0.0861 -0.1167 -0.5113
 7956TIP3    H145359   0.543   6.084  10.737  0.5800 -0.4594 -0.1410
 7956TIP3    H245360   0.571   6.082  10.886 -0.1867  1.8064  0.0716
 7957TIP3   OH245361   1.050   1.593   3.922 -0.2080 -0.1333  0.1059
 7957TIP3    H145362   1.113   1.666   3.924 -0.0932 -0.2375  0.6460
 7957TIP3    H245363   0.990   1.615   3.851  0.3272  0.0647 -0.2932
 7958TIP3   OH245364   0.903   6.337   4.653  0.4924  0.2433  0.0799
 7958TIP3    H145365   0.887   6.432   4.657  0.4638  0.2147  0.8571
 7958TIP3    H245366   0.904   6.317   4.560 -2.2513  0.5332 -0.0826
 7959TIP3   OH245367   2.486   0.438   0.791 -0.1581  0.5606  0.3261
 7959TIP3    H145368   2.470   0.428   0.697 -0.1174  0.4802  0.3275
 7959TIP3    H245369   2.500   0.532   0.803 -0.1910  0.5746  0.2559
 7960TIP3   OH245370   2.125   3.403  12.150 -0.3411 -0.2846 -0.2432
 7960TIP3    H145371   2.035   3.374  12.165 -0.0040 -1.0290  0.4682
 7960TIP3    H245372   2.179   3.333  12.188  0.5232  0.7386  0.4657
 7961TIP3   OH245373   3.275   1.223  11.812 -0.2081  0.7178 -0.2734
 7961TIP3    H145374   3.278   1.139  11.765 -1.6870  0.7781 -0.5067
 7961TIP3    H245375   3.353   1.270  11.780  1.2169 -0.9157  0.6087
 7962TIP3   OH245376   4.765   2.324   5.660  0.2366 -0.2734  0.2091
 7962TIP3    H145377   4.688   2.339   5.605 -0.4152 -2.2680  0.4953
 7962TIP3    H245378   4.833   2.296   5.599  0.2045 -0.2492  0.1617
 7963TIP3   OH245379   5.108   1.704  15.424  0.3961  0.8603  0.5878
 7963TIP3    H145380   5.046   1.646  15.379  1.1943  0.1814  0.3526
 7963TIP3    H245381   5.093   1.790  15.386  1.6684  0.1546 -1.6546
 7964TIP3   OH245382   1.506   3.628  14.241 -0.4574 -0.7740  0.2241
 7964TIP3    H145383   1.567   3.657  14.309 -1.7277  0.5089  0.8620
 7964TIP3    H245384   1.432   3.688  14.247 -0.7149 -0.7345 -2.1839
 7965TIP3   OH245385   4.756   0.604   2.420 -0.0330 -0.8445 -0.5872
 7965TIP3    H145386   4.685   0.662   2.392  2.1303  1.1001 -2.4665
 7965TIP3    H245387   4.736   0.584   2.512 -0.7707  3.2893  0.3823
 7966TIP3   OH245388   1.294   0.990  16.824 -0.2502  0.4445  0.7744
 7966TIP3    H145389   1.368   1.049  16.805 -0.9056  0.4675 -2.3208
 7966TIP3    H245390   1.223   1.049  16.849  0.0863  0.6409  1.2797
 7967TIP3   OH245391   2.856   0.180   3.921 -0.4150  0.2810 -0.2905
 7967TIP3    H145392   2.921   0.212   3.984 -0.4425  1.0284 -0.6270
 7967TIP3    H245393   2.897   0.103   3.882 -0.6828 -0.5974  1.1096
 7968TIP3   OH245394   2.233   4.240  14.003 -0.4337  0.3529 -0.0633
 7968TIP3    H145395   2.314   4.190  13.989 -0.8777 -0.3558 -0.1274
 7968TIP3    H245396   2.164   4.184  13.969 -1.0726  0.4943  0.9634
 7969TIP3   OH245397   6.690   2.316  16.300  0.0538  0.0618 -0.0840
 7969TIP3    H145398   6.720   2.349  16.215 -0.6000  0.4330 -0.1763
 7969TIP3    H245399   6.771   2.290  16.345  0.3010 -1.6563 -1.4219
 7970TIP3   OH245400   0.188   6.370  10.602 -0.5202 -0.0004 -0.3769
 7970TIP3    H145401   0.229   6.354  10.687 -0.2571 -1.5650 -0.7647
 7970TIP3    H245402   0.136   6.292  10.585 -0.1673  0.0511 -1.8802
 7971TIP3   OH245403   4.090   1.360   4.143 -0.8399  0.4931 -0.2579
 7971TIP3    H145404   4.083   1.307   4.222  0.3828  1.4958  0.5443
 7971TIP3    H245405   4.001   1.393   4.128 -0.8478  1.3477  1.4517
 7972TIP3   OH245406   0.126   3.777   6.563 -0.2066  1.0854  0.0174
 7972TIP3    H145407   0.138   3.684   6.580  0.4810  0.8946 -1.3213
 7972TIP3    H245408   0.073   3.781   6.483  0.0557  1.8262 -0.1341
 7973TIP3   OH245409   0.869   1.637  13.250  0.1084  0.0159 -0.0769
 7973TIP3    H145410   0.890   1.680  13.166  1.2260 -0.2411  0.0449
 7973TIP3    H245411   0.910   1.693  13.316 -1.1553  0.4591  0.3489
 7974TIP3   OH245412   2.240   6.614  11.020 -0.3524 -1.1562 -0.0747
 7974TIP3    H145413   2.245   6.537  11.076  0.5595 -1.5769 -0.7043
 7974TIP3    H245414   2.159   6.602  10.971  0.0536 -2.0133 -0.5662
 7975TIP3   OH245415   4.541   4.198   5.629  0.0543 -0.2584  0.3557
 7975TIP3    H145416   4.579   4.117   5.596  3.0627  1.2891 -0.4114
 7975TIP3    H245417   4.567   4.201   5.721 -0.6101 -0.4404  0.5544
 7976TIP3   OH245418   2.523   2.095  13.415  1.0590  0.1127 -0.1361
 7976TIP3    H145419   2.507   2.046  13.495  2.2597 -0.3680 -0.1787
 7976TIP3    H245420   2.477   2.178  13.428 -0.3826 -0.7077  0.2321
 7977TIP3   OH245421   2.863   5.506  13.321 -0.1714 -0.0164  0.3652
 7977TIP3    H145422   2.929   5.496  13.253 -2.0275  1.3661 -1.8153
 7977TIP3    H245423   2.854   5.419  13.359  2.0851 -0.4704  0.0069
 7978TIP3   OH245424   2.891   2.181   1.163  0.4312 -0.6287  0.1974
 7978TIP3    H145425   2.974   2.165   1.119  0.2506  1.3574 -0.9886
 7978TIP3    H245426   2.838   2.228   1.098 -1.0741 -0.5407  1.4333
 7979TIP3   OH245427   0.960   5.468  16.637  0.2655 -0.0262 -0.7351
 7979TIP3    H145428   1.022   5.537  16.615 -0.8755  0.6729 -1.8907
 7979TIP3    H245429   1.008   5.387  16.621  0.9285  0.4956 -1.4680
 7980TIP3   OH245430   6.277   2.036   3.753 -0.1558 -0.4185 -0.2466
 7980TIP3    H145431   6.366   2.037   3.788  1.0741  0.5213 -3.0851
 7980TIP3    H245432   6.286   2.071   3.664 -3.7259  1.8730  0.1182
 7981TIP3   OH245433   6.476   6.545  15.561 -0.3862 -0.2641 -0.3433
 7981TIP3    H145434   6.403   6.594  15.598  0.3868  1.1009 -0.5595
 7981TIP3    H245435   6.548   6.607  15.559  0.5683 -1.3499 -0.8715
 7982TIP3   OH245436   0.568   4.134  13.552 -0.6605 -0.0398 -0.4871
 7982TIP3    H145437   0.512   4.097  13.620 -1.8191 -0.9639 -1.8759
 7982TIP3    H245438   0.518   4.122  13.471  0.5127  1.3358 -1.4699
 7983TIP3   OH245439   6.632   2.058   3.262 -0.2341  0.1992  0.6076
 7983TIP3    H145440   6.693   2.011   3.318 -0.0913  0.6109  0.7957
 7983TIP3    H245441   6.634   2.148   3.293 -2.5396 -0.1681  2.0430
 7984TIP3   OH245442   2.870   2.840   4.523  0.1689  0.4018 -0.0011
 7984TIP3    H145443   2.951   2.807   4.484  0.9120  2.2694 -0.1493
 7984TIP3    H245444   2.806   2.836   4.451  0.7100  0.9222 -0.5287
 7985TIP3   OH245445   1.398   1.054   5.998 -0.8429 -0.2732  0.4317
 7985TIP3    H145446   1.363   1.129   6.046 -1.1242 -0.1581  0.0522
 7985TIP3    H245447   1.331   1.034   5.933  1.3084  2.3321 -2.8991
 7986TIP3   OH245448   1.135   4.738  11.860 -0.1654  0.7167 -0.4026
 7986TIP3    H145449   1.157   4.673  11.792 -0.4969  0.7530 -0.5500
 7986TIP3    H245450   1.042   4.724  11.876  0.3150 -0.6424  1.4871
 7987TIP3   OH245451   6.313   4.592  13.468 -0.1417 -0.0528 -0.1372
 7987TIP3    H145452   6.404   4.596  13.441  0.6099 -0.8423  2.0542
 7987TIP3    H245453   6.290   4.683  13.487  0.1506  0.1561 -0.7553
 7988TIP3   OH245454   5.814   2.923  12.069 -0.0758 -0.1373 -0.2232
 7988TIP3    H145455   5.803   2.903  11.976 -1.5850 -1.2214  0.1481
 7988TIP3    H245456   5.757   2.998  12.085 -0.5262 -0.5116 -0.0166
 7989TIP3   OH245457   6.152   2.800  13.222 -0.0368 -0.1943  0.1254
 7989TIP3    H145458   6.160   2.858  13.146 -0.2655 -0.5441 -0.1715
 7989TIP3    H245459   6.217   2.731  13.206  0.9969  0.5560  1.0093
 7990TIP3   OH245460   5.767   5.988  15.851  0.1021 -0.0625 -0.1812
 7990TIP3    H145461   5.852   5.958  15.818 -0.1430 -0.5123 -0.4115
 7990TIP3    H245462   5.721   5.908  15.876 -0.2825  0.1745 -0.1189
 7991TIP3   OH245463   1.819   2.142   4.471  0.0954  0.3021  0.2793
 7991TIP3    H145464   1.911   2.157   4.446 -0.2191  1.2460 -0.3555
 7991TIP3    H245465   1.825   2.086   4.548  1.1816 -0.5771 -0.4049
 7992TIP3   OH245466   5.190   1.185  14.249 -0.1493 -0.6790  0.0517
 7992TIP3    H145467   5.237   1.228  14.321 -0.4049  0.4244 -0.4213
 7992TIP3    H245468   5.256   1.177  14.179  0.1835 -2.0216  0.4775
 7993TIP3   OH245469   6.414   1.407   0.615 -0.1985  0.2339 -0.8584
 7993TIP3    H145470   6.437   1.356   0.537 -0.6666 -1.2696 -0.0437
 7993TIP3    H245471   6.431   1.348   0.688 -0.3036  1.4301  0.1617
 7994TIP3   OH245472   5.894   2.914   2.630  0.6223  0.0153 -0.3035
 7994TIP3    H145473   5.965   2.978   2.636  2.5226 -1.6615 -2.7601
 7994TIP3    H245474   5.918   2.846   2.693 -0.7893  1.0664  1.4620
 7995TIP3   OH245475   1.315   4.768   4.441  0.1097  0.0358 -0.1027
 7995TIP3    H145476   1.239   4.822   4.420  0.1994  0.4718  0.6726
 7995TIP3    H245477   1.281   4.700   4.498 -0.0477 -0.8920 -1.2606
 7996TIP3   OH245478   5.134   1.802  14.315  0.2006 -0.4192 -0.4919
 7996TIP3    H145479   5.210   1.795  14.373 -0.6190  2.7068  1.1470
 7996TIP3    H245480   5.107   1.711  14.300  2.8525 -1.5106  0.7196
 7997TIP3   OH245481   5.931   6.759  15.297  0.2495 -0.2999  0.0929
 7997TIP3    H145482   6.026   6.755  15.306  0.4910 -1.0001 -2.0286
 7997TIP3    H245483   5.916   6.832  15.237 -0.6551  0.5116  1.2800
 7998TIP3   OH245484   2.636   0.100  14.235  0.1525  0.1941 -0.0211
 7998TIP3    H145485   2.612   0.156  14.309 -1.1458  0.5163 -0.6704
 7998TIP3    H245486   2.556   0.093  14.183  0.8563 -0.6112 -1.0258
 7999TIP3   OH245487   4.531   1.026  14.486 -0.1091 -0.0360  0.2600
 7999TIP3    H145488   4.626   1.035  14.482 -0.0514  1.2183  2.3657
 7999TIP3    H245489   4.499   1.116  14.491 -1.1316 -0.4564  2.7512
 8000TIP3   OH245490   6.802   5.847  14.439  0.0537 -0.3190 -0.0647
 8000TIP3    H145491   6.877   5.880  14.389  0.8672  0.1559  1.3995
 8000TIP3    H245492   6.836   5.769  14.483 -0.2995 -0.0795  0.6369
 8001TIP3   OH245493   0.943   3.085   3.877 -0.2540  0.4292  0.0826
 8001TIP3    H145494   1.030   3.062   3.910 -0.8545 -1.7784  0.2634
 8001TIP3    H245495   0.951   3.079   3.782 -0.2124  0.2102  0.1000
 8002TIP3   OH245496   3.089   1.948  14.800 -0.4815 -0.2713  0.0830
 8002TIP3    H145497   3.173   1.932  14.842 -0.6757 -0.5491  0.3645
 8002TIP3    H245498   3.078   2.043  14.804 -0.0884 -0.2124 -0.1382
 8003TIP3   OH245499   6.091   6.652   1.355 -0.0756 -0.4278  0.0588
 8003TIP3    H145500   6.094   6.701   1.437  1.7627 -0.2694 -0.0763
 8003TIP3    H245501   6.046   6.710   1.294  0.6884  0.4577  0.3203
 8004TIP3   OH245502   0.954   4.967   5.510  0.3449 -0.8028 -0.3452
 8004TIP3    H145503   0.911   5.008   5.585  0.3222 -1.5156  0.0308
 8004TIP3    H245504   0.911   5.007   5.434 -0.7688 -1.2624  0.0200
 8005TIP3   OH245505   2.705   2.903   0.754  0.0787 -0.0380  0.1058
 8005TIP3    H145506   2.743   2.990   0.741 -0.8108  0.5965  1.5273
 8005TIP3    H245507   2.742   2.873   0.837 -1.6819  0.1668  1.0148
 8006TIP3   OH245508   2.307   3.108   3.263  0.2668  0.3648 -0.0623
 8006TIP3    H145509   2.368   3.094   3.190  0.3230 -0.3422  0.1064
 8006TIP3    H245510   2.220   3.098   3.224  0.3009 -0.2025 -0.0030
 8007TIP3   OH245511   6.763   0.358  14.442  0.5141  0.2781  0.8655
 8007TIP3    H145512   6.810   0.288  14.488  0.7256 -0.2260 -0.1041
 8007TIP3    H245513   6.678   0.319  14.421  0.6036  0.3422  0.3887
 8008TIP3   OH245514   0.264   3.948  13.091  0.0928 -0.5087 -0.9527
 8008TIP3    H145515   0.324   4.021  13.101  0.3469 -0.7572 -0.6344
 8008TIP3    H245516   0.310   3.873  13.129 -0.2113 -0.8094 -1.1644
 8009TIP3   OH245517   1.953   2.396   5.927 -0.4090  0.2278  0.8283
 8009TIP3    H145518   1.914   2.354   6.003 -0.7974  1.9712  1.6306
 8009TIP3    H245519   2.035   2.434   5.959 -1.0922  1.9051  0.6953
 8010TIP3   OH245520   6.339   1.814  15.438  0.3163  0.3306  0.6025
 8010TIP3    H145521   6.422   1.772  15.461 -0.2796 -1.5947 -0.5606
 8010TIP3    H245522   6.341   1.822  15.343 -0.6500  0.7159  0.6015
 8011TIP3   OH245523   0.423   0.181   4.206 -0.3857 -0.3009 -0.3525
 8011TIP3    H145524   0.457   0.223   4.127  0.5107  0.6499  0.5071
 8011TIP3    H245525   0.418   0.088   4.184 -0.4348 -0.0140 -1.6170
 8012TIP3   OH245526   5.996   1.607   2.337  0.0296  0.0239 -0.1460
 8012TIP3    H145527   5.963   1.517   2.336 -1.4367  0.5161  0.9281
 8012TIP3    H245528   5.997   1.633   2.244 -1.7472 -0.3649 -0.3214
 8013TIP3   OH245529   3.932   0.908   3.041  0.1702  0.0383 -0.2071
 8013TIP3    H145530   3.976   0.823   3.045 -0.3310 -0.1720  1.9882
 8013TIP3    H245531   4.000   0.971   3.064  0.6603  0.3344 -2.2855
 8014TIP3   OH245532   0.351   1.799  14.871  0.0909  0.1468 -0.5750
 8014TIP3    H145533   0.419   1.865  14.873 -0.2532  0.5967  2.7673
 8014TIP3    H245534   0.273   1.845  14.839  0.7869  0.1759 -2.3307
 8015TIP3   OH245535   2.192   4.369  16.035  0.2421 -0.2085 -0.1333
 8015TIP3    H145536   2.183   4.329  15.949 -1.4579  1.2073 -0.6733
 8015TIP3    H245537   2.251   4.443  16.021  0.2282 -0.1734 -0.0067
 8016TIP3   OH245538   1.167   1.299   2.659  0.2412  0.4596  0.0662
 8016TIP3    H145539   1.092   1.349   2.628  0.0187  0.2509  0.2663
 8016TIP3    H245540   1.186   1.239   2.587 -0.0794  0.1905  0.2020
 8017TIP3   OH245541   0.815   6.818  12.536  0.4854 -0.7239 -0.4672
 8017TIP3    H145542   0.776   6.757  12.598  1.0856 -1.9370 -1.2385
 8017TIP3    H245543   0.774   6.797  12.452  1.1260 -0.4716 -0.8571
 8018TIP3   OH245544   2.044   6.743   0.609  0.3564 -0.3145 -0.2417
 8018TIP3    H145545   1.958   6.704   0.598  0.1944  0.2666 -1.0846
 8018TIP3    H245546   2.104   6.669   0.615  0.1560 -0.7371 -2.6060
 8019TIP3   OH245547   6.762   5.512   1.911 -0.5785  0.5559 -0.3901
 8019TIP3    H145548   6.857   5.516   1.902 -0.7049 -0.0693 -2.5080
 8019TIP3    H245549   6.738   5.598   1.946  0.9463 -0.2738  3.1743
 8020TIP3   OH245550   4.497   0.035   1.480 -0.4715  0.0314  0.1719
 8020TIP3    H145551   4.451   0.109   1.439  1.3310  0.5997 -0.9644
 8020TIP3    H245552   4.553   0.000   1.410 -0.6864 -1.9271  0.9266
 8021TIP3   OH245553   3.390   6.387  12.492  0.6251 -0.2572  0.1616
 8021TIP3    H145554   3.344   6.322  12.546  0.3390 -0.5630 -0.4389
 8021TIP3    H245555   3.350   6.471  12.515 -1.2802 -0.6752 -1.3935
 8022TIP3   OH245556   2.411   2.438  14.039  0.4623  0.2549  0.0528
 8022TIP3    H145557   2.354   2.481  14.103  1.6289 -0.7901  1.8816
 8022TIP3    H245558   2.401   2.490  13.959 -2.3896  0.5866  0.5134
 8023TIP3   OH245559   2.729   0.279   2.462  0.0383 -0.7726 -0.1795
 8023TIP3    H145560   2.745   0.364   2.501 -0.5583 -1.2301  1.1232
 8023TIP3    H245561   2.806   0.226   2.486  0.2949 -0.6784 -0.7778
 8024TIP3   OH245562   2.821   6.006  14.358  0.1466 -0.2225 -0.4454
 8024TIP3    H145563   2.916   5.998  14.348  0.4088  2.2520 -0.6769
 8024TIP3    H245564   2.791   6.039  14.274 -0.6200  0.8042  0.2054
 8025TIP3   OH245565   5.249   1.868   4.391  0.5117  0.0236 -0.2795
 8025TIP3    H145566   5.258   1.782   4.350  3.6499 -0.0248  0.2882
 8025TIP3    H245567   5.236   1.849   4.484 -1.0772  0.1999 -0.4350
 8026TIP3   OH245568   1.677   2.241  13.164  0.5791 -0.2695 -0.8765
 8026TIP3    H145569   1.650   2.318  13.114 -0.1719 -0.8071 -1.3151
 8026TIP3    H245570   1.631   2.168  13.122  0.8626 -0.8870 -0.1285
 8027TIP3   OH245571   1.202   3.855  14.700 -0.6148  0.0256  0.3399
 8027TIP3    H145572   1.195   3.947  14.677  1.0541  0.1368  0.1239
 8027TIP3    H245573   1.211   3.809  14.617 -0.2638 -0.1933  0.4935
 8028TIP3   OH245574   4.875   4.946   5.640  0.2646 -0.2246  0.0177
 8028TIP3    H145575   4.953   4.912   5.596  0.3568 -1.0382  0.7677
 8028TIP3    H245576   4.824   4.867   5.661 -0.1839  0.2105  0.5885
 8029TIP3   OH245577   3.006   5.904  14.642  0.7375 -0.3713  0.0624
 8029TIP3    H145578   2.994   5.941  14.554 -1.2550 -1.0241  0.0202
 8029TIP3    H245579   3.064   5.966  14.686  0.5712  0.7539 -1.2353
 8030TIP3   OH245580   6.115   3.347  16.102  0.1695  0.0560 -0.0003
 8030TIP3    H145581   6.112   3.304  16.016 -2.0474 -2.5060  1.1957
 8030TIP3    H245582   6.185   3.301  16.149  1.0665  1.1422 -0.2253
 8031TIP3   OH245583   1.442   3.136   0.912  0.0045  0.7635  0.6374
 8031TIP3    H145584   1.479   3.207   0.860 -1.3390 -0.0338 -1.5674
 8031TIP3    H245585   1.354   3.166   0.934 -0.9205 -0.5038 -1.1061
 8032TIP3   OH245586   4.177   1.674  11.091  0.2878  0.3454  0.0070
 8032TIP3    H145587   4.258   1.721  11.113 -0.2061  0.8178  0.9052
 8032TIP3    H245588   4.203   1.607  11.028  1.8567 -1.1752  2.1321
 8033TIP3   OH245589   1.997   5.055  13.331  0.1264 -0.3221  0.1028
 8033TIP3    H145590   2.053   5.083  13.403 -0.6121  0.8280  0.2513
 8033TIP3    H245591   2.006   5.123  13.265 -2.5211  0.9410  0.9029
 8034TIP3   OH245592   1.451   1.376   2.575  0.0300  0.5438 -0.1679
 8034TIP3    H145593   1.541   1.406   2.572  0.1943  0.0017 -0.8777
 8034TIP3    H245594   1.440   1.342   2.664  0.6408  0.2588 -0.1974
 8035TIP3   OH245595   5.617   2.587   3.855 -0.0970  0.1019  0.1224
 8035TIP3    H145596   5.557   2.517   3.879 -2.3332  2.5420  2.2989
 8035TIP3    H245597   5.595   2.607   3.764 -0.8954 -0.6293  0.1370
 8036TIP3   OH245598   0.409   2.475   0.611 -0.2254 -0.3412 -0.5952
 8036TIP3    H145599   0.397   2.383   0.586  0.5813 -0.7958  0.5859
 8036TIP3    H245600   0.387   2.477   0.704  0.3003  0.5459 -0.4820
 8037TIP3   OH245601   6.702   4.382   5.232  0.0340  0.3750 -0.2761
 8037TIP3    H145602   6.670   4.434   5.158  0.4188  2.4076  0.9108
 8037TIP3    H245603   6.774   4.331   5.196  0.3186  1.4355 -1.2888
 8038TIP3   OH245604   3.986   5.305   0.388  0.0184  0.3105  0.2410
 8038TIP3    H145605   3.954   5.295   0.298 -1.1041 -0.6653  0.7177
 8038TIP3    H245606   4.080   5.319   0.378  0.2298 -1.6180 -1.0282
 8039TIP3   OH245607   2.965   4.672   4.654 -0.2187  0.1106 -0.6005
 8039TIP3    H145608   3.055   4.658   4.684 -0.3504 -2.2507 -1.1483
 8039TIP3    H245609   2.913   4.675   4.734 -0.0442 -2.0220 -0.3554
 8040TIP3   OH245610   1.817   5.080  16.103  0.1573  0.1231  0.2385
 8040TIP3    H145611   1.829   5.140  16.029 -0.5806 -1.2013 -1.0063
 8040TIP3    H245612   1.727   5.050  16.094  0.5190 -1.1581  0.8274
 8041TIP3   OH245613   5.664   1.740  16.413 -0.1517  0.1759  0.3354
 8041TIP3    H145614   5.711   1.657  16.407  1.8275  1.2747 -0.1745
 8041TIP3    H245615   5.614   1.744  16.332 -0.5260 -0.6552  0.5103
 8042TIP3   OH245616   2.436   2.885  15.153  0.4665  0.2629  0.0399
 8042TIP3    H145617   2.457   2.975  15.176 -0.5795  0.3981  0.5561
 8042TIP3    H245618   2.363   2.893  15.091 -0.4861 -0.2464  1.0716
 8043TIP3   OH245619   3.172   3.131  10.670  0.0662 -0.3801 -0.9491
 8043TIP3    H145620   3.088   3.087  10.685  0.1305 -0.2293 -0.0786
 8043TIP3    H245621   3.155   3.192  10.598 -1.3325  1.5693  0.9073
 8044TIP3   OH245622   5.841   1.924  15.800  0.5870 -0.4209  0.9442
 8044TIP3    H145623   5.811   1.909  15.890 -0.5418  1.3774  0.9233
 8044TIP3    H245624   5.838   2.020  15.790  0.4106 -0.6013 -1.0926
 8045TIP3   OH245625   1.550   5.267   4.825  0.1818 -0.2816  0.1692
 8045TIP3    H145626   1.504   5.193   4.865  0.2586  0.5095  1.7743
 8045TIP3    H245627   1.630   5.277   4.877  0.4028  0.6504 -0.3238
 8046TIP3   OH245628   0.223   4.087  11.459  0.4969  0.5154 -0.1339
 8046TIP3    H145629   0.202   4.009  11.408  1.4766  0.0318  0.1650
 8046TIP3    H245630   0.175   4.076  11.541  1.7034 -0.4885  0.4754
 8047TIP3   OH245631   6.202   3.290  11.622  0.1565 -0.0283  0.0521
 8047TIP3    H145632   6.276   3.248  11.665 -0.6423 -1.5043  0.0797
 8047TIP3    H245633   6.241   3.345  11.554  1.2713 -1.1007 -0.2159
 8048TIP3   OH245634   5.030   5.630  14.287  0.4353 -0.3055  0.0518
 8048TIP3    H145635   5.026   5.670  14.200 -0.4877  0.8446  0.5964
 8048TIP3    H245636   5.045   5.537  14.270 -0.5032 -0.2295 -1.3652
 8049TIP3   OH245637   4.035   6.696   1.313  0.9473 -0.6778  0.6298
 8049TIP3    H145638   3.962   6.757   1.324  2.3862  1.1955  0.4052
 8049TIP3    H245639   3.995   6.614   1.285 -1.0853  0.1617  0.9551
 8050TIP3   OH245640   1.574   3.884   0.695 -0.2271 -0.4877 -0.0732
 8050TIP3    H145641   1.656   3.922   0.726  0.6093 -0.0855 -2.5512
 8050TIP3    H245642   1.596   3.795   0.671  0.5133  0.5937 -4.0511
 8051TIP3   OH245643   2.262   3.401  15.741 -0.5182 -0.2198 -0.4270
 8051TIP3    H145644   2.337   3.411  15.800 -1.0624 -0.0706  0.2515
 8051TIP3    H245645   2.260   3.308  15.721 -1.0161 -0.4834  0.7370
 8052TIP3   OH245646   0.410   5.031   0.819  0.3912  0.0204 -0.1389
 8052TIP3    H145647   0.397   4.939   0.840  1.6810 -0.3501 -0.8610
 8052TIP3    H245648   0.324   5.071   0.832 -0.2198 -1.3026  0.0307
 8053TIP3   OH245649   2.429   2.484   1.450  0.6396  0.0982  0.0336
 8053TIP3    H145650   2.446   2.391   1.458 -1.4510 -0.3569 -0.2700
 8053TIP3    H245651   2.363   2.491   1.380 -2.5893  1.2891  2.8987
 8054TIP3   OH245652   4.162   2.353  14.241 -0.4851 -0.0291  0.1440
 8054TIP3    H145653   4.096   2.417  14.214  1.3058  1.3200 -1.3880
 8054TIP3    H245654   4.177   2.371  14.334 -0.7428  1.1325 -0.0208
 8055TIP3   OH245655   1.798   3.262   5.231  0.3265 -0.3750  0.0156
 8055TIP3    H145656   1.882   3.254   5.186 -0.2431 -0.9434 -0.9625
 8055TIP3    H245657   1.743   3.314   5.171  0.1053  0.3717  0.8365
 8056TIP3   OH245658   1.832   4.889   5.049 -0.0522  0.3532 -0.3191
 8056TIP3    H145659   1.921   4.923   5.048  1.0893 -2.2996 -2.6274
 8056TIP3    H245660   1.831   4.822   4.980 -2.9050 -2.0949  1.8394
 8057TIP3   OH245661   4.553   0.311  16.671 -0.0362  0.9297  0.0731
 8057TIP3    H145662   4.592   0.346  16.591 -0.0627  1.4236  0.2742
 8057TIP3    H245663   4.560   0.216  16.662  0.2419  0.9920 -0.3750
 8058TIP3   OH245664   6.411   2.486   3.122  0.0329 -0.3949 -0.5188
 8058TIP3    H145665   6.469   2.469   3.048 -0.1184 -0.2774 -0.6667
 8058TIP3    H245666   6.392   2.400   3.160 -0.6416 -0.5536 -1.1901
 8059TIP3   OH245667   1.751   2.443  16.334  0.0619  0.2794 -0.5860
 8059TIP3    H145668   1.749   2.421  16.241  0.8311  1.0517 -0.7915
 8059TIP3    H245669   1.667   2.411  16.367  0.6908 -2.0845 -1.0494
 8060TIP3   OH245670   5.878   0.346   0.683 -0.7389  0.0618 -0.3972
 8060TIP3    H145671   5.947   0.328   0.619 -2.0338 -3.5884 -1.0264
 8060TIP3    H245672   5.809   0.390   0.633 -0.2171  0.7071 -0.5565
 8061TIP3   OH245673   5.757   2.340  13.626 -0.3426 -0.7473 -0.7455
 8061TIP3    H145674   5.785   2.334  13.535  0.2321  0.5697 -0.6864
 8061TIP3    H245675   5.837   2.327  13.677 -0.5736 -0.9955 -0.4424
 8062TIP3   OH245676   2.964   3.845  13.997 -0.8279 -0.1898  0.2979
 8062TIP3    H145677   3.023   3.770  14.008 -2.1973 -1.1829  1.1339
 8062TIP3    H245678   2.907   3.821  13.925  1.1937  1.7764 -2.1503
 8063TIP3   OH245679   3.814   6.174  14.384 -0.6565  0.3228  0.6336
 8063TIP3    H145680   3.867   6.121  14.443 -1.2308  0.0697  0.9375
 8063TIP3    H245681   3.852   6.161  14.297 -1.6321 -1.7562  0.4465
 8064TIP3   OH245682   4.139   2.449  12.335  0.0838  0.1513 -0.3828
 8064TIP3    H145683   4.067   2.462  12.273  0.1658 -0.1109 -0.5357
 8064TIP3    H245684   4.206   2.511  12.308  0.4601 -0.5513 -1.0813
 8065TIP3   OH245685   0.748   2.705  12.823  0.2619  0.1815 -0.5206
 8065TIP3    H145686   0.706   2.755  12.753  0.3035 -0.3592 -0.9343
 8065TIP3    H245687   0.813   2.765  12.860  0.1734  0.5006 -0.8830
 8066TIP3   OH245688   6.011   5.033   3.047  0.2194  0.0559 -0.0005
 8066TIP3    H145689   6.092   5.075   3.019  0.6336 -0.9545 -0.3686
 8066TIP3    H245690   6.040   4.953   3.092 -0.5467  0.1233  0.6406
 8067TIP3   OH245691   2.959   4.094  12.968 -0.3690 -0.0795 -0.2627
 8067TIP3    H145692   2.912   4.065  13.046  0.2091  0.0409  0.1366
 8067TIP3    H245693   2.977   4.187  12.984 -0.4825  0.0151 -0.6633
 8068TIP3   OH245694   2.993   1.219  15.796  0.0153  0.0728 -0.1499
 8068TIP3    H145695   2.932   1.169  15.851 -1.1402  1.4844 -0.0643
 8068TIP3    H245696   2.953   1.218  15.709 -0.6057  1.6903  0.0841
 8069TIP3   OH245697   3.758   4.084  16.881  0.2022  0.3365  0.5970
 8069TIP3    H145698   3.774   4.111  16.791 -0.1011 -0.3929  0.3186
 8069TIP3    H245699   3.824   4.017  16.899 -1.6898 -1.8908 -0.2018
 8070TIP3   OH245700   6.566   2.043  14.336 -0.1224 -0.5396  0.2261
 8070TIP3    H145701   6.491   1.983  14.333 -0.1610 -0.6044  1.7266
 8070TIP3    H245702   6.635   1.997  14.288 -0.6757 -1.0247 -0.1174
 8071TIP3   OH245703   0.226   6.803   1.769  0.4264 -0.9322 -0.1485
 8071TIP3    H145704   0.133   6.819   1.784  0.6112 -0.9616  1.1477
 8071TIP3    H245705   0.230   6.717   1.728 -0.1675 -0.5160 -1.1129
 8072TIP3   OH245706   3.147   3.933  14.586  0.0779 -0.1517 -0.1612
 8072TIP3    H145707   3.119   3.986  14.661  1.7819  0.9745 -0.2789
 8072TIP3    H245708   3.198   3.862  14.625 -2.1336 -1.7687 -0.0099
 8073TIP3   OH245709   0.306   5.612  10.739 -0.6178 -0.0011  0.0256
 8073TIP3    H145710   0.386   5.559  10.729  1.4005  2.6892  0.6209
 8073TIP3    H245711   0.327   5.695  10.696 -3.4349  0.5746 -0.4248
 8074TIP3   OH245712   0.424   5.762  15.832  0.2505 -0.0597  0.4000
 8074TIP3    H145713   0.376   5.775  15.914  0.8110  0.4771  0.6422
 8074TIP3    H245714   0.404   5.671  15.808 -0.2038 -0.1124  0.9389
 8075TIP3   OH245715   1.756   1.643   0.707 -0.3448  0.9166 -0.2504
 8075TIP3    H145716   1.699   1.720   0.710 -1.0648  0.4231 -0.8838
 8075TIP3    H245717   1.839   1.676   0.673 -1.0681  1.1911 -1.8575
 8076TIP3   OH245718   0.280   6.202   2.053  0.2144  0.7609 -0.3222
 8076TIP3    H145719   0.224   6.132   2.086  0.2522  0.1487 -1.4954
 8076TIP3    H245720   0.232   6.240   1.980  0.7398  1.1348 -0.4830
 8077TIP3   OH245721   4.419   5.696   3.321  0.0724 -0.0346  0.1259
 8077TIP3    H145722   4.353   5.683   3.253  0.3338 -1.6249  0.1458
 8077TIP3    H245723   4.368   5.709   3.401 -0.2494  2.4630 -0.4179
 8078TIP3   OH245724   0.435   2.429  16.695 -0.1570  0.0453  0.3107
 8078TIP3    H145725   0.350   2.469  16.677  0.7957  1.7070 -0.7928
 8078TIP3    H245726   0.482   2.495  16.746  1.3593  0.2899 -1.2947
 8079TIP3   OH245727   3.235   3.574   2.504  0.3405  0.3329  0.2982
 8079TIP3    H145728   3.188   3.546   2.426 -0.1051 -3.2461  1.6581
 8079TIP3    H245729   3.206   3.665   2.518 -3.0871 -0.3685 -1.1898
 8080TIP3   OH245730   4.614   1.928  15.543 -0.0448 -0.6411 -0.5903
 8080TIP3    H145731   4.590   1.936  15.450 -0.9143 -0.4905 -0.3619
 8080TIP3    H245732   4.574   1.845  15.571 -0.3279 -0.3689 -0.1873
 8081TIP3   OH245733   0.579   1.375   4.711 -0.1598 -0.0772 -0.9365
 8081TIP3    H145734   0.662   1.370   4.759  0.0307 -0.7309 -1.3188
 8081TIP3    H245735   0.547   1.285   4.709  0.5344 -0.3381 -3.2400
 8082TIP3   OH245736   3.500   4.119  14.480  0.1114 -0.0706 -0.8310
 8082TIP3    H145737   3.413   4.160  14.482  0.5085  0.7612  0.1877
 8082TIP3    H245738   3.559   4.186  14.515  0.6913 -1.7183  1.5891
 8083TIP3   OH245739   4.753   5.571  15.067  0.5586  0.0509  0.3235
 8083TIP3    H145740   4.684   5.637  15.075 -0.8046 -1.0868 -1.1497
 8083TIP3    H245741   4.829   5.618  15.033 -0.0482  1.0377  0.3130
 8084TIP3   OH245742   1.936   0.348   4.829  0.1915  0.1618 -0.4697
 8084TIP3    H145743   2.025   0.338   4.795 -0.2032  1.2307 -1.8920
 8084TIP3    H245744   1.905   0.259   4.843  0.8106 -0.2828 -1.8067
 8085TIP3   OH245745   4.500   1.708  12.855  0.4150 -0.4689  0.3743
 8085TIP3    H145746   4.539   1.789  12.887  0.3488  0.3273 -1.4456
 8085TIP3    H245747   4.423   1.736  12.805 -0.4737 -1.7672  0.9512
 8086TIP3   OH245748   1.353   6.662  13.424 -0.1768 -0.0647 -0.0551
 8086TIP3    H145749   1.328   6.587  13.477  2.3521 -1.2127 -0.3281
 8086TIP3    H245750   1.419   6.707  13.476  0.0723  0.5900 -0.9136
 8087TIP3   OH245751   4.949   4.076  14.715  0.1139  0.0337  0.0254
 8087TIP3    H145752   4.897   3.995  14.713  0.3920 -0.1437 -0.2166
 8087TIP3    H245753   4.995   4.076  14.631 -0.5126  0.8571 -0.3296
 8088TIP3   OH245754   2.685   3.054   2.217  0.7513 -0.0125  0.1209
 8088TIP3    H145755   2.676   3.137   2.170 -0.6418 -0.6642 -0.8243
 8088TIP3    H245756   2.746   3.003   2.164  1.1001  0.1598  0.3532
 8089TIP3   OH245757   4.779   2.117   3.605 -0.5024 -0.3217 -0.3704
 8089TIP3    H145758   4.779   2.133   3.699  0.6324 -0.7147 -0.2827
 8089TIP3    H245759   4.761   2.202   3.566 -0.2723 -0.0139  0.1844
 8090TIP3   OH245760   1.136   0.066  11.008  0.7375  0.3620 -0.1496
 8090TIP3    H145761   1.178   0.032  11.087 -0.5474  0.1916  0.5016
 8090TIP3    H245762   1.138  -0.007  10.946  0.7796  0.1297  0.1230
 8091TIP3   OH245763   1.650   4.141  13.373  0.4616  0.2791  0.0288
 8091TIP3    H145764   1.723   4.092  13.336 -0.3366  0.2686 -1.6062
 8091TIP3    H245765   1.615   4.083  13.442  1.6631  0.0813  0.4854
 8092TIP3   OH245766   0.751   1.494   1.081 -0.0066 -0.2183  0.2416
 8092TIP3    H145767   0.710   1.424   1.131  0.6520 -0.7354  0.0819
 8092TIP3    H245768   0.845   1.473   1.084  0.2681  0.9882  0.7023
 8093TIP3   OH245769   5.575   4.282  16.563  0.4093 -0.5890 -0.3955
 8093TIP3    H145770   5.613   4.365  16.593  0.4988 -0.9791  0.6168
 8093TIP3    H245771   5.484   4.286  16.592  0.3956 -0.8096 -0.4072
 8094TIP3   OH245772   6.488   1.670  14.438  0.0926  0.1059  0.2904
 8094TIP3    H145773   6.404   1.630  14.415  0.0687  0.4204 -0.1757
 8094TIP3    H245774   6.464   1.748  14.488  0.1201  0.0114  0.4533
 8095TIP3   OH245775   5.031   4.136  15.262  0.5785 -0.0968 -0.0778
 8095TIP3    H145776   5.038   4.117  15.355  1.4268 -1.0756 -0.3121
 8095TIP3    H245777   5.098   4.203  15.246 -0.7955  1.4197  0.3214
 8096TIP3   OH245778   4.051   1.547   4.731 -0.6790  0.1494 -0.1343
 8096TIP3    H145779   4.133   1.514   4.768 -1.0615 -1.2244 -0.4229
 8096TIP3    H245780   4.065   1.545   4.637 -1.1791 -0.5377 -0.2038
 8097TIP3   OH245781   1.611   4.824  13.318  0.0716  0.0234 -0.7968
 8097TIP3    H145782   1.700   4.795  13.297  0.6443  0.7824  0.4119
 8097TIP3    H245783   1.622   4.915  13.345 -1.0726  0.1143 -0.5925
 8098TIP3   OH245784   5.445   6.403  10.652  0.3215 -0.3397  0.1837
 8098TIP3    H145785   5.536   6.430  10.639  0.2428 -0.0494  0.2334
 8098TIP3    H245786   5.443   6.312  10.622  0.7928 -0.5896  0.8889
 8099TIP3   OH245787   1.837   2.676  12.281 -0.8079  0.4517  0.5748
 8099TIP3    H145788   1.797   2.646  12.362  1.9385  0.2550  1.9785
 8099TIP3    H245789   1.884   2.599  12.247 -0.8973  0.8705 -0.5481
 8100TIP3   OH245790   3.250   0.210   3.476  0.1311 -0.2461  0.6887
 8100TIP3    H145791   3.251   0.305   3.471  1.5006 -0.2718  0.0265
 8100TIP3    H245792   3.194   0.183   3.403  0.2047  0.0446  0.5231
 8101TIP3   OH245793   5.109   6.321  13.854  0.2233  0.7564 -0.4108
 8101TIP3    H145794   5.095   6.328  13.759  1.7289  1.2375 -0.6182
 8101TIP3    H245795   5.157   6.400  13.877  0.4299  0.3392  0.6546
 8102TIP3   OH245796   1.026   3.309  12.418 -1.0282  0.3840  0.4732
 8102TIP3    H145797   0.954   3.247  12.409 -1.7120  1.0990  0.8879
 8102TIP3    H245798   1.030   3.328  12.511 -0.2031  0.2505  0.4737
 8103TIP3   OH245799   0.007   0.248  15.101 -0.0649  0.0700  0.2022
 8103TIP3    H145800   0.059   0.189  15.046  0.1628  1.1674 -0.7899
 8103TIP3    H245801  -0.079   0.207  15.104  0.1165 -0.3790 -0.3951
 8104TIP3   OH245802   5.871   5.178  15.249 -0.3869  0.2177  0.3380
 8104TIP3    H145803   5.824   5.182  15.332  0.4916 -1.4621  0.9715
 8104TIP3    H245804   5.919   5.261  15.246  0.2717 -0.0470  1.9818
 8105TIP3   OH245805   2.308   0.316   0.992  0.3778  0.1812 -0.2274
 8105TIP3    H145806   2.347   0.387   0.941 -2.5748  1.9418 -0.3060
 8105TIP3    H245807   2.256   0.360   1.059  0.1292 -1.9992  1.1253
 8106TIP3   OH245808   2.999   0.385  15.228 -0.3063  0.0906  0.7248
 8106TIP3    H145809   3.007   0.468  15.181 -0.7900 -0.1075  0.2812
 8106TIP3    H245810   2.922   0.395  15.283 -0.4891 -0.1323  0.5150
 8107TIP3   OH245811   0.417   5.410  13.229  0.0701  1.0235 -1.0792
 8107TIP3    H145812   0.489   5.462  13.264  0.5961  0.4877 -1.3402
 8107TIP3    H245813   0.459   5.347  13.170 -0.3996 -0.3825  0.0038
 8108TIP3   OH245814   4.560   0.907   0.351 -0.3546  0.3806  0.1627
 8108TIP3    H145815   4.590   0.900   0.442 -1.0208 -0.3827  0.3332
 8108TIP3    H245816   4.588   0.825   0.310 -0.6872  0.4112 -0.1307
 8109TIP3   OH245817   1.474   1.965   2.383 -0.3630  0.0642 -0.1068
 8109TIP3    H145818   1.562   1.993   2.357 -0.8815  2.1249  0.1236
 8109TIP3    H245819   1.486   1.918   2.465  0.5537  0.0840 -0.2196
 8110TIP3   OH245820   2.796   2.677   5.794 -0.3848  0.4092 -0.1629
 8110TIP3    H145821   2.863   2.698   5.729  1.5122 -0.6962  1.3354
 8110TIP3    H245822   2.784   2.582   5.787 -1.6625  0.5490 -0.2377
 8111TIP3   OH245823   2.814   4.757  12.254 -0.2828 -0.4945 -0.6422
 8111TIP3    H145824   2.846   4.720  12.171 -0.0323  0.7869 -1.1394
 8111TIP3    H245825   2.872   4.719  12.320 -1.0238 -2.2111 -0.9278
 8112TIP3   OH245826   3.411   1.537  17.054  0.0340 -0.0602  0.1950
 8112TIP3    H145827   3.357   1.461  17.035  1.3258 -0.5867 -1.6693
 8112TIP3    H245828   3.348   1.609  17.066 -1.1320 -1.0929  0.4550
 8113TIP3   OH245829   6.465   5.799  12.283 -0.1455 -0.4658  0.2079
 8113TIP3    H145830   6.523   5.727  12.310  0.3775 -0.3697 -0.6252
 8113TIP3    H245831   6.379   5.758  12.275  0.3287 -1.2412 -1.2170
 8114TIP3   OH245832   5.367   4.104   0.302 -0.2250 -0.3071  0.0557
 8114TIP3    H145833   5.297   4.049   0.269  0.5057 -1.0261 -0.3270
 8114TIP3    H245834   5.413   4.135   0.224 -0.3358  0.4578  0.2861
 8115TIP3   OH245835   3.568   5.100  15.048  0.4845  0.6270 -0.9753
 8115TIP3    H145836   3.622   5.021  15.054  0.7843  0.9154  0.3535
 8115TIP3    H245837   3.557   5.128  15.138 -3.7832 -0.6297 -0.8948
 8116TIP3   OH245838   2.058   3.930  16.810  0.0343  0.0813  1.1702
 8116TIP3    H145839   2.078   3.895  16.896 -1.1398 -0.6951  1.1483
 8116TIP3    H245840   1.963   3.923  16.802  0.2406 -1.3749 -0.8068
 8117TIP3   OH245841   1.171   2.249   5.451  0.6803  0.3917  0.6314
 8117TIP3    H145842   1.094   2.296   5.484  0.2828  0.6694 -0.6258
 8117TIP3    H245843   1.187   2.182   5.517  0.1240  1.1056  1.5402
 8118TIP3   OH245844   5.708   0.708   2.707 -0.4535 -0.6154  0.2960
 8118TIP3    H145845   5.652   0.692   2.631  0.5093 -0.8156 -0.3887
 8118TIP3    H245846   5.648   0.740   2.775 -1.2558  0.1179 -0.7255
 8119TIP3   OH245847   4.042   2.463  13.169  0.1218  0.6907  0.0103
 8119TIP3    H145848   4.064   2.436  13.258  2.2396 -0.0021 -0.6606
 8119TIP3    H245849   4.052   2.384  13.116 -1.2727  1.0479 -0.8366
 8120TIP3   OH245850   1.826   3.142  16.687  0.5405  0.2613 -0.0717
 8120TIP3    H145851   1.790   3.211  16.631 -0.1557 -0.2519 -0.2803
 8120TIP3    H245852   1.919   3.163  16.696  0.5870  0.5387 -1.1368
 8121TIP3   OH245853   3.846   0.171  16.091 -0.5753  0.7963 -0.2474
 8121TIP3    H145854   3.794   0.234  16.040 -1.0275 -0.5423 -1.5004
 8121TIP3    H245855   3.782   0.112  16.130 -0.0672 -0.6341 -1.4872
 8122TIP3   OH245856   5.845   3.679  15.913  0.0105 -0.4409  0.1148
 8122TIP3    H145857   5.831   3.656  16.005  1.1738  0.4133  0.5200
 8122TIP3    H245858   5.926   3.633  15.889 -1.2327 -2.1616 -1.0567
 8123TIP3   OH245859   3.295   4.279  15.837 -0.3274  0.0518 -0.1505
 8123TIP3    H145860   3.272   4.198  15.791  0.9084  0.5081 -1.6672
 8123TIP3    H245861   3.262   4.349  15.780 -3.1016  0.7216  2.0342
 8124TIP3   OH245862   5.600   0.889   4.527  0.3728 -0.3474  0.2238
 8124TIP3    H145863   5.546   0.811   4.541  0.1898 -0.0572  1.2292
 8124TIP3    H245864   5.687   0.864   4.560  0.4997 -0.3506 -0.1058
 8125TIP3   OH245865   6.195   1.686  11.054 -0.0051  0.2458 -0.3073
 8125TIP3    H145866   6.230   1.712  10.969  1.3347 -2.0144 -0.5245
 8125TIP3    H245867   6.272   1.677  11.110 -0.4365 -2.0253  0.0290
 8126TIP3   OH245868   3.323   0.585   4.010  0.1748 -0.0390  0.0677
 8126TIP3    H145869   3.333   0.493   4.035 -1.3585 -0.3240 -0.2760
 8126TIP3    H245870   3.237   0.610   4.046  0.5628  1.2583  0.1408
 8127TIP3   OH245871   6.057   5.627  14.774  0.3334 -0.3298 -0.3384
 8127TIP3    H145872   6.095   5.706  14.813 -3.1844  1.4678 -0.1663
 8127TIP3    H245873   6.018   5.580  14.848  1.3779 -1.6704 -0.6067
 8128TIP3   OH245874   5.825   4.662  12.274  0.2754 -0.2896  0.1350
 8128TIP3    H145875   5.732   4.678  12.254 -0.0102  0.0754  1.6752
 8128TIP3    H245876   5.872   4.716  12.211 -0.5412 -0.5424 -0.7285
 8129TIP3   OH245877   1.492   0.485   1.543  0.0217 -0.3195  0.2880
 8129TIP3    H145878   1.530   0.569   1.570  1.4980 -0.8486 -0.0427
 8129TIP3    H245879   1.434   0.461   1.615 -2.2789  2.0482 -0.6058
 8130TIP3   OH245880   2.334   5.748   0.072 -0.0368 -0.4319  0.9269
 8130TIP3    H145881   2.423   5.758   0.105  0.0359 -1.2349  0.9977
 8130TIP3    H245882   2.335   5.665   0.023 -0.0712  0.8132 -1.3432
 8131TIP3   OH245883   4.066   3.344  10.645  0.4628  0.2963 -0.1235
 8131TIP3    H145884   4.021   3.282  10.587 -1.1878  3.5835 -2.7408
 8131TIP3    H245885   4.140   3.375  10.593 -0.7745  2.9815 -0.4863
 8132TIP3   OH245886   4.872   0.164  14.670 -0.0365  0.1007 -0.4668
 8132TIP3    H145887   4.779   0.145  14.679 -0.1477 -0.4045 -2.2414
 8132TIP3    H245888   4.891   0.146  14.578  1.4716  1.6914 -0.5256
 8133TIP3   OH245889   1.089   1.921  14.574 -0.2246 -0.0939  0.6727
 8133TIP3    H145890   1.061   1.991  14.634  0.5067  0.0496  0.8535
 8133TIP3    H245891   1.184   1.920  14.581 -0.0606  0.3804 -0.9862
 8134TIP3   OH245892   6.257   4.712   6.721 -0.0759  0.1887 -0.0482
 8134TIP3    H145893   6.264   4.792   6.773  3.6200 -1.4156  2.3590
 8134TIP3    H245894   6.296   4.734   6.637  0.1928  1.1428  0.3181
 8135TIP3   OH245895   3.571   6.062   2.743 -0.2288  0.1839  0.2527
 8135TIP3    H145896   3.479   6.046   2.721  0.1198 -2.4763  0.4205
 8135TIP3    H245897   3.617   6.052   2.659 -0.1209  2.5725 -0.0508
 8136TIP3   OH245898   1.284   1.273   6.121  0.8084 -0.4978 -0.0947
 8136TIP3    H145899   1.320   1.336   6.184  1.2197 -0.6804 -0.1427
 8136TIP3    H245900   1.190   1.278   6.133  0.8900 -0.6671  0.6818
 8137TIP3   OH245901   5.529   2.703   0.433 -0.1245 -0.0033  0.0726
 8137TIP3    H145902   5.456   2.665   0.481 -1.1460  0.9610 -0.6578
 8137TIP3    H245903   5.540   2.791   0.470 -0.6902  0.6127 -1.1621
 8138TIP3   OH245904   3.274   1.339  11.348  0.2525 -0.5793  0.0834
 8138TIP3    H145905   3.291   1.333  11.254 -0.7512  2.3056 -0.3999
 8138TIP3    H245906   3.181   1.360  11.354 -0.4668 -3.6967  1.9660
 8139TIP3   OH245907   4.865   5.240   2.033  0.0723 -0.9264  0.6226
 8139TIP3    H145908   4.804   5.250   2.106  0.6117  1.0181  0.8708
 8139TIP3    H245909   4.941   5.195   2.071 -0.5977 -2.0576  0.6596
 8140TIP3   OH245910   6.796   4.136   1.760  0.1846 -0.3125 -0.1603
 8140TIP3    H145911   6.877   4.089   1.741 -0.3948 -1.8946  1.1128
 8140TIP3    H245912   6.798   4.151   1.855 -0.8393 -0.0316 -0.1677
 8141TIP3   OH245913   0.538   3.766   5.687 -0.1951  0.0652  0.1158
 8141TIP3    H145914   0.553   3.790   5.778  1.9072  1.2352 -0.4665
 8141TIP3    H245915   0.518   3.848   5.643 -1.0486 -0.4641 -0.5252
 8142TIP3   OH245916   1.800   0.805   5.588 -0.0479  0.3289  0.8911
 8142TIP3    H145917   1.719   0.795   5.639  0.3681 -0.5177  1.4099
 8142TIP3    H245918   1.802   0.729   5.531 -0.8463  1.5994 -0.9307
 8143TIP3   OH245919   1.278   6.456   2.812  0.6287 -0.7200  0.2711
 8143TIP3    H145920   1.315   6.410   2.737 -1.2560  0.7101 -1.6773
 8143TIP3    H245921   1.307   6.547   2.800  2.0268 -0.8107  2.5043
 8144TIP3   OH245922   0.523   3.796   4.875 -0.2220 -0.1524 -0.0089
 8144TIP3    H145923   0.491   3.814   4.786 -1.1668 -0.4858  0.2484
 8144TIP3    H245924   0.591   3.731   4.864 -0.2014 -0.0502 -0.5076
 8145TIP3   OH245925   4.631   0.798  15.438  0.5035  0.2544 -0.0750
 8145TIP3    H145926   4.674   0.778  15.355 -0.2646  1.0912 -0.6831
 8145TIP3    H245927   4.703   0.807  15.501  1.2214  1.4215 -1.0237
 8146TIP3   OH245928   0.437   0.201   4.504  0.3730  0.1078 -0.0254
 8146TIP3    H145929   0.494   0.274   4.529 -0.0169  0.1507  0.7597
 8146TIP3    H245930   0.460   0.183   4.412  0.5704  1.1167 -0.1849
 8147TIP3   OH245931   4.262   1.468   1.701 -0.3217  0.1448 -0.0107
 8147TIP3    H145932   4.278   1.382   1.661 -0.9578 -0.3265  0.7182
 8147TIP3    H245933   4.314   1.529   1.648  0.0711 -0.6724 -0.5933
 8148TIP3   OH245934   5.838   6.829   3.636  0.1987 -0.4875 -0.4202
 8148TIP3    H145935   5.788   6.822   3.717  1.4369 -1.8846  0.2817
 8148TIP3    H245936   5.915   6.881   3.659 -0.5143  0.9972 -1.2886
 8149TIP3   OH245937   6.412   2.641   0.996  0.4392 -0.0969  0.2275
 8149TIP3    H145938   6.378   2.600   0.916 -0.6797 -0.4655  0.8528
 8149TIP3    H245939   6.431   2.731   0.971 -0.2973 -0.0918 -0.3637
 8150TIP3   OH245940   3.295   0.823   0.370 -0.1339  0.5470 -0.2122
 8150TIP3    H145941   3.345   0.779   0.439  0.0786  1.0487 -0.0415
 8150TIP3    H245942   3.337   0.908   0.360 -0.6035  0.7551 -0.4717
 8151TIP3   OH245943   2.062   1.515   2.661  0.3595 -0.0843  0.5126
 8151TIP3    H145944   2.074   1.572   2.585 -1.6257 -0.3915 -0.0773
 8151TIP3    H245945   1.993   1.454   2.635  1.2024 -1.6551  1.7668
 8152TIP3   OH245946   0.029   2.456   0.479  0.1015 -0.4055 -0.2271
 8152TIP3    H145947   0.115   2.414   0.475  0.8892  1.1066  0.1518
 8152TIP3    H245948   0.008   2.457   0.573  0.2754  0.3905 -0.1941
 8153TIP3   OH245949   1.000   1.587  16.815  0.3905  0.8880  0.4223
 8153TIP3    H145950   0.969   1.536  16.741 -0.1329  1.7702  0.0172
 8153TIP3    H245951   1.075   1.538  16.849 -1.1926 -1.1347  1.2122
 8154TIP3   OH245952   0.203   5.806   2.948 -0.2082  0.0875 -0.1852
 8154TIP3    H145953   0.278   5.790   3.005  0.8751 -1.6256 -1.9739
 8154TIP3    H245954   0.213   5.897   2.920  0.8532  0.0540  0.0644
 8155TIP3   OH245955   1.462   2.449   2.234 -0.0724 -0.2081 -0.0494
 8155TIP3    H145956   1.537   2.499   2.201  0.0503 -0.5552 -0.3062
 8155TIP3    H245957   1.413   2.511   2.287  1.7403 -0.6045  2.2629
 8156TIP3   OH245958   4.054   0.537  15.191 -0.3209  0.2350 -0.0483
 8156TIP3    H145959   4.136   0.573  15.155 -0.9793  0.9817 -0.8451
 8156TIP3    H245960   4.083   0.476  15.259  0.8680  1.8218  0.9331
 8157TIP3   OH245961   4.806   6.297   1.215  0.1176  0.0326  0.0082
 8157TIP3    H145962   4.780   6.383   1.182 -0.5102  0.0684  0.5959
 8157TIP3    H245963   4.726   6.245   1.214  0.9411 -1.4125 -2.8957
 8158TIP3   OH245964   4.193   0.102  13.756  0.0146  0.1365 -0.1083
 8158TIP3    H145965   4.152   0.189  13.759  3.5764  2.0241 -0.4016
 8158TIP3    H245966   4.196   0.080  13.663 -2.3050 -1.1766  0.0510
 8159TIP3   OH245967   1.210   0.821   3.470 -0.3868 -0.6657 -0.3282
 8159TIP3    H145968   1.158   0.890   3.512 -0.6060 -0.3325 -1.1186
 8159TIP3    H245969   1.260   0.781   3.541 -0.9844 -0.3291  0.2895
 8160TIP3   OH245970   0.880   0.897   2.601  0.4616  0.0242  0.0828
 8160TIP3    H145971   0.807   0.947   2.564  2.1700  1.4202 -1.6058
 8160TIP3    H245972   0.874   0.811   2.559 -0.4915 -0.0594  0.3654
 8161TIP3   OH245973   2.269   3.172  11.347 -0.1063  0.5058  0.0063
 8161TIP3    H145974   2.214   3.122  11.407  0.3823 -0.2078 -0.1259
 8161TIP3    H245975   2.305   3.244  11.400  1.3284 -0.8303  0.9284
 8162TIP3   OH245976   4.304   3.184  14.333  0.0536  0.4757  0.0826
 8162TIP3    H145977   4.226   3.225  14.296 -0.7999 -0.7769  0.4292
 8162TIP3    H245978   4.271   3.113  14.387  1.4726 -0.5148 -0.2912
 8163TIP3   OH245979   4.158   0.841   2.022 -0.2070 -0.2547 -0.2475
 8163TIP3    H145980   4.149   0.892   2.102 -1.3080 -0.8119  0.0110
 8163TIP3    H245981   4.252   0.835   2.007 -0.0230  3.0106 -1.0869
 8164TIP3   OH245982   5.539   6.031   4.941 -0.1868  0.9485  0.5154
 8164TIP3    H145983   5.592   5.968   4.893 -1.1694 -0.1626  0.8399
 8164TIP3    H245984   5.449   6.012   4.914 -0.7554  0.4324  2.5978
 8165TIP3   OH245985   2.374   0.858  15.770 -0.3494  0.1975  0.2139
 8165TIP3    H145986   2.427   0.809  15.707 -0.3734  1.9670 -1.2735
 8165TIP3    H245987   2.300   0.891  15.718 -1.8812 -0.5634  1.8053
 8166TIP3   OH245988   0.106   0.454   5.979 -0.7520 -0.0689  0.3843
 8166TIP3    H145989   0.038   0.501   6.028 -1.2433 -2.6900  2.4469
 8166TIP3    H245990   0.186   0.468   6.029 -0.7386 -0.7142  0.5525
 8167TIP3   OH245991   3.436   1.761  12.070  0.0073 -0.7917 -0.3204
 8167TIP3    H145992   3.385   1.818  12.128  0.5758 -0.0912 -0.5022
 8167TIP3    H245993   3.494   1.821  12.022  1.2169 -1.5966  0.0987
 8168TIP3   OH245994   1.069   5.998   1.832 -0.2938 -0.3739  0.3733
 8168TIP3    H145995   0.997   5.952   1.789 -0.7047  1.7279 -1.3482
 8168TIP3    H245996   1.144   5.986   1.773  0.1632 -0.6110  0.9901
 8169TIP3   OH245997   4.819   0.770  11.361  0.3471  0.5310 -0.6271
 8169TIP3    H145998   4.854   0.743  11.445 -0.8163 -1.1767 -0.6309
 8169TIP3    H245999   4.895   0.772  11.302  0.6181 -2.6962 -0.5546
 8170TIP3   OH246000   4.647   5.908  13.028 -0.4479  0.8923  0.4959
 8170TIP3    H146001   4.701   5.980  13.061 -0.8722  0.5812  1.9067
 8170TIP3    H246002   4.710   5.838  13.010 -0.0851  1.4333 -0.4691
 8171TIP3   OH246003   4.530   3.381  15.275 -0.6036  0.1409 -0.8592
 8171TIP3    H146004   4.603   3.321  15.262  1.0636  1.5783  1.2062
 8171TIP3    H246005   4.470   3.335  15.334 -1.4910 -1.0576 -2.5883
 8172TIP3   OH246006   0.495   5.586  16.571  0.0480  0.8389  0.1385
 8172TIP3    H146007   0.589   5.604  16.581  0.3923  0.1923 -1.5738
 8172TIP3    H246008   0.464   5.570  16.659  2.0987 -1.4793  0.5396
 8173TIP3   OH246009   1.065   2.655  12.902 -0.0738  0.3682 -0.5200
 8173TIP3    H146010   1.022   2.579  12.940  1.3174 -0.1641  0.0534
 8173TIP3    H246011   1.042   2.727  12.960  1.1037 -0.2204  0.7175
 8174TIP3   OH246012   3.043   0.073  10.568  0.2309  0.2113  0.9408
 8174TIP3    H146013   3.135   0.055  10.551 -0.4362 -1.1485 -1.7009
 8174TIP3    H246014   3.021   0.017  10.643  1.4136  0.1887  1.2824
 8175TIP3   OH246015   0.680   1.147  11.577  0.1852 -0.2413  0.2610
 8175TIP3    H146016   0.657   1.075  11.637  0.1445 -0.3454  0.1210
 8175TIP3    H246017   0.768   1.173  11.604 -0.5004  0.8855  1.5127
 8176TIP3   OH246018   0.277   1.990  13.282 -0.3676 -0.1599  0.2195
 8176TIP3    H146019   0.303   2.080  13.299 -2.0525  0.3500  0.2734
 8176TIP3    H246020   0.356   1.949  13.245  0.2803  1.4661 -0.3156
 8177TIP3   OH246021   1.783   4.720  17.071  0.1490  0.4612 -0.4728
 8177TIP3    H146022   1.820   4.775  17.003 -1.1998  0.6819 -1.0575
 8177TIP3    H246023   1.787   4.774  17.150 -1.3307  1.4948 -1.0773
 8178TIP3   OH246024   2.082   2.518   2.457  0.1152 -0.5217  0.0824
 8178TIP3    H146025   2.081   2.468   2.376  3.2981 -0.6486 -0.0143
 8178TIP3    H246026   2.093   2.453   2.526  0.7657 -0.2215  0.2759
 8179TIP3   OH246027   0.235   5.514   1.914  0.0162  0.1902 -0.7953
 8179TIP3    H146028   0.311   5.565   1.887  0.8927 -0.5721  0.1430
 8179TIP3    H246029   0.259   5.423   1.896  0.0356 -0.2119  1.0205
 8180TIP3   OH246030   2.340   1.772   3.354  0.0823 -0.5174 -0.3490
 8180TIP3    H146031   2.315   1.718   3.279  1.0469 -0.8406 -0.4516
 8180TIP3    H246032   2.424   1.737   3.382  0.8467  1.0569 -0.5484
 8181TIP3   OH246033   3.277   1.830  13.429  0.1209  0.2193  0.3348
 8181TIP3    H146034   3.257   1.877  13.510  0.6171  1.7174 -0.3911
 8181TIP3    H246035   3.193   1.795  13.400 -0.3432  1.0667  0.6401
 8182TIP3   OH246036   6.462   0.458  13.392 -0.5482  0.3289 -0.4126
 8182TIP3    H146037   6.501   0.489  13.310  1.6082 -0.5501  0.2003
 8182TIP3    H246038   6.423   0.536  13.431  0.4517  1.2462 -1.1838
 8183TIP3   OH246039   2.461   6.514  16.936  0.3248  0.7075  0.5951
 8183TIP3    H146040   2.431   6.602  16.913  0.0497  0.8924  1.5961
 8183TIP3    H246041   2.405   6.455  16.886  0.6549  1.1072 -0.2467
 8184TIP3   OH246042   0.498   3.612   0.315 -0.0999 -0.2504  0.0438
 8184TIP3    H146043   0.535   3.671   0.381 -1.4449 -0.1706  0.7535
 8184TIP3    H246044   0.529   3.525   0.342 -1.6516 -0.3846  1.5675
 8185TIP3   OH246045   6.827   4.320  17.165  0.6259  0.9589  0.3848
 8185TIP3    H146046   6.793   4.298  17.079  0.2224  2.0577  0.2474
 8185TIP3    H246047   6.915   4.283  17.167 -0.0753 -0.8212  0.2699
 8186TIP3   OH246048   4.025   6.807  16.975  0.2855  0.8191  0.3480
 8186TIP3    H146049   4.111   6.767  16.964  0.9249  2.1003  0.4307
 8186TIP3    H246050   3.998   6.833  16.887  0.3814  1.1950  0.4279
 8187TIP3   OH246051   3.554   4.247  15.450 -0.1207  0.4840  0.1367
 8187TIP3    H146052   3.645   4.271  15.469 -0.6627  0.7741  2.7280
 8187TIP3    H246053   3.542   4.272  15.358  1.7967  2.4232  0.3124
 8188TIP3   OH246054   4.974   2.823   0.033  0.3459  0.5345  0.0448
 8188TIP3    H146055   5.051   2.768   0.051  1.5749  2.0454 -0.4481
 8188TIP3    H246056   4.972   2.885   0.105 -0.7270  0.2152  0.3075
 8189TIP3   OH246057   3.616   1.951  15.213 -0.1818  0.8657  0.2292
 8189TIP3    H146058   3.520   1.951  15.219 -0.1307  1.2316  1.2442
 8189TIP3    H246059   3.645   1.957  15.304  0.8058  1.0640 -0.0958
 8190TIP3   OH246060   5.107   1.319   1.436 -0.0048 -0.1283  0.2908
 8190TIP3    H146061   5.044   1.248   1.445  1.0089 -1.4383 -2.0913
 8190TIP3    H246062   5.187   1.284   1.475  0.1492  0.2262  0.2962
 8191TIP3   OH246063   2.069   6.344   4.108 -0.3269  0.2902 -0.4105
 8191TIP3    H146064   1.991   6.382   4.149  0.6646  0.6419  1.2596
 8191TIP3    H246065   2.068   6.252   4.133 -0.2228  0.2915 -0.3992
 8192TIP3   OH246066   0.345   2.898  12.047 -0.0852 -0.4039 -0.3817
 8192TIP3    H146067   0.256   2.863  12.050  0.1300 -1.1802 -1.8024
 8192TIP3    H246068   0.398   2.826  12.011  1.6316 -0.8885  2.7845
 8193TIP3   OH246069   5.321   1.557  13.794 -0.5341  0.4276 -0.9220
 8193TIP3    H146070   5.226   1.545  13.792 -0.4426 -0.9651  0.8794
 8193TIP3    H246071   5.334   1.649  13.816 -1.4434  0.6081 -1.1190
 8194TIP3   OH246072   2.173   6.636  14.652  0.2705 -0.3984 -0.1264
 8194TIP3    H146073   2.265   6.613  14.644  0.8042  1.2874  0.7175
 8194TIP3    H246074   2.148   6.667  14.564  0.1200 -2.0375 -0.6949
 8195TIP3   OH246075   5.804   0.932  14.890 -0.3188 -0.8518 -0.0058
 8195TIP3    H146076   5.845   0.972  14.813  0.7647 -0.8451  0.5590
 8195TIP3    H246077   5.866   0.865  14.919 -0.7904 -0.9689  0.7760
 8196TIP3   OH246078   3.863   4.766   5.767  0.3629  0.3822 -0.0596
 8196TIP3    H146079   3.873   4.700   5.698 -1.7586  0.0291 -0.1019
 8196TIP3    H246080   3.808   4.724   5.833 -0.6434  1.9140  0.1307
 8197TIP3   OH246081   1.433   1.664  15.922 -0.6329  0.1377  0.5147
 8197TIP3    H146082   1.416   1.658  16.016 -0.9152  0.3443  0.4787
 8197TIP3    H246083   1.371   1.602  15.883  0.1070 -0.6374  0.5232
 8198TIP3   OH246084   0.624   1.874  12.404 -0.0009 -0.1229 -0.0544
 8198TIP3    H146085   0.657   1.847  12.490  1.2140  1.3181 -0.0070
 8198TIP3    H246086   0.699   1.862  12.345 -0.6037 -0.4209 -0.7762
 8199TIP3   OH246087   1.549   1.119   1.943  0.1243 -0.0747 -0.4081
 8199TIP3    H146088   1.545   1.033   1.985  0.0327  0.5098  0.8352
 8199TIP3    H246089   1.596   1.174   2.006 -0.8286  1.0674 -0.6692
 8200TIP3   OH246090   1.096   4.306   5.905  0.3808 -0.2356 -0.4618
 8200TIP3    H146091   1.022   4.264   5.862 -0.5727  0.4411  0.4413
 8200TIP3    H246092   1.078   4.400   5.897  0.3371 -0.0875  1.0863
 8201TIP3   OH246093   0.082   0.216  10.209  0.0120 -0.0892 -0.2039
 8201TIP3    H146094   0.016   0.245  10.271  0.2872 -1.5192  0.8015
 8201TIP3    H246095   0.163   0.210  10.259 -0.1339 -3.0951 -0.1091
 8202TIP3   OH246096   4.471   2.819  16.954 -0.1583  0.2889  0.1696
 8202TIP3    H146097   4.457   2.912  16.970 -0.0325  0.3595 -0.1249
 8202TIP3    H246098   4.566   2.809  16.951 -0.1748  0.1979 -0.0693
 8203TIP3   OH246099   2.561   1.445  12.603  0.0966 -0.2619  0.5371
 8203TIP3    H146100   2.479   1.447  12.653 -0.3247 -1.1754 -0.0816
 8203TIP3    H246101   2.602   1.362  12.629  0.7101  0.0661  0.6448
 8204TIP3   OH246102   0.156   4.789  13.492 -0.7475 -0.5047  0.3774
 8204TIP3    H146103   0.099   4.732  13.542 -0.3739 -0.3466  0.9951
 8204TIP3    H246104   0.207   4.730  13.436 -1.8433 -0.6131 -0.5459
 8205TIP3   OH246105   0.275   1.328   5.963 -0.1008 -0.4727  0.3669
 8205TIP3    H146106   0.369   1.317   5.954  0.0028 -0.3187  1.2100
 8205TIP3    H246107   0.252   1.394   5.897  0.4515 -0.1833  0.4655
 8206TIP3   OH246108   1.663   4.223  12.197 -0.0580  0.0305  0.1731
 8206TIP3    H146109   1.605   4.246  12.270 -1.6274 -1.5138 -0.5032
 8206TIP3    H246110   1.631   4.138  12.167  0.9355  0.3341 -1.9395
 8207TIP3   OH246111   4.711   3.219  12.535  0.7581  0.3172 -0.2478
 8207TIP3    H146112   4.745   3.253  12.618 -1.3063  0.0966  0.7785
 8207TIP3    H246113   4.633   3.272  12.518  1.6788  1.0530 -2.6441
 8208TIP3   OH246114   4.141   3.556   2.568 -0.2744  0.3666 -0.7578
 8208TIP3    H146115   4.157   3.623   2.635 -0.3461 -0.4991  0.1467
 8208TIP3    H246116   4.224   3.550   2.521  0.3823 -0.3029  0.4471
 8209TIP3   OH246117   0.059   0.266  12.360  0.3856 -0.1431 -0.1648
 8209TIP3    H146118   0.015   0.343  12.325  0.0002 -0.1933  0.2004
 8209TIP3    H246119   0.152   0.289  12.359  0.2447  0.4861  0.3179
 8210TIP3   OH246120   4.263   0.173  11.299 -0.7156 -0.4324 -0.7185
 8210TIP3    H146121   4.223   0.241  11.245  0.1379 -0.2423 -1.1274
 8210TIP3    H246122   4.192   0.112  11.317 -0.9222 -0.7385 -2.4336
 8211TIP3   OH246123   0.505   5.105  13.909 -0.1128  0.0376 -0.6250
 8211TIP3    H146124   0.423   5.097  13.958 -0.5503  2.8820 -0.6979
 8211TIP3    H246125   0.481   5.088  13.818 -0.0545 -1.6788 -0.3373
 8212TIP3   OH246126   6.034   1.481   0.490  0.1280 -0.2245  0.7707
 8212TIP3    H146127   6.115   1.488   0.541 -0.3976  2.2794  1.4106
 8212TIP3    H246128   5.968   1.456   0.555 -0.1755  1.0169  0.9706
 8213TIP3   OH246129   0.893   5.533  16.237 -0.2939 -0.1416  0.0847
 8213TIP3    H146130   0.919   5.624  16.224  0.9831 -0.3493  0.9502
 8213TIP3    H246131   0.800   5.531  16.215 -0.6860  1.6565  1.3200
 8214TIP3   OH246132   2.196   1.801   3.884  0.1296  0.0212  0.8401
 8214TIP3    H146133   2.209   1.842   3.799  0.6067 -0.3499  0.7299
 8214TIP3    H246134   2.233   1.863   3.947  0.7943 -0.2039  0.6794
 8215TIP3   OH246135   1.278   5.551   2.617 -0.1370 -0.3661 -0.1350
 8215TIP3    H146136   1.246   5.626   2.668  1.1954  1.7034 -2.1197
 8215TIP3    H246137   1.372   5.567   2.608 -0.0881 -1.4076 -1.9498
 8216TIP3   OH246138   1.932   6.528  16.280 -0.4609  0.3907 -0.0150
 8216TIP3    H146139   1.865   6.461  16.295 -1.2041  0.7432 -1.5120
 8216TIP3    H246140   1.927   6.546  16.186  2.9839 -0.8727 -0.5721
 8217TIP3   OH246141   6.226   0.105   5.574  0.2070 -0.2838 -0.3517
 8217TIP3    H146142   6.201   0.055   5.497 -0.3027  0.0323 -0.3921
 8217TIP3    H246143   6.322   0.102   5.575  0.2279 -0.0169 -1.1803
 8218TIP3   OH246144   4.967   1.625   2.797  0.4021 -0.4997  0.1206
 8218TIP3    H146145   4.983   1.574   2.877  0.0217 -0.0896  0.4683
 8218TIP3    H246146   5.045   1.680   2.788 -0.0243  0.2650  0.8554
 8219TIP3   OH246147   1.018   6.637   0.510 -0.4320  0.4303 -0.5057
 8219TIP3    H146148   0.967   6.594   0.578  1.6304 -2.1798 -0.4626
 8219TIP3    H246149   1.087   6.684   0.557 -1.3586  2.0216 -0.6698
 8220TIP3   OH246150   0.258   6.603  13.304  0.9348 -0.0238  0.1875
 8220TIP3    H146151   0.239   6.582  13.213  1.0452 -2.7480  0.6895
 8220TIP3    H246152   0.173   6.624  13.343  0.6004 -0.7030 -0.1541
 8221TIP3   OH246153   3.699   2.022  11.338  0.1574 -0.2954 -0.4218
 8221TIP3    H146154   3.737   1.963  11.273  0.4107 -0.5337 -0.0566
 8221TIP3    H246155   3.648   1.965  11.396  0.5794 -0.1898  0.0600
 8222TIP3   OH246156   3.902   4.841  15.400  0.0579 -0.0865 -0.3204
 8222TIP3    H146157   3.829   4.796  15.442 -1.7623  2.3949 -0.6245
 8222TIP3    H246158   3.921   4.789  15.323 -0.0712 -1.8223  0.7716
 8223TIP3   OH246159   5.912   6.023  15.039  0.2026 -1.0049  0.1572
 8223TIP3    H146160   5.924   6.086  15.110 -1.1910 -0.6304  0.0939
 8223TIP3    H246161   5.988   5.966  15.045  1.6374  0.7867  0.0860
 8224TIP3   OH246162   1.310   0.022   3.066  0.2298 -0.6085  0.3321
 8224TIP3    H146163   1.327   0.111   3.098  2.2450 -0.6916 -0.3818
 8224TIP3    H246164   1.325  -0.035   3.141  0.0441 -0.4419  0.4968
 8225TIP3   OH246165   6.347   2.114   3.483 -0.1869  0.1466 -0.4642
 8225TIP3    H146166   6.311   2.193   3.521 -0.2979 -0.6645  1.1723
 8225TIP3    H246167   6.426   2.144   3.437 -0.0214  1.1605  0.4362
 8226TIP3   OH246168   3.671   0.302   0.069  0.3080  0.2012  0.0446
 8226TIP3    H146169   3.725   0.226   0.046 -1.3494 -0.9502 -0.3029
 8226TIP3    H246170   3.733   0.371   0.089  1.9324 -1.6038  1.6852
 8227TIP3   OH246171   6.338   6.148  16.947  0.0892 -0.0032  0.0258
 8227TIP3    H146172   6.316   6.228  16.995  0.7919 -0.4515  1.1478
 8227TIP3    H246173   6.328   6.171  16.855  0.7658  1.5198  0.3102
 8228TIP3   OH246174   5.563   5.636   4.687  0.1883  0.1658  0.5727
 8228TIP3    H146175   5.481   5.665   4.647 -0.2549 -0.1354  1.2494
 8228TIP3    H246176   5.581   5.551   4.647 -0.5167 -0.3647  1.3749
 8229TIP3   OH246177   2.812   0.335  13.890  0.4223  0.2463  0.4317
 8229TIP3    H146178   2.883   0.311  13.949 -0.6353  1.2443  2.1842
 8229TIP3    H246179   2.745   0.269  13.904  1.1347 -1.0129 -1.6225
 8230TIP3   OH246180   2.750   6.626   2.307 -0.0207 -0.6716  0.3565
 8230TIP3    H146181   2.707   6.583   2.382 -0.0626 -0.2270  0.5895
 8230TIP3    H246182   2.842   6.602   2.316  0.0683 -0.1603  0.8745
 8231TIP3   OH246183   4.489   1.385   2.942 -0.2184 -0.0286 -0.1503
 8231TIP3    H146184   4.468   1.303   2.898 -1.5920  0.4683 -0.4520
 8231TIP3    H246185   4.584   1.393   2.932  0.0147 -1.7893  0.2846
 8232TIP3   OH246186   4.321   6.469  13.814  0.1885 -0.1907  0.4055
 8232TIP3    H146187   4.290   6.514  13.893  1.7819  1.8359 -0.0370
 8232TIP3    H246188   4.388   6.409  13.846  0.8928  0.6855  0.6113
 8233TIP3   OH246189   5.960   4.241  16.620 -0.0879  0.0527 -0.3490
 8233TIP3    H146190   5.885   4.181  16.627  0.9917 -1.4666 -1.2798
 8233TIP3    H246191   6.026   4.204  16.678 -0.0959  1.5109  0.6357
 8234TIP3   OH246192   2.476   4.267   2.596  0.3770  0.2009 -0.0771
 8234TIP3    H146193   2.531   4.195   2.564 -0.3737  0.1113 -1.2449
 8234TIP3    H246194   2.392   4.226   2.615  0.5280  0.4325  1.2007
 8235TIP3   OH246195   2.861   2.551   1.042  0.4915  0.5953 -0.1368
 8235TIP3    H146196   2.805   2.474   1.042  0.3280  0.6503  2.1730
 8235TIP3    H246197   2.886   2.562   0.950 -0.0263 -1.7777 -0.6395
 8236TIP3   OH246198   6.076   3.984   0.371  0.8260  0.1702  0.4604
 8236TIP3    H146199   6.097   3.960   0.281  0.5153 -0.5794  0.5769
 8236TIP3    H246200   6.160   3.993   0.414  0.9609 -0.3367  0.3098
 8237TIP3   OH246201   4.902   4.110  14.271 -0.3280  0.6410 -0.4943
 8237TIP3    H146202   4.995   4.111  14.294 -0.1117  0.0337 -1.3147
 8237TIP3    H246203   4.857   4.130  14.353  0.4319 -0.9857  0.3588
 8238TIP3   OH246204   3.523   1.817   5.441 -0.1312  0.5232 -0.3863
 8238TIP3    H146205   3.465   1.835   5.367 -0.8908 -0.6286 -0.0886
 8238TIP3    H246206   3.557   1.730   5.424  1.8934  1.3269 -0.7693
 8239TIP3   OH246207   1.892   6.511  15.991  0.3173  0.2327  0.1817
 8239TIP3    H146208   1.974   6.507  15.942 -0.2593 -0.7684 -0.7124
 8239TIP3    H246209   1.877   6.421  16.020  0.5428  0.7534  2.0697
 8240TIP3   OH246210   0.965   6.812   3.797 -0.2606 -0.2380  0.1463
 8240TIP3    H146211   0.885   6.796   3.847  0.9105 -2.3193  1.5060
 8240TIP3    H246212   1.030   6.837   3.863  0.5320  0.1727 -0.7657
 8241TIP3   OH246213   3.367   6.045   4.799 -0.5876  0.1219 -0.0364
 8241TIP3    H146214   3.401   6.112   4.858 -3.2795  0.5765  1.1461
 8241TIP3    H246215   3.418   6.055   4.719  0.7841  1.8810  0.9967
 8242TIP3   OH246216   4.613   0.815   3.422  0.1027 -0.3230  0.5375
 8242TIP3    H146217   4.580   0.747   3.363 -0.3385  1.0713 -0.9019
 8242TIP3    H246218   4.549   0.818   3.493  0.3450 -1.6638  0.8295
 8243TIP3   OH246219   6.386   6.363  13.659 -1.2853  0.0911  0.0726
 8243TIP3    H146220   6.412   6.404  13.742 -1.9553  1.6203 -0.4486
 8243TIP3    H246221   6.415   6.424  13.592 -2.2292 -0.3374 -0.7420
 8244TIP3   OH246222   4.935   0.258   3.023 -0.0677  0.1097  0.1292
 8244TIP3    H146223   5.028   0.235   3.036 -0.1514 -0.2845  0.0568
 8244TIP3    H246224   4.895   0.243   3.108  0.1361  1.3074  0.4487
 8245TIP3   OH246225   0.759   5.488  13.650  0.1845 -0.7902  0.6422
 8245TIP3    H146226   0.708   5.470  13.729  0.6770  1.5468  1.5396
 8245TIP3    H246227   0.831   5.543  13.679  1.0955 -0.9285 -1.2412
 8246TIP3   OH246228   5.210   5.583  15.072  0.1926  0.0570  0.4021
 8246TIP3    H146229   5.132   5.608  15.022  0.1579 -0.5534  0.1360
 8246TIP3    H246230   5.202   5.630  15.155 -0.6055 -0.2138  0.4895
 8247TIP3   OH246231   0.617   3.617   5.148 -0.3636  0.0625  0.1802
 8247TIP3    H146232   0.634   3.563   5.225 -0.9999 -0.6697 -0.1827
 8247TIP3    H246233   0.615   3.555   5.075 -1.2521  0.5538 -0.2235
 8248TIP3   OH246234   0.198   3.069  10.354  0.0613  0.1723  0.0521
 8248TIP3    H146235   0.176   3.118  10.434 -1.1268  0.2084 -0.2847
 8248TIP3    H246236   0.235   2.987  10.387  2.0810  1.2311  0.6226
 8249TIP3   OH246237   0.547   4.163  11.452 -0.0139 -0.0654 -0.3194
 8249TIP3    H146238   0.533   4.072  11.478 -0.4486 -0.6330 -2.3321
 8249TIP3    H246239   0.638   4.180  11.472 -0.7789  0.3123  3.4832
 8250TIP3   OH246240   2.182   3.267   2.391 -0.0213 -0.3907  0.6507
 8250TIP3    H146241   2.165   3.185   2.438  2.2436 -1.5717 -0.4288
 8250TIP3    H246242   2.193   3.240   2.300 -0.8156  1.3680 -0.0015
 8251TIP3   OH246243   5.160   5.902  14.356  0.1122 -0.2809  0.5850
 8251TIP3    H146244   5.074   5.927  14.390 -0.4692 -0.9261 -0.3513
 8251TIP3    H246245   5.201   5.985  14.331 -1.2662 -0.0932 -1.2788
 8252TIP3   OH246246   3.755   1.682   5.598  0.1451 -0.6715 -0.0466
 8252TIP3    H146247   3.716   1.721   5.676  0.0807 -1.0697  0.1228
 8252TIP3    H246248   3.716   1.594   5.593  0.3869 -0.7632 -0.3473
 8253TIP3   OH246249   1.857   3.378  17.168  0.6174 -0.7454 -0.1771
 8253TIP3    H146250   1.916   3.418  17.105 -0.8424  0.0112 -1.1291
 8253TIP3    H246251   1.894   3.292  17.185  0.5471 -1.3711 -2.8377
 8254TIP3   OH246252   3.129   2.429   5.923  0.1590  0.3031  0.0404
 8254TIP3    H146253   3.095   2.424   5.834 -0.9834 -0.9103  0.4962
 8254TIP3    H246254   3.069   2.373   5.974  2.2696 -1.1175  1.0992
 8255TIP3   OH246255   2.641   3.392   3.682  0.9221 -0.0135 -0.4723
 8255TIP3    H146256   2.584   3.402   3.605  1.0574 -0.7720 -0.6790
 8255TIP3    H246257   2.729   3.408   3.648  0.9764 -0.2931 -0.4624
 8256TIP3   OH246258   2.672   1.087   3.221 -0.1186 -0.3118  0.7834
 8256TIP3    H146259   2.620   1.113   3.145 -0.7063  2.1254  1.9309
 8256TIP3    H246260   2.726   1.015   3.189 -1.5415 -0.4828 -1.4661
 8257TIP3   OH246261   1.655   6.332  14.309  0.1452  0.0850 -0.0622
 8257TIP3    H146262   1.689   6.369  14.228  1.6112 -0.7061  0.1588
 8257TIP3    H246263   1.629   6.242  14.285  1.8827 -0.6383  0.5969
 8258TIP3   OH246264   4.453   6.373  12.788  0.1950 -0.4255 -0.0015
 8258TIP3    H146265   4.428   6.299  12.842 -1.2329 -0.6371 -0.9000
 8258TIP3    H246266   4.373   6.397  12.742  1.4102 -0.4991 -2.3026
 8259TIP3   OH246267   1.206   5.058  16.403  0.5491  0.3676  0.1848
 8259TIP3    H146268   1.215   5.003  16.325 -2.1579  0.4996 -0.3438
 8259TIP3    H246269   1.291   5.056  16.445  1.4154 -1.6403 -1.5177
 8260TIP3   OH246270   4.429   1.836  11.089  0.4389 -0.2057  0.7151
 8260TIP3    H146271   4.507   1.881  11.057  1.0907 -1.9900 -0.3392
 8260TIP3    H246272   4.413   1.875  11.175  2.7436 -0.0715  1.1595
 8261TIP3   OH246273   2.931   1.890  13.288  0.0407 -0.3965  0.0725
 8261TIP3    H146274   2.841   1.901  13.257  0.0344 -0.3007  0.1227
 8261TIP3    H246275   2.978   1.965  13.252  0.0324 -0.2837  0.2960
 8262TIP3   OH246276   6.268   4.369  12.706 -0.0202  0.0945  0.0048
 8262TIP3    H146277   6.331   4.298  12.719 -0.0052  0.0804 -0.1440
 8262TIP3    H246278   6.306   4.444  12.751  0.0672  0.0667 -0.0234
 8263TIP3   OH246279   0.339   2.440  15.444  0.0606  0.1531  0.3211
 8263TIP3    H146280   0.411   2.496  15.415 -0.9511  1.4611  0.2661
 8263TIP3    H246281   0.378   2.383  15.511  0.5719  2.8212  2.4767
 8264TIP3   OH246282   1.192   0.889   5.272  0.0364  0.1182  0.9303
 8264TIP3    H146283   1.204   0.980   5.243  2.2579 -0.1509  0.8009
 8264TIP3    H246284   1.271   0.845   5.243 -1.6898 -2.2993 -0.4311
 8265TIP3   OH246285   6.490   3.410  11.832  0.4936  0.4727 -0.1335
 8265TIP3    H146286   6.463   3.413  11.924  1.7913 -1.5292  0.3860
 8265TIP3    H246287   6.569   3.464  11.829  1.7189 -1.2070  0.4771
 8266TIP3   OH246288   3.655   1.907  14.713 -0.5008  0.5633  0.0262
 8266TIP3    H146289   3.657   1.861  14.797 -0.8731 -0.6335 -0.5958
 8266TIP3    H246290   3.715   1.980  14.725  0.4442 -0.3133  0.9294
 8267TIP3   OH246291   6.791   5.871   0.544 -0.0038 -0.2776 -0.2794
 8267TIP3    H146292   6.829   5.848   0.459  0.9406 -0.0692  0.0792
 8267TIP3    H246293   6.735   5.946   0.525  2.0574  1.3125 -0.3436
 8268TIP3   OH246294   6.417   5.250   3.722 -0.4956 -0.2826  0.5768
 8268TIP3    H146295   6.473   5.284   3.792 -0.9967 -0.4505  1.0618
 8268TIP3    H246296   6.472   5.186   3.677  0.6987  1.5456 -0.7392
 8269TIP3   OH246297   0.012   0.186   3.125 -0.2407 -0.4421 -0.1991
 8269TIP3    H146298  -0.038   0.197   3.044 -1.9332  2.5173  1.0894
 8269TIP3    H246299  -0.029   0.246   3.187  2.7594 -0.4522  2.0302
 8270TIP3   OH246300   1.936   3.084  13.867  0.0954  0.3371 -0.5652
 8270TIP3    H146301   1.845   3.068  13.892  0.0064  0.5460 -0.7476
 8270TIP3    H246302   1.959   3.010  13.811  0.3689 -0.2516  0.3129
 8271TIP3   OH246303   4.375   3.692  13.505 -0.2416  0.0195 -0.3533
 8271TIP3    H146304   4.330   3.608  13.498 -1.9258  0.9180 -0.8078
 8271TIP3    H246305   4.327   3.750  13.447  1.7435  0.9749 -1.1127
 8272TIP3   OH246306   3.855   2.767   3.985 -0.2664 -0.4379 -0.0945
 8272TIP3    H146307   3.827   2.721   4.063  1.1954  0.6503  1.1305
 8272TIP3    H246308   3.921   2.709   3.946  0.5235 -0.0565  0.6491
 8273TIP3   OH246309   3.844   0.760  12.102  0.5109  0.3649  0.1258
 8273TIP3    H146310   3.866   0.791  12.015 -0.8521  0.6796 -0.1369
 8273TIP3    H246311   3.789   0.683  12.087  1.6057 -0.5664  0.7448
 8274TIP3   OH246312   4.045   2.584  15.265  0.2459  0.3722 -0.1616
 8274TIP3    H146313   4.056   2.557  15.174 -1.1545  0.6308 -0.4157
 8274TIP3    H246314   4.127   2.628  15.286  0.2832  1.0011 -1.5416
 8275TIP3   OH246315   3.234   4.403  11.706  0.2033 -0.5450 -0.2374
 8275TIP3    H146316   3.145   4.413  11.740  0.4882  3.0196 -0.2357
 8275TIP3    H246317   3.225   4.417  11.611  0.7191 -0.6095 -0.2967
 8276TIP3   OH246318   0.038   6.378   0.874 -0.4002  0.0793 -0.5675
 8276TIP3    H146319  -0.017   6.341   0.943  1.0660  0.4303  0.8590
 8276TIP3    H246320  -0.013   6.451   0.839 -0.2880  1.3995  1.7945
 8277TIP3   OH246321   2.243   4.450   0.351  0.3738 -0.3626  0.1399
 8277TIP3    H146322   2.205   4.474   0.266  0.0848  0.6859  0.5433
 8277TIP3    H246323   2.208   4.515   0.412  1.3747 -0.4837  0.8763
 8278TIP3   OH246324   1.952   2.636   1.355  0.5785  0.3015  0.1633
 8278TIP3    H146325   1.892   2.645   1.429  0.8011  1.3295  0.2278
 8278TIP3    H246326   1.960   2.541   1.343 -1.7459  0.1227 -0.4306
 8279TIP3   OH246327   1.653   4.715   0.870  0.0078  0.0943 -0.0623
 8279TIP3    H146328   1.739   4.754   0.853  1.1361 -2.5408 -0.9386
 8279TIP3    H246329   1.626   4.679   0.786 -1.4868 -0.0432  0.4412
 8280TIP3   OH246330   6.406   6.655  16.096  0.3702 -0.2490  0.0734
 8280TIP3    H146331   6.489   6.622  16.130  0.1065 -1.5823 -0.5073
 8280TIP3    H246332   6.340   6.620  16.157  0.2002  0.6211  0.4064
 8281TIP3   OH246333   4.686   0.899   6.116  0.1891  0.2150  0.3981
 8281TIP3    H146334   4.758   0.837   6.118  0.0975 -0.1180 -2.3391
 8281TIP3    H246335   4.705   0.961   6.186  4.5251  1.5886 -1.6365
 8282TIP3   OH246336   5.977   0.365   0.947  0.2527  0.4948  0.6294
 8282TIP3    H146337   6.001   0.456   0.966  0.4069  0.4753  0.5283
 8282TIP3    H246338   5.954   0.365   0.854 -2.1160  0.9419  1.1372
 8283TIP3   OH246339   2.733   0.980   0.016 -0.1649  0.3716 -0.0609
 8283TIP3    H146340   2.753   0.917   0.085 -0.5042 -0.1362 -0.4127
 8283TIP3    H246341   2.644   1.010   0.036 -0.3157  0.1239 -0.3415
 8284TIP3   OH246342   2.970   4.884   4.918  0.2802  0.1092 -0.0769
 8284TIP3    H146343   2.914   4.806   4.922  0.4946 -0.0883 -0.7639
 8284TIP3    H246344   3.038   4.868   4.983 -0.2135  0.1515  0.4525
 8285TIP3   OH246345   1.211   4.707   4.743 -0.5300 -0.0113 -0.4797
 8285TIP3    H146346   1.121   4.712   4.709 -0.7340 -0.1656  0.0309
 8285TIP3    H246347   1.225   4.791   4.786 -1.2126 -0.7687  1.3332
 8286TIP3   OH246348   0.263   3.938  15.830  0.2301  0.3497 -0.3031
 8286TIP3    H146349   0.279   3.941  15.925  0.6410  0.1111 -0.3625
 8286TIP3    H246350   0.347   3.958  15.791 -0.3348  2.3100 -0.6352
 8287TIP3   OH246351   3.011   3.195   2.023 -0.1098 -0.6308 -0.2358
 8287TIP3    H146352   3.022   3.252   2.099 -0.8631  0.1116 -0.6652
 8287TIP3    H246353   3.016   3.106   2.059  1.9657 -0.3407  0.3208
 8288TIP3   OH246354   0.787   2.210   3.131  0.1974 -0.5224 -0.0299
 8288TIP3    H146355   0.714   2.161   3.094 -2.7888  3.1525  0.3919
 8288TIP3    H246356   0.780   2.197   3.225  1.4789 -1.7769 -0.0695
 8289TIP3   OH246357   0.468   3.213  11.776  0.6873 -0.2067  0.1960
 8289TIP3    H146358   0.452   3.176  11.863 -0.5056  0.4653  0.2878
 8289TIP3    H246359   0.398   3.177  11.721 -1.2911  2.7210  0.5608
 8290TIP3   OH246360   6.423   0.204  11.719  0.2225  0.1365  0.4458
 8290TIP3    H146361   6.439   0.123  11.767 -1.2018 -0.3001  0.2383
 8290TIP3    H246362   6.395   0.267  11.786  1.3012  0.4651  0.6028
 8291TIP3   OH246363   3.649   0.807   3.100  1.3646 -0.0409  0.3197
 8291TIP3    H146364   3.733   0.848   3.080  0.4120  0.7364 -2.5906
 8291TIP3    H246365   3.636   0.743   3.031 -0.3838 -0.2181  0.7539
 8292TIP3   OH246366   4.723   6.205   2.971  0.5286  0.5973  0.5108
 8292TIP3    H146367   4.738   6.127   3.025  0.4085  1.0405  1.1919
 8292TIP3    H246368   4.810   6.229   2.940  0.5507  0.1164  0.1898
 8293TIP3   OH246369   4.342   3.204  12.391 -0.1601 -0.1018 -0.3818
 8293TIP3    H146370   4.413   3.262  12.420  0.0141  0.8292 -2.4492
 8293TIP3    H246371   4.386   3.137  12.339 -0.5677 -0.9987  0.4117
 8294TIP3   OH246372   1.607   5.640  16.966  0.1888 -0.6624  0.1333
 8294TIP3    H146373   1.530   5.634  17.022  0.7409 -1.3742  0.8404
 8294TIP3    H246374   1.583   5.592  16.887  0.2702 -1.8333  0.7932
 8295TIP3   OH246375   0.478   0.125  13.887  0.1552  0.2986 -0.2845
 8295TIP3    H146376   0.482   0.184  13.811 -0.0352  1.3011  0.4696
 8295TIP3    H246377   0.569   0.104  13.906  0.1571 -1.6438 -2.0346
 8296TIP3   OH246378   0.107   2.071  16.625  0.0367 -0.5130  0.3664
 8296TIP3    H146379   0.181   2.122  16.592  0.0152 -0.6186  0.1521
 8296TIP3    H246380   0.127   1.981  16.599  0.7050 -0.8185  1.8458
 8297TIP3   OH246381   6.588   0.181  15.523 -0.5735 -0.0394 -0.2684
 8297TIP3    H146382   6.549   0.103  15.563  1.3326 -0.9045  0.0223
 8297TIP3    H246383   6.557   0.254  15.576 -1.4986 -0.7101  0.1410
 8298TIP3   OH246384   4.527   2.387  14.365 -0.5289  0.0865 -0.0369
 8298TIP3    H146385   4.462   2.364  14.298  0.4423 -1.2018 -0.5898
 8298TIP3    H246386   4.589   2.444  14.319  0.3029 -1.0375 -0.3694
 8299TIP3   OH246387   4.565   1.404  11.580 -0.0167  0.1252 -0.4312
 8299TIP3    H146388   4.534   1.325  11.536 -3.3258  1.4341 -0.6899
 8299TIP3    H246389   4.494   1.467  11.571  3.0174  3.8000 -1.6680
 8300TIP3   OH246390   6.810   5.617  15.114 -0.2766  0.6762 -0.3978
 8300TIP3    H146391   6.864   5.540  15.100 -0.2239  0.6955 -0.3056
 8300TIP3    H246392   6.853   5.663  15.186 -1.0167  0.1231  0.4314
 8301TIP3   OH246393   0.940   0.418   5.989  0.3913 -0.5731  0.2145
 8301TIP3    H146394   0.869   0.475   5.961 -0.0617 -1.2229  0.0114
 8301TIP3    H246395   0.897   0.348   6.038  0.6433 -1.9812 -1.4587
 8302TIP3   OH246396   6.418   4.657  15.483  0.0094  0.2056 -0.3331
 8302TIP3    H146397   6.462   4.737  15.512  0.0057 -0.4564  1.6194
 8302TIP3    H246398   6.484   4.589  15.492 -0.5039 -0.2914 -0.2941
 8303TIP3   OH246399   6.015   5.713   1.625 -0.6345 -0.2891 -0.0937
 8303TIP3    H146400   5.919   5.713   1.630 -0.6295 -2.7563  2.1097
 8303TIP3    H246401   6.035   5.644   1.561 -0.3130  0.5954 -0.9572
 8304TIP3   OH246402   1.457   6.153  12.183  0.0013  0.2688 -0.3716
 8304TIP3    H146403   1.425   6.079  12.235 -0.6504 -0.3124 -1.5705
 8304TIP3    H246404   1.529   6.117  12.131  1.2401  1.0608  0.7404
 8305TIP3   OH246405   1.514   3.645  13.954  0.4818  0.2805  0.5455
 8305TIP3    H146406   1.512   3.638  14.050  1.6010 -1.1330  0.5072
 8305TIP3    H246407   1.422   3.644  13.928  0.1784 -0.3229  1.5668
 8306TIP3   OH246408   0.670   5.057  17.081 -0.1130 -0.1500  0.8801
 8306TIP3    H146409   0.749   5.095  17.118  0.0551 -0.2599  0.6414
 8306TIP3    H246410   0.694   5.036  16.990 -1.2370  2.3257 -0.0621
 8307TIP3   OH246411   5.407   2.428  16.801 -0.6263  0.6394 -0.5094
 8307TIP3    H146412   5.486   2.422  16.748  0.4581 -0.7113  1.1456
 8307TIP3    H246413   5.337   2.398  16.743  0.0812  1.6400 -1.9357
 8308TIP3   OH246414   6.442   1.591   4.174  0.1279  0.6324 -0.4420
 8308TIP3    H146415   6.464   1.638   4.254  0.8182 -0.0806 -0.2089
 8308TIP3    H246416   6.474   1.502   4.188 -0.4635  0.2859 -1.1915
 8309TIP3   OH246417   1.942   3.890   1.999 -0.3512 -0.0974 -0.2005
 8309TIP3    H146418   1.957   3.825   2.067  0.0449 -0.2029 -0.3844
 8309TIP3    H246419   1.885   3.955   2.040 -1.4341 -0.9670 -0.2636
 8310TIP3   OH246420   4.725   6.576  12.130  0.8961  0.0754 -0.6793
 8310TIP3    H146421   4.734   6.483  12.152 -0.3179  0.1338  0.1334
 8310TIP3    H246422   4.743   6.622  12.213  1.7184  0.5913 -1.1276
 8311TIP3   OH246423   4.974   3.110  15.228  0.1210  0.3038  0.7595
 8311TIP3    H146424   5.015   3.049  15.167 -0.8448  0.2022  0.2037
 8311TIP3    H246425   5.035   3.184  15.232 -0.9462  1.4568 -2.2812
 8312TIP3   OH246426   2.013   0.153   2.290 -0.1709  0.0264 -0.2372
 8312TIP3    H146427   1.986   0.243   2.273  0.2456  0.1572 -0.2177
 8312TIP3    H246428   1.936   0.112   2.330 -0.1134  0.5912  0.4881
 8313TIP3   OH246429   5.802   4.907  13.294  0.4958  0.1303 -0.3156
 8313TIP3    H146430   5.827   4.951  13.375  0.8842 -1.1361  0.2704
 8313TIP3    H246431   5.762   4.825  13.322 -2.6295  1.1859 -1.2888
 8314TIP3   OH246432   1.349   3.400   1.370 -0.5202 -0.4222 -0.5780
 8314TIP3    H146433   1.298   3.320   1.366 -0.5944 -0.3541 -1.0266
 8314TIP3    H246434   1.419   3.387   1.306 -0.6544 -0.0472 -0.8038
 8315TIP3   OH246435   2.736   5.555  16.767 -0.1209 -0.1426  0.0024
 8315TIP3    H146436   2.656   5.503  16.776  0.4236 -1.0326 -0.2263
 8315TIP3    H246437   2.717   5.636  16.815 -1.7820  0.3960 -1.4180
 8316TIP3   OH246438   2.567   1.128   0.958  0.4861 -0.3952 -0.9822
 8316TIP3    H146439   2.538   1.053   1.009  1.8333 -0.9253 -0.9594
 8316TIP3    H246440   2.573   1.199   1.021  0.7851 -0.6918 -0.6701
 8317TIP3   OH246441   0.740   6.812   1.920 -0.1755  0.0809  0.3584
 8317TIP3    H146442   0.660   6.805   1.868 -0.2455 -1.4293  0.6278
 8317TIP3    H246443   0.729   6.747   1.989  0.3228  1.3931  1.7492
 8318TIP3   OH246444   4.902   5.382  16.551 -0.1010  0.1473 -0.1949
 8318TIP3    H146445   4.838   5.312  16.563 -0.7950  1.0166  1.3575
 8318TIP3    H246446   4.851   5.463  16.555  0.8890  0.7976 -0.4374
 8319TIP3   OH246447   3.704   2.277  16.295  0.5003  0.0761 -0.0368
 8319TIP3    H146448   3.739   2.366  16.287 -1.6925  0.8540 -2.0076
 8319TIP3    H246449   3.691   2.265  16.389  0.8023  1.8518  0.2711
 8320TIP3   OH246450   2.447   1.084  14.990 -0.5303  0.4976  0.1621
 8320TIP3    H146451   2.409   0.997  14.977 -1.0898  0.8061 -0.3030
 8320TIP3    H246452   2.413   1.136  14.918  1.0390  0.7190 -0.4650
 8321TIP3   OH246453   4.618   3.781  16.704 -1.1873 -1.3839  0.1440
 8321TIP3    H146454   4.677   3.844  16.746 -1.5326 -0.8069 -0.2310
 8321TIP3    H246455   4.572   3.739  16.777 -0.6435 -1.5231  0.4161
 8322TIP3   OH246456   4.325   3.492   3.782  0.4231  0.5670  0.3304
 8322TIP3    H146457   4.235   3.511   3.755  0.9794  1.5266 -0.9368
 8322TIP3    H246458   4.320   3.481   3.877 -0.9704  0.9366  0.3175
 8323TIP3   OH246459   0.216   1.390   1.091 -0.3179  0.7247  0.0085
 8323TIP3    H146460   0.155   1.358   1.158  0.1868  0.1846  0.2179
 8323TIP3    H246461   0.271   1.453   1.137 -0.2175  0.6395  0.0033
 8324TIP3   OH246462   6.208   5.133   2.173 -0.3824  0.1580 -0.8074
 8324TIP3    H146463   6.227   5.101   2.261 -1.7096  2.6630  0.4840
 8324TIP3    H246464   6.120   5.170   2.180 -0.0844  1.4099 -2.9029
 8325TIP3   OH246465   3.855   3.831   5.625  0.1454  0.3001 -0.2537
 8325TIP3    H146466   3.940   3.850   5.663 -0.0137  2.0157 -0.6545
 8325TIP3    H246467   3.798   3.902   5.656 -0.6588  0.2172 -1.4549
 8326TIP3   OH246468   6.600   3.255   0.026  0.5846 -0.5258  0.1437
 8326TIP3    H146469   6.533   3.283  -0.036  0.0734 -0.2874  0.7903
 8326TIP3    H246470   6.566   3.174   0.063 -0.1155  0.3995  1.6189
 8327TIP3   OH246471   4.458   3.115  16.987 -0.3195 -0.0317 -0.9335
 8327TIP3    H146472   4.539   3.134  17.035 -0.4236 -0.2697 -0.6660
 8327TIP3    H246473   4.432   3.199  16.950  0.0308  0.0549 -0.9933
 8328TIP3   OH246474   1.579   0.257   6.446  0.0651  0.2063  0.5443
 8328TIP3    H146475   1.508   0.222   6.500 -0.4410 -0.5001 -0.5700
 8328TIP3    H246476   1.549   0.345   6.422 -0.0767  0.2042  0.7092
 8329TIP3   OH246477   1.343   5.909  12.232 -0.1357 -0.0374  0.1591
 8329TIP3    H146478   1.296   5.837  12.189 -0.1755 -0.4032  0.7996
 8329TIP3    H246479   1.417   5.866  12.274 -0.0553  0.3317  0.3917
 8330TIP3   OH246480   4.675   0.349   4.664 -0.2965 -0.4267  0.5352
 8330TIP3    H146481   4.673   0.364   4.759 -0.0119  0.8082  0.3661
 8330TIP3    H246482   4.583   0.340   4.640 -0.3636 -0.8787  0.9499
 8331TIP3   OH246483   0.893   3.417   5.464  0.2498  0.3727 -0.4671
 8331TIP3    H146484   0.921   3.498   5.508 -1.2395  0.5996  0.1223
 8331TIP3    H246485   0.809   3.439   5.425 -0.0815 -0.8374 -0.4672
 8332TIP3   OH246486   6.265   2.759   1.441 -0.2075 -0.3698  0.5879
 8332TIP3    H146487   6.238   2.847   1.416 -1.0553 -0.5475  0.8672
 8332TIP3    H246488   6.288   2.767   1.534  0.0085 -0.3804  0.5364
 8333TIP3   OH246489   5.611   2.627  15.102 -0.5078 -0.3649  0.1678
 8333TIP3    H146490   5.636   2.714  15.072  0.4655 -0.8644 -0.5211
 8333TIP3    H246491   5.525   2.639  15.143  0.5711  1.3371  2.1590
 8334TIP3   OH246492   4.765   2.039  10.660 -0.3918 -0.2343  0.6658
 8334TIP3    H146493   4.800   2.099  10.726 -1.4289 -1.6047  2.5600
 8334TIP3    H246494   4.761   1.954  10.705 -1.8209 -1.0617 -0.9422
 8335TIP3   OH246495   5.485   4.126  11.236 -0.5321 -0.3492  0.1840
 8335TIP3    H146496   5.521   4.174  11.162 -0.6134  0.2680  0.5340
 8335TIP3    H246497   5.541   4.049  11.245 -0.1657 -0.1229 -0.1480
 8336TIP3   OH246498   3.708   5.647  15.646 -0.1077 -0.6200 -0.3227
 8336TIP3    H146499   3.726   5.679  15.735  0.4915 -1.6765 -0.0479
 8336TIP3    H246500   3.639   5.706  15.613  0.5945  0.6166  0.3372
 8337TIP3   OH246501   0.669   1.493  10.208 -0.1470  0.3732 -0.3752
 8337TIP3    H146502   0.760   1.474  10.229 -0.9678 -1.0102  2.3357
 8337TIP3    H246503   0.670   1.584  10.178  2.6398 -0.7949 -4.6986
 8338TIP3   OH246504   2.697   3.705  15.360  0.1076  0.2263 -0.0129
 8338TIP3    H146505   2.756   3.722  15.287  4.1810 -0.8233  2.7119
 8338TIP3    H246506   2.698   3.787  15.411  0.1325 -0.1908  0.6670
 8339TIP3   OH246507   5.578   2.178   0.650 -0.1445 -0.3379 -0.3880
 8339TIP3    H146508   5.549   2.097   0.607  0.7723 -0.4075 -0.9021
 8339TIP3    H246509   5.535   2.248   0.600 -1.8103 -0.5128  0.7274
 8340TIP3   OH246510   1.981   0.739   2.793 -0.1616 -0.1452  0.3980
 8340TIP3    H146511   2.014   0.729   2.883  1.9580  0.8879 -0.1908
 8340TIP3    H246512   1.902   0.793   2.802  0.8519  1.2381  1.5485
 8341TIP3   OH246513   2.235   0.296   4.126 -0.4294 -0.4151 -0.0046
 8341TIP3    H146514   2.270   0.229   4.068 -2.2976 -0.9980 -0.5311
 8341TIP3    H246515   2.147   0.266   4.147 -0.2370  0.3983  2.1853
 8342TIP3   OH246516   4.178   5.968  10.683 -0.0810  0.1075  0.0264
 8342TIP3    H146517   4.101   6.009  10.645  2.0264  2.6587 -1.9058
 8342TIP3    H246518   4.205   6.027  10.753 -0.2601 -1.1972  1.2555
 8343TIP3   OH246519   6.765   3.529   1.001  0.0611 -0.5867 -0.3626
 8343TIP3    H146520   6.747   3.493   1.088 -0.8293  0.2951 -0.1642
 8343TIP3    H246521   6.837   3.476   0.968  1.5530  0.1113  1.5829
 8344TIP3   OH246522   6.820   1.227  16.620  0.7639  0.1162 -0.4959
 8344TIP3    H146523   6.731   1.232  16.587  1.4767  1.2008 -2.4031
 8344TIP3    H246524   6.830   1.137  16.650  0.0647 -1.0488 -3.4518
 8345TIP3   OH246525   3.384   5.598  10.737 -0.0084 -0.2986 -0.7527
 8345TIP3    H146526   3.331   5.528  10.698 -0.4655  0.2707 -1.1792
 8345TIP3    H246527   3.473   5.578  10.709 -0.1269 -0.7420 -0.8271
 8346TIP3   OH246528   2.830   6.467   0.884  0.3419 -0.3152 -0.0417
 8346TIP3    H146529   2.913   6.424   0.860  1.1477  0.3896  1.3321
 8346TIP3    H246530   2.794   6.497   0.801  1.8043 -0.0672 -0.6252
 8347TIP3   OH246531   5.321   1.862  16.530 -1.0569 -0.1779  0.2362
 8347TIP3    H146532   5.338   1.781  16.482  0.8425  1.2388 -1.6656
 8347TIP3    H246533   5.226   1.864  16.540 -1.1728 -2.6001  0.3701
 8348TIP3   OH246534   1.174   6.654   5.321 -0.1378  0.0982 -0.4748
 8348TIP3    H146535   1.139   6.568   5.343  0.5556  0.3904  2.0181
 8348TIP3    H246536   1.195   6.695   5.405  2.9938  1.2491 -1.6333
 8349TIP3   OH246537   4.827   2.292  15.458  0.0726 -0.2925  0.2092
 8349TIP3    H146538   4.805   2.211  15.504 -0.6034 -0.2304  0.0057
 8349TIP3    H246539   4.788   2.282  15.371  0.6440 -0.0687 -0.0808
 8350TIP3   OH246540   5.430   5.794   1.791  0.0231 -0.3734  0.0849
 8350TIP3    H146541   5.336   5.795   1.771 -0.3646  0.5266  1.7376
 8350TIP3    H246542   5.445   5.708   1.831 -0.3839 -0.0974  0.8778
 8351TIP3   OH246543   1.334   5.278  14.955  0.0071  0.8843  0.2032
 8351TIP3    H146544   1.378   5.357  14.986 -0.0574  0.3971  1.6115
 8351TIP3    H246545   1.349   5.277  14.861  1.7210  1.5202  0.4354
 8352TIP3   OH246546   2.016   6.567   0.230 -0.1320 -0.0232  0.1661
 8352TIP3    H146547   2.089   6.525   0.185 -0.3134 -0.1789  0.0128
 8352TIP3    H246548   1.938   6.529   0.189 -0.3071 -0.6404  1.0632
 8353TIP3   OH246549   3.010   6.685   2.594 -0.5528 -0.7391 -0.2020
 8353TIP3    H146550   2.926   6.642   2.612 -0.3887 -0.1302  2.5208
 8353TIP3    H246551   3.073   6.636   2.647  0.0612  1.2823  1.0461
 8354TIP3   OH246552   2.376   3.362  11.513  0.3603 -0.1610 -0.1143
 8354TIP3    H146553   2.311   3.328  11.575  1.3839 -3.1096 -0.4840
 8354TIP3    H246554   2.437   3.412  11.567  0.6833 -1.8510  1.1810
 8355TIP3   OH246555   5.602   5.060  11.732  0.3702  0.1786  0.1761
 8355TIP3    H146556   5.512   5.085  11.714 -0.0255 -1.4254 -0.2080
 8355TIP3    H246557   5.596   4.972  11.770  1.8372 -0.6947 -1.4325
 8356TIP3   OH246558   3.438   5.845   4.160  0.5103  0.2634  0.4604
 8356TIP3    H146559   3.454   5.764   4.112  1.9301  0.8853 -0.2073
 8356TIP3    H246560   3.369   5.889   4.110  2.3752  1.1801 -1.4977
 8357TIP3   OH246561   2.870   3.911   2.910 -0.1516 -0.1550 -0.0597
 8357TIP3    H146562   2.792   3.858   2.927 -1.3485  0.7425 -2.2639
 8357TIP3    H246563   2.938   3.848   2.888  0.7291 -1.1808  4.5463
 8358TIP3   OH246564   4.654   1.193   1.413  0.4068 -0.8668 -1.0984
 8358TIP3    H146565   4.623   1.199   1.503 -0.8044 -1.2159 -1.4717
 8358TIP3    H246566   4.742   1.155   1.420  1.2984  1.1975  0.0741
 8359TIP3   OH246567   6.236   0.429  11.834 -0.5924 -0.2663 -0.0937
 8359TIP3    H146568   6.253   0.461  11.922 -1.1764 -1.0035  0.3003
 8359TIP3    H246569   6.226   0.508  11.781  1.1311  0.2002  0.1992
 8360TIP3   OH246570   4.115   0.653  13.875  0.2531  0.1260  0.2950
 8360TIP3    H146571   4.081   0.742  13.865 -1.4151 -0.7029 -2.4102
 8360TIP3    H246572   4.188   0.662  13.936 -0.6703  3.1098  1.1187
 8361TIP3   OH246573   6.150   3.488   4.985 -0.3252 -0.0617  0.0829
 8361TIP3    H146574   6.057   3.466   4.989 -0.3568 -0.1697 -0.9616
 8361TIP3    H246575   6.167   3.507   4.892  0.7088 -0.1017  0.2448
 8362TIP3   OH246576   1.559   0.171   1.510  0.4775 -0.1174 -0.5837
 8362TIP3    H146577   1.544   0.077   1.501 -3.1805  0.1201  1.2325
 8362TIP3    H246578   1.637   0.177   1.566  0.2267 -2.0882  0.0687
 8363TIP3   OH246579   1.013   4.206   4.938  0.3670 -0.1170 -0.1712
 8363TIP3    H146580   0.934   4.238   4.894  0.4556 -0.7321 -0.7748
 8363TIP3    H246581   0.987   4.196   5.030 -0.5736 -1.3278 -0.5509
 8364TIP3   OH246582   1.790   3.307  13.396 -0.1687  0.2155  0.2745
 8364TIP3    H146583   1.845   3.383  13.379  0.4744  0.2233  2.1247
 8364TIP3    H246584   1.704   3.332  13.363  0.3767  1.1655 -0.4702
 8365TIP3   OH246585   0.009   5.618  15.442  0.4964 -0.2276 -0.0441
 8365TIP3    H146586   0.034   5.581  15.527  0.7780  1.0502  0.4452
 8365TIP3    H246587  -0.069   5.670  15.460  0.4573 -0.0827 -0.6139
 8366TIP3   OH246588   4.987   0.739   2.984  0.0972  0.6055  0.3264
 8366TIP3    H146589   4.931   0.696   2.919  2.4712 -1.8197 -0.2667
 8366TIP3    H246590   4.944   0.721   3.068 -2.4962  2.9676 -0.3511
 8367TIP3   OH246591   1.068   3.632   2.457 -0.1128 -0.2008  0.3155
 8367TIP3    H146592   0.994   3.613   2.400  0.9609 -0.6111 -1.0129
 8367TIP3    H246593   1.030   3.671   2.535 -1.8768 -2.0427  0.4369
 8368TIP3   OH246594   4.828   2.747  11.507 -0.0198  0.0413  0.2329
 8368TIP3    H146595   4.750   2.693  11.517  0.3494 -0.3618  1.0270
 8368TIP3    H246596   4.878   2.704  11.438  0.0194 -0.3340  0.4931
 8369TIP3   OH246597   1.774   6.510   4.984  0.7814 -0.2160  0.1380
 8369TIP3    H146598   1.822   6.437   4.944  1.1264 -1.7766  3.0863
 8369TIP3    H246599   1.684   6.497   4.956  1.0479 -0.9986 -0.4086
 8370TIP3   OH246600   2.191   2.977  10.750  0.0845 -0.0637  0.2130
 8370TIP3    H146601   2.217   3.017  10.668 -1.2754 -0.3351 -0.3828
 8370TIP3    H246602   2.143   3.046  10.797 -1.5524 -0.6717 -0.4632
 8371TIP3   OH246603   1.517   4.177   5.760 -0.0475  0.3877  0.3911
 8371TIP3    H146604   1.463   4.247   5.725 -0.4681 -0.4398 -0.7127
 8371TIP3    H246605   1.456   4.119   5.806  0.0627  0.0245  0.0909
 8372TIP3   OH246606   1.442   4.462   4.472  0.0434  0.1245 -0.4553
 8372TIP3    H146607   1.364   4.428   4.427 -0.3182  0.9248 -0.4574
 8372TIP3    H246608   1.465   4.394   4.535 -0.9922  0.1027 -0.0734
 8373TIP3   OH246609   2.688   1.415   5.065 -0.2578 -0.3140  0.1358
 8373TIP3    H146610   2.744   1.393   5.139 -1.6255 -1.0903  0.9858
 8373TIP3    H246611   2.726   1.368   4.991  0.8320  0.0618  0.4481
 8374TIP3   OH246612   3.432   1.496  12.454 -0.5074 -0.5822  0.2997
 8374TIP3    H146613   3.402   1.586  12.465 -1.9652 -0.7429 -1.8051
 8374TIP3    H246614   3.354   1.442  12.469  0.2389 -1.4844  1.0732
 8375TIP3   OH246615   5.828   4.864  15.277 -0.1205 -0.0843  0.7227
 8375TIP3    H146616   5.853   4.956  15.270  0.0578 -0.2247 -0.7849
 8375TIP3    H246617   5.739   4.860  15.241 -0.1790 -0.4872  0.9048
 8376TIP3   OH246618   3.451   1.839   2.125  0.2568 -0.1341 -0.3619
 8376TIP3    H146619   3.446   1.770   2.191  0.5168  1.0114  0.8970
 8376TIP3    H246620   3.372   1.826   2.072 -1.1016  0.1655  1.4681
 8377TIP3   OH246621   3.663   5.608   5.308  0.3432 -0.0037  0.2241
 8377TIP3    H146622   3.698   5.522   5.284 -0.0321 -0.0116 -0.3100
 8377TIP3    H246623   3.651   5.603   5.403  1.8881  0.0351  0.4507
 8378TIP3   OH246624   5.473   2.695  14.842  0.4590 -0.0566 -0.7535
 8378TIP3    H146625   5.552   2.742  14.869  0.6018 -0.8029  0.2109
 8378TIP3    H246626   5.505   2.621  14.791  0.5945 -1.4628  1.2180
 8379TIP3   OH246627   4.070   4.793   4.654  0.0446  0.1692  0.0215
 8379TIP3    H146628   4.085   4.716   4.599  0.1826  1.3481 -1.6695
 8379TIP3    H246629   4.140   4.789   4.719 -0.4340 -1.5416  0.4866
 8380TIP3   OH246630   5.731   4.511  12.843  0.4138 -1.0756 -0.2519
 8380TIP3    H146631   5.753   4.526  12.935  0.1465  0.8619 -0.4732
 8380TIP3    H246632   5.759   4.590  12.798 -1.6822 -0.9453 -1.4562
 8381TIP3   OH246633   5.854   2.653  12.639  0.2857 -0.2598  0.5454
 8381TIP3    H146634   5.837   2.640  12.546  1.0782  1.1272  0.1676
 8381TIP3    H246635   5.948   2.671  12.644  0.4587 -1.3798  1.7544
 8382TIP3   OH246636   1.955   0.860   3.349  0.5398 -1.0539  0.5731
 8382TIP3    H146637   1.954   0.955   3.359  0.0271 -0.9264 -0.4795
 8382TIP3    H246638   1.996   0.827   3.429 -0.7798 -0.0491  1.7178
 8383TIP3   OH246639   1.455   0.129   2.105 -0.1675  0.0049  0.2143
 8383TIP3    H146640   1.447   0.115   2.010 -0.3397  1.4180 -0.0033
 8383TIP3    H246641   1.372   0.098   2.141 -0.4433  0.2391 -0.2069
 8384TIP3   OH246642   1.399   4.879  13.169 -0.1118  0.0804  0.3400
 8384TIP3    H146643   1.419   4.925  13.088  0.2607 -0.8305 -0.1001
 8384TIP3    H246644   1.485   4.866  13.211 -0.1388 -0.7789  0.1409
 8385TIP3   OH246645   4.399   6.580  12.455 -0.0613 -0.2965  0.0325
 8385TIP3    H146646   4.459   6.509  12.432  0.1986 -0.2182  0.4586
 8385TIP3    H246647   4.455   6.650  12.486 -0.4090 -0.5328  1.2507
 8386TIP3   OH246648   6.551   4.941  13.148  0.5279 -0.5818 -0.0257
 8386TIP3    H146649   6.634   4.931  13.195  1.1135 -2.9871 -1.4434
 8386TIP3    H246650   6.576   4.951  13.056 -0.7255  0.3552 -0.2917
 8387TIP3   OH246651   3.255   2.217  16.395  0.3073 -0.3786  0.0691
 8387TIP3    H146652   3.315   2.224  16.321  0.3036 -0.2545  0.0775
 8387TIP3    H246653   3.312   2.208  16.471  0.3689  1.1489  0.2494
 8388TIP3   OH246654   4.489   5.893   0.960  0.1514 -0.1825 -0.5652
 8388TIP3    H146655   4.562   5.851   1.007 -1.0047  0.7019  2.2173
 8388TIP3    H246656   4.515   5.985   0.953 -1.1881  0.4444  1.7293
 8389TIP3   OH246657   0.344   1.531  16.479 -0.0546 -0.3001 -0.0347
 8389TIP3    H146658   0.307   1.453  16.521 -0.7907 -0.1367 -0.3728
 8389TIP3    H246659   0.348   1.596  16.549  0.8943 -0.7382  0.3374
 8390TIP3   OH246660   1.397   5.046   3.718  0.3085  0.3599  0.9173
 8390TIP3    H146661   1.483   5.053   3.760  0.3736 -2.8781  1.6550
 8390TIP3    H246662   1.350   4.981   3.772 -1.9226  0.6749 -0.5227
 8391TIP3   OH246663   2.226   0.094  14.557 -0.1267  0.2754  0.2831
 8391TIP3    H146664   2.278   0.062  14.631  0.6846 -0.8147 -0.7338
 8391TIP3    H246665   2.163   0.025  14.540 -0.4907  0.6444  0.1180
 8392TIP3   OH246666   5.349   6.470   5.859 -0.4688  0.4013  0.3877
 8392TIP3    H146667   5.290   6.541   5.883 -1.2939  0.2708 -1.1582
 8392TIP3    H246668   5.315   6.394   5.905  0.1357  0.8734  1.6665
 8393TIP3   OH246669   4.698   2.634  17.165 -0.4809  0.1851 -0.1748
 8393TIP3    H146670   4.730   2.710  17.115 -0.7075 -0.3116 -1.0861
 8393TIP3    H246671   4.644   2.673  17.233  0.0819  0.8945 -0.1102
 8394TIP3   OH246672   0.539   2.812  16.029  0.1240 -0.0389 -0.3457
 8394TIP3    H146673   0.613   2.846  15.978  0.0199  0.1844 -0.3474
 8394TIP3    H246674   0.469   2.875  16.014 -0.4019 -0.8119 -1.2010
 8395TIP3   OH246675   6.326   0.944  16.348 -0.1784  0.4019 -0.2155
 8395TIP3    H146676   6.267   1.008  16.388  0.4973 -0.2515  1.9556
 8395TIP3    H246677   6.368   0.992  16.277 -3.2424  0.8935 -1.8684
 8396TIP3   OH246678   3.645   6.280   3.627 -0.6159 -0.4659 -0.0896
 8396TIP3    H146679   3.587   6.204   3.630  0.3582 -1.2021  0.3294
 8396TIP3    H246680   3.622   6.325   3.546 -0.6482 -1.6487 -0.7466
 8397TIP3   OH246681   4.415   0.145  13.939  0.3694  0.0132  0.0083
 8397TIP3    H146682   4.357   0.132  13.864  0.7715 -1.2490 -0.1147
 8397TIP3    H246683   4.357   0.141  14.016 -0.0427  1.3199 -0.2144
 8398TIP3   OH246684   1.217   4.987  15.047 -0.1907 -0.1577  0.2797
 8398TIP3    H146685   1.312   4.981  15.039 -0.2449  0.5730 -1.0723
 8398TIP3    H246686   1.198   5.080  15.044 -0.9907 -0.3187  0.0079
 8399TIP3   OH246687   1.626   1.994  12.343 -0.0920  0.3322 -0.1768
 8399TIP3    H146688   1.663   1.909  12.323 -0.5888 -0.5942  2.4422
 8399TIP3    H246689   1.533   1.985  12.321 -0.4517 -0.3717  1.4780
 8400TIP3   OH246690   0.615   2.024   3.446  0.0130  0.0048 -0.3185
 8400TIP3    H146691   0.522   2.028   3.422  0.0366  0.0876 -0.3966
 8400TIP3    H246692   0.650   1.952   3.394  0.2079  0.5940 -1.0256
 8401TIP3   OH246693   1.203   5.174  13.131 -0.1548 -0.1852  0.6941
 8401TIP3    H146694   1.290   5.157  13.096  0.0712 -0.6633  1.4587
 8401TIP3    H246695   1.149   5.102  13.096 -0.0662 -0.3244  0.8431
 8402TIP3   OH246696   0.356   1.709   5.077 -0.2617  0.6540  0.5698
 8402TIP3    H146697   0.421   1.675   5.015  0.3543  1.5434  0.6995
 8402TIP3    H246698   0.276   1.661   5.057  0.0146  0.6802 -0.6969
 8403TIP3   OH246699   3.973   6.101   4.617  0.6082 -0.2519  0.6082
 8403TIP3    H146700   4.030   6.111   4.541 -0.6178  0.5070 -0.2472
 8403TIP3    H246701   3.885   6.123   4.584 -0.1823 -1.3824  1.8836
 8404TIP3   OH246702   5.543   6.235  12.471  0.4002 -0.0422  0.1284
 8404TIP3    H146703   5.612   6.169  12.465  1.7279  1.3518 -0.5728
 8404TIP3    H246704   5.501   6.218  12.555  1.8605 -0.6668  0.7648
 8405TIP3   OH246705   5.195   4.769  13.885 -0.0216 -0.2721 -0.0779
 8405TIP3    H146706   5.194   4.737  13.975 -1.2568 -2.3779 -0.7746
 8405TIP3    H246707   5.119   4.827  13.880 -0.4986 -0.8786  0.0096
 8406TIP3   OH246708   4.923   0.689  13.421  0.1159  0.7892 -0.0725
 8406TIP3    H146709   5.000   0.745  13.418  1.3080 -0.7981 -2.1357
 8406TIP3    H246710   4.931   0.633  13.344 -2.7173  0.0198  0.0701
 8407TIP3   OH246711   0.845   5.489   3.882  0.2519 -0.4633  0.0875
 8407TIP3    H146712   0.898   5.565   3.905  0.0016  0.0875 -1.0696
 8407TIP3    H246713   0.763   5.527   3.849  0.6328 -1.1758 -1.7492
 8408TIP3   OH246714   5.253   4.129   3.150 -0.2586  0.3936 -0.3327
 8408TIP3    H146715   5.304   4.182   3.089  1.1962  0.8290  1.1887
 8408TIP3    H246716   5.235   4.048   3.102  2.4694 -0.0492 -0.7733
 8409TIP3   OH246717   4.107   1.894  13.412 -0.3264  0.5207 -0.0693
 8409TIP3    H146718   4.133   1.981  13.380  3.4462 -0.0483  1.0258
 8409TIP3    H246719   4.108   1.839  13.334 -2.1382  1.2631 -0.6697
 8410TIP3   OH246720   3.182   3.469   1.970  0.3342  0.3554  0.4178
 8410TIP3    H146721   3.177   3.524   1.892 -0.7701  2.9153  2.1365
 8410TIP3    H246722   3.120   3.397   1.954  2.4717 -1.0468 -2.2639
 8411TIP3   OH246723   1.896   1.483   3.784 -0.3387  0.3426 -0.6364
 8411TIP3    H146724   1.956   1.471   3.857 -1.4925 -0.2227  0.2415
 8411TIP3    H246725   1.953   1.503   3.709  0.9508 -0.4730  0.0940
 8412TIP3   OH246726   5.390   3.736  14.255  0.4620 -0.0352  0.1396
 8412TIP3    H146727   5.441   3.769  14.329  0.6709  1.3229 -0.5752
 8412TIP3    H246728   5.315   3.692  14.295  0.9547  0.0174  1.1566
 8413TIP3   OH246729   6.745   4.956   0.922 -0.3986  0.0650 -0.1132
 8413TIP3    H146730   6.676   4.890   0.916  0.2530 -0.8307  1.6551
 8413TIP3    H246731   6.746   4.982   1.014  2.8864 -1.4271  0.4302
 8414TIP3   OH246732   5.967   5.031  11.530  0.8931 -0.0220  0.6012
 8414TIP3    H146733   5.989   5.118  11.497 -1.2834  0.4281  0.1754
 8414TIP3    H246734   6.021   5.020  11.608  0.9655  1.8532  0.8584
 8415TIP3   OH246735   4.489   5.433   1.597  0.0847  0.2433  0.4128
 8415TIP3    H146736   4.543   5.475   1.665  1.3399 -0.0021 -0.4107
 8415TIP3    H246737   4.407   5.411   1.642  1.0469 -0.3006  1.9710
 8416TIP3   OH246738   0.694   2.416  14.731 -0.1544 -0.0146 -0.6285
 8416TIP3    H146739   0.690   2.507  14.760  0.5617  0.1847 -1.1395
 8416TIP3    H246740   0.686   2.421  14.636 -0.2519 -0.4969 -0.6487
 8417TIP3   OH246741   6.756   0.140   5.335  0.3111 -0.7216 -0.2070
 8417TIP3    H146742   6.779   0.221   5.290 -1.3753  0.4967  0.9676
 8417TIP3    H246743   6.677   0.110   5.291 -0.1616 -0.6504  0.5745
 8418TIP3   OH246744   1.534   2.416   5.862  0.6131  0.2308  0.7307
 8418TIP3    H146745   1.544   2.360   5.938  0.4019 -0.9978 -0.1206
 8418TIP3    H246746   1.475   2.368   5.804  1.0151  0.9985 -0.3449
 8419TIP3   OH246747   3.455   6.059   3.907  0.3469 -0.1952 -0.2368
 8419TIP3    H146748   3.369   6.100   3.917  0.6363  0.7519 -1.4357
 8419TIP3    H246749   3.440   5.985   3.849  0.2171 -0.4564  0.1285
 8420TIP3   OH246750   0.787   3.706  13.269  0.0375  0.4409 -0.3742
 8420TIP3    H146751   0.852   3.730  13.202  1.7304  1.8266  1.6146
 8420TIP3    H246752   0.811   3.760  13.345 -0.3723 -2.6189  2.1079
 8421TIP3   OH246753   0.288   5.147  10.935 -0.0947 -0.3226 -0.9079
 8421TIP3    H146754   0.381   5.139  10.957  0.0167 -0.6586 -1.4882
 8421TIP3    H246755   0.274   5.084  10.864 -0.7976 -0.3810 -0.7301
 8422TIP3   OH246756   3.165   3.772   4.157  0.4396 -0.1928  0.6085
 8422TIP3    H146757   3.122   3.728   4.230  0.5155  0.4782  1.0710
 8422TIP3    H246758   3.109   3.848   4.139 -0.0405 -0.8081 -0.5957
 8423TIP3   OH246759   6.520   2.837  12.438 -0.8023 -0.2927 -0.0076
 8423TIP3    H146760   6.590   2.900  12.455  1.6059 -2.1668 -2.1277
 8423TIP3    H246761   6.561   2.752  12.452 -2.2967 -1.5058 -2.3140
 8424TIP3   OH246762   0.659   3.223   4.566 -0.5171 -0.3205  0.2926
 8424TIP3    H146763   0.702   3.281   4.503 -1.6275 -1.7182 -1.8855
 8424TIP3    H246764   0.567   3.252   4.566 -0.8674 -1.3739 -0.0412
 8425TIP3   OH246765   4.131   5.208  13.621  0.4139 -0.4599 -0.2788
 8425TIP3    H146766   4.147   5.217  13.715  1.9094 -1.1805 -0.4334
 8425TIP3    H246767   4.058   5.147  13.614  1.9522 -2.4953  0.4167
 8426TIP3   OH246768   5.628   6.624   1.842  0.2286 -0.1313  0.3135
 8426TIP3    H146769   5.618   6.671   1.759 -0.0983  0.4419  0.6732
 8426TIP3    H246770   5.700   6.563   1.826  1.3323  1.1707  0.1572
 8427TIP3   OH246771   5.928   3.707   4.292 -0.2489 -0.7588  0.2352
 8427TIP3    H146772   5.973   3.667   4.217 -2.1896 -0.7608 -0.9838
 8427TIP3    H246773   5.950   3.649   4.365  0.5925 -1.5282 -0.5839
 8428TIP3   OH246774   5.194   3.349  15.770 -0.2560  0.4400 -0.8865
 8428TIP3    H146775   5.109   3.372  15.732  0.1431  0.0825 -2.0212
 8428TIP3    H246776   5.195   3.394  15.855 -1.0542  1.5005 -1.4083
 8429TIP3   OH246777   1.251   3.107  16.684 -0.1644 -0.0785  0.0655
 8429TIP3    H146778   1.162   3.098  16.650 -0.4506  2.3234 -0.0121
 8429TIP3    H246779   1.259   3.039  16.750 -2.4712  0.3400  0.8616
 8430TIP3   OH246780   4.140   5.715  14.073 -0.2678  0.0623 -0.1808
 8430TIP3    H146781   4.155   5.783  14.007  1.7863 -0.1377  0.0359
 8430TIP3    H246782   4.207   5.649  14.057 -0.2339 -0.3943  1.5775
 8431TIP3   OH246783   1.212   6.221  11.679  0.0443 -0.1949 -0.2284
 8431TIP3    H146784   1.208   6.130  11.652 -1.2799 -0.0385 -0.6577
 8431TIP3    H246785   1.270   6.222  11.755  0.0030 -1.3998 -0.1651
 8432TIP3   OH246786   3.547   3.176  13.869 -0.2560  0.2022 -0.3013
 8432TIP3    H146787   3.458   3.162  13.903 -0.1226 -2.3400 -0.7491
 8432TIP3    H246788   3.602   3.179  13.948 -0.5264 -0.3212 -0.0866
 8433TIP3   OH246789   4.732   1.401   3.808 -0.0477  0.0347 -0.3729
 8433TIP3    H146790   4.765   1.488   3.833 -1.3529  0.6208 -0.5648
 8433TIP3    H246791   4.707   1.361   3.891 -0.8751  0.4759 -0.3962
 8434TIP3   OH246792   1.608   6.741   2.568  0.1917 -0.0235  0.3689
 8434TIP3    H146793   1.605   6.832   2.538  1.0371 -0.0676  0.1284
 8434TIP3    H246794   1.687   6.735   2.621 -0.4064 -0.3670  1.2645
 8435TIP3   OH246795   5.205   4.340  15.142  0.1000 -0.0015  0.1382
 8435TIP3    H146796   5.236   4.429  15.126 -0.2895 -0.0599 -1.0610
 8435TIP3    H246797   5.159   4.316  15.062 -3.0085  0.0767  1.7357
 8436TIP3   OH246798   3.821   4.102  10.936  0.0077  0.3097  0.0824
 8436TIP3    H146799   3.841   4.010  10.955  0.1756  0.5377  1.0791
 8436TIP3    H246800   3.727   4.110  10.954 -0.1432  0.1907 -0.6269
 8437TIP3   OH246801   6.172   6.035  15.625 -0.3400  0.0209  0.7292
 8437TIP3    H146802   6.159   5.979  15.702  0.9342 -2.7950 -0.9541
 8437TIP3    H246803   6.084   6.058  15.597 -0.9377 -1.5530  1.2327
 8438TIP3   OH246804   1.282   1.013   0.771  0.1582 -0.1976 -0.0860
 8438TIP3    H146805   1.322   0.947   0.715  1.0868 -0.1289  0.4761
 8438TIP3    H246806   1.321   1.096   0.743  0.1341 -0.0814  0.2137
 8439TIP3   OH246807   3.182   3.734  15.780  0.0053  0.4339 -0.0986
 8439TIP3    H146808   3.273   3.706  15.772  0.3238  1.8042 -2.1075
 8439TIP3    H246809   3.131   3.655  15.764  0.7639 -0.5874  2.1053
 8440TIP3   OH246810   1.273   4.348  13.909 -0.9322 -0.2044  0.3239
 8440TIP3    H146811   1.310   4.351  13.997 -1.5048 -0.1839  0.5688
 8440TIP3    H246812   1.187   4.307  13.921 -1.8654  1.5910  0.0750
 8441TIP3   OH246813   2.167   6.309   1.287 -0.8749  0.0736 -0.6153
 8441TIP3    H146814   2.090   6.330   1.338  1.2754  2.8038  1.8828
 8441TIP3    H246815   2.201   6.394   1.259  1.3761 -0.9781 -1.3589
 8442TIP3   OH246816   3.149   4.107  16.105  0.4014 -0.4072 -0.1850
 8442TIP3    H146817   3.230   4.158  16.104  0.2031 -0.0817  0.2590
 8442TIP3    H246818   3.096   4.143  16.034  1.4638 -1.9769 -1.8685
 8443TIP3   OH246819   0.986   4.990   5.111 -0.3312  0.4682 -0.3147
 8443TIP3    H146820   0.908   5.043   5.128 -0.3885  0.7665 -1.4063
 8443TIP3    H246821   1.052   5.024   5.171 -0.9353  0.4301  0.3909
 8444TIP3   OH246822   6.422   1.496   5.458  0.1314 -0.0342  0.0431
 8444TIP3    H146823   6.443   1.403   5.453 -0.5814 -0.1536 -1.3740
 8444TIP3    H246824   6.389   1.509   5.547 -0.7630 -1.3829 -0.0607
 8445TIP3   OH246825   4.733   2.404  12.468  0.5580  0.3593  0.2835
 8445TIP3    H146826   4.825   2.429  12.469  0.1593  1.9526  0.2663
 8445TIP3    H246827   4.698   2.443  12.387  0.2894 -1.9940 -0.8366
 8446TIP3   OH246828   5.664   1.316   0.876 -0.0644 -0.6623 -0.0052
 8446TIP3    H146829   5.569   1.320   0.888 -0.0980 -1.2610 -0.0225
 8446TIP3    H246830   5.692   1.242   0.931  0.6852  0.8130  1.7110
 8447TIP3   OH246831   6.031   1.021   6.267 -0.0761 -0.4426  0.2982
 8447TIP3    H146832   5.970   1.045   6.337 -1.2869 -1.6618 -0.2976
 8447TIP3    H246833   6.117   1.021   6.310 -0.7102 -0.5447  1.6447
 8448TIP3   OH246834   5.551   2.584  15.425 -0.7170  0.5326 -0.5132
 8448TIP3    H146835   5.584   2.504  15.385 -0.7739  0.3711 -0.2347
 8448TIP3    H246836   5.457   2.582  15.409 -0.7102  0.5808 -0.5647
 8449TIP3   OH246837   6.438   0.393  15.159 -0.2678 -1.0083 -0.2017
 8449TIP3    H146838   6.507   0.443  15.202  0.2127  0.4426 -2.4390
 8449TIP3    H246839   6.374   0.459  15.130 -0.9141 -1.9504 -1.0397
 8450TIP3   OH246840   2.625   0.366   5.619 -0.5385  0.5027 -0.2299
 8450TIP3    H146841   2.697   0.316   5.656 -1.4654 -0.6603  0.0446
 8450TIP3    H246842   2.660   0.403   5.538  0.0559 -0.9509 -0.6657
 8451TIP3   OH246843   2.051   1.612   3.585  0.0930 -0.2178  0.3918
 8451TIP3    H146844   2.022   1.592   3.496  2.6125  0.5641 -0.6858
 8451TIP3    H246845   2.078   1.703   3.582 -0.1415 -0.0569  2.0853
 8452TIP3   OH246846   2.117   1.908  16.470  0.2426  0.0894  0.0955
 8452TIP3    H146847   2.068   1.866  16.399 -0.8557 -0.0420  0.9204
 8452TIP3    H246848   2.189   1.954  16.425 -0.9792  0.7964 -1.2043
 8453TIP3   OH246849   0.945   6.764   0.299  0.0373  0.6251  0.5570
 8453TIP3    H146850   0.991   6.724   0.372  0.4231  2.9966  1.7036
 8453TIP3    H246851   0.864   6.799   0.337 -0.0717  1.3339 -0.2780
 8454TIP3   OH246852   5.354   0.724  12.949  0.2735 -0.5755 -0.6103
 8454TIP3    H146853   5.309   0.646  12.916  0.4675 -0.9044 -0.1163
 8454TIP3    H246854   5.413   0.690  13.017  0.0949  0.0489 -0.1371
 8455TIP3   OH246855   1.245   3.434   5.549 -0.5455 -0.2948 -0.2436
 8455TIP3    H146856   1.305   3.397   5.612 -0.3345  2.1314  1.1029
 8455TIP3    H246857   1.299   3.456   5.473  0.7130  3.0571  1.4369
 8456TIP3   OH246858   3.113   2.376   1.948 -0.0571 -0.5662 -0.0624
 8456TIP3    H146859   3.070   2.422   2.020 -0.4790 -1.1897  0.0959
 8456TIP3    H246860   3.186   2.329   1.990 -0.2375 -0.8431 -0.0567
 8457TIP3   OH246861   2.752   1.108  11.948  0.3824  0.2518 -0.2356
 8457TIP3    H146862   2.819   1.176  11.943 -0.7934  1.4465 -0.3466
 8457TIP3    H246863   2.756   1.076  12.038  1.0736  0.3214 -0.2366
 8458TIP3   OH246864   6.095   6.469   2.437  0.4802  0.0954 -0.6435
 8458TIP3    H146865   6.143   6.400   2.483  0.0817 -0.4913 -1.0960
 8458TIP3    H246866   6.130   6.467   2.348 -1.1678 -1.1253 -1.3090
 8459TIP3   OH246867   2.723   6.712  16.413 -0.4299 -0.0191  0.5002
 8459TIP3    H146868   2.780   6.635  16.414 -0.1235  0.2073  0.6963
 8459TIP3    H246869   2.658   6.695  16.481 -0.6098 -0.2913  0.2568
 8460TIP3   OH246870   5.587   1.986  12.308 -0.1046  0.1693  0.0556
 8460TIP3    H146871   5.564   1.895  12.327 -2.1622  0.5491 -0.3659
 8460TIP3    H246872   5.658   2.006  12.370  0.7591 -1.8380 -0.1891
 8461TIP3   OH246873   3.426   0.944  16.349 -0.0270 -0.3379 -0.4662
 8461TIP3    H146874   3.510   0.909  16.378  0.3024 -0.2333 -1.2623
 8461TIP3    H246875   3.418   0.914  16.258  0.5381  2.0979 -1.3958
 8462TIP3   OH246876   2.305   2.804  10.472  0.0350 -0.1226  0.0352
 8462TIP3    H146877   2.233   2.756  10.431 -0.3671 -0.0608  0.6581
 8462TIP3    H246878   2.280   2.896  10.466  0.0438 -0.1026  0.2839
 8463TIP3   OH246879   3.118   1.241   0.976  0.0974 -0.3502  0.1595
 8463TIP3    H146880   3.069   1.302   0.920 -1.3203 -1.5529  0.0440
 8463TIP3    H246881   3.110   1.278   1.064  1.6763  1.1335 -0.2767
 8464TIP3   OH246882   0.723   3.587   1.565  0.1619  0.1094 -0.5342
 8464TIP3    H146883   0.759   3.666   1.524 -0.0736 -0.2228 -1.4070
 8464TIP3    H246884   0.650   3.618   1.618  0.8599  0.6227  0.1470
 8465TIP3   OH246885   4.804   6.759  12.334 -0.6786 -0.2694 -0.2782
 8465TIP3    H146886   4.809   6.855  12.335  2.0559 -0.3326  0.2027
 8465TIP3    H246887   4.789   6.735  12.426 -2.5802 -0.3196 -0.5690
 8466TIP3   OH246888   3.663   1.993   5.600 -0.2336 -0.6690 -0.0030
 8466TIP3    H146889   3.751   1.961   5.583 -0.8580 -0.7050 -4.3100
 8466TIP3    H246890   3.606   1.939   5.545 -2.5889  1.1728  0.4070
 8467TIP3   OH246891   3.259   2.418   5.169  0.0833 -0.5529  0.0907
 8467TIP3    H146892   3.226   2.367   5.242 -0.6219 -0.5035 -0.1931
 8467TIP3    H246893   3.279   2.354   5.101  0.1761 -0.5431  0.1080
 8468TIP3   OH246894   0.979   0.766  13.051 -0.0491 -0.7422  0.4041
 8468TIP3    H146895   0.898   0.802  13.015 -0.7395 -1.4493  1.2198
 8468TIP3    H246896   1.041   0.839  13.047 -0.9129  0.0045  0.3900
 8469TIP3   OH246897   3.219   5.911  15.581  0.0100  0.4621 -0.2319
 8469TIP3    H146898   3.208   5.900  15.676  0.7850  1.8467  0.0498
 8469TIP3    H246899   3.138   5.953  15.553 -1.0281 -1.6193 -0.5464
 8470TIP3   OH246900   2.946   4.184  16.541 -0.2928 -0.3385 -0.1595
 8470TIP3    H146901   3.037   4.192  16.514  0.1554  0.1239  1.3885
 8470TIP3    H246902   2.949   4.132  16.621 -1.0939  1.6056  1.2173
 8471TIP3   OH246903   3.798   2.594  14.962  0.0392 -0.0448  0.1872
 8471TIP3    H146904   3.763   2.538  15.033 -1.6780  0.1400 -0.4644
 8471TIP3    H246905   3.857   2.537  14.914 -1.0355 -1.0879  0.0447
 8472TIP3   OH246906   1.214   5.833  12.903  0.3636 -0.1646  0.5248
 8472TIP3    H146907   1.243   5.886  12.977  0.0588  0.1724  0.4037
 8472TIP3    H246908   1.295   5.810  12.857  0.5215 -0.0659  0.7529
 8473TIP3   OH246909   2.432   1.098   0.015 -0.7632  0.0641  0.1913
 8473TIP3    H146910   2.394   1.040  -0.052  2.9231 -1.2862 -0.9572
 8473TIP3    H246911   2.421   1.186  -0.021 -3.5929 -0.0732  0.4621
 8474TIP3   OH246912   5.452   5.700   5.785 -0.2626 -0.2189 -0.0057
 8474TIP3    H146913   5.496   5.615   5.782 -1.5540 -0.9051  0.0596
 8474TIP3    H246914   5.412   5.708   5.698 -0.6832  0.0263  0.2105
 8475TIP3   OH246915   2.931   1.064  11.416  0.2240  0.3008  0.5416
 8475TIP3    H146916   2.904   1.131  11.353 -0.3332 -0.2734  0.1576
 8475TIP3    H246917   2.920   1.105  11.501  0.6687  0.9734  0.2781
 8476TIP3   OH246918   5.239   4.723  16.499 -0.3016  0.1590  0.4479
 8476TIP3    H146919   5.221   4.640  16.543  0.2439 -0.8145 -1.0943
 8476TIP3    H246920   5.204   4.789  16.558 -1.0361 -1.1762  1.5673
 8477TIP3   OH246921   2.781   5.319   1.493  0.7538 -0.1872 -0.1239
 8477TIP3    H146922   2.778   5.404   1.450  0.5313 -0.1615 -0.0590
 8477TIP3    H246923   2.841   5.332   1.567  1.6403 -0.4052 -0.7895
 8478TIP3   OH246924   1.760   6.783  16.477  0.5937 -0.2112 -0.4254
 8478TIP3    H146925   1.743   6.846  16.547  0.3781 -0.0705 -0.6019
 8478TIP3    H246926   1.800   6.709  16.521  0.6977 -0.0181 -0.1910
 8479TIP3   OH246927   0.240   1.450  11.642 -0.0267  0.0824  0.3185
 8479TIP3    H146928   0.260   1.377  11.584  3.0255 -0.2517  1.5861
 8479TIP3    H246929   0.153   1.479  11.615 -0.3802 -2.5036 -1.7643
 8480TIP3   OH246930   5.777   5.426   0.405  0.0848 -0.1961  0.0459
 8480TIP3    H146931   5.741   5.467   0.326 -0.3985 -1.2339 -0.2890
 8480TIP3    H246932   5.818   5.498   0.452  0.1554  0.4954 -1.0264
 8481TIP3   OH246933   5.176   3.321  15.233  0.0371  0.2885 -0.4933
 8481TIP3    H146934   5.216   3.378  15.299  2.1639 -0.8593 -0.7082
 8481TIP3    H246935   5.206   3.357  15.149 -2.0499  1.2976 -0.8836
 8482TIP3   OH246936   5.714   3.324   0.807 -0.3887 -0.0999 -0.0814
 8482TIP3    H146937   5.714   3.397   0.869  0.4632  0.3599 -0.5921
 8482TIP3    H246938   5.807   3.300   0.799 -0.6499 -1.1894  0.0158
 8483TIP3   OH246939   6.217   2.909   2.457  0.9955 -0.1704  0.5112
 8483TIP3    H146940   6.295   2.883   2.408  0.2021  0.4584 -1.1605
 8483TIP3    H246941   6.221   3.004   2.460 -0.2672 -0.0512 -0.6186
 8484TIP3   OH246942   3.606   3.720   5.240 -0.1345  0.0056  1.1536
 8484TIP3    H146943   3.524   3.703   5.193  0.2310  0.4015  0.3342
 8484TIP3    H246944   3.579   3.769   5.318 -0.7458 -0.5185  1.2763
 8485TIP3   OH246945   4.635   4.769  13.249  0.0195 -0.2487  0.0486
 8485TIP3    H146946   4.699   4.832  13.283  0.8164  0.0078 -1.7881
 8485TIP3    H246947   4.597   4.729  13.327  2.4368 -0.4237  1.2389
 8486TIP3   OH246948   6.728   1.372  12.235 -0.1024 -0.1084  0.1149
 8486TIP3    H146949   6.790   1.445  12.225  0.1231 -0.5593 -2.3400
 8486TIP3    H246950   6.642   1.414  12.239  0.0374  0.3353 -1.1584
 8487TIP3   OH246951   0.612   3.939   1.035 -0.5577  0.2618  0.0750
 8487TIP3    H146952   0.573   4.008   1.089  1.4975  2.6453 -1.2546
 8487TIP3    H246953   0.541   3.910   0.977 -1.3023  1.8591  0.1374
 8488TIP3   OH246954   5.689   5.879  12.359 -0.0610 -0.0992 -0.1208
 8488TIP3    H146955   5.758   5.813  12.354  0.8789  0.8882 -0.6652
 8488TIP3    H246956   5.610   5.833  12.330  0.4688 -1.1037 -0.0285
 8489TIP3   OH246957   5.856   5.468   5.322 -0.2704  0.4266  0.0078
 8489TIP3    H146958   5.872   5.447   5.230  0.2568  1.1775 -0.0831
 8489TIP3    H246959   5.802   5.547   5.319 -2.3771 -0.9372  0.3396
 8490TIP3   OH246960   2.581   5.360  12.921  0.7102  0.3646 -0.1547
 8490TIP3    H146961   2.485   5.351  12.919  0.8099 -0.9159 -1.5693
 8490TIP3    H246962   2.609   5.304  12.993  0.3347  1.7843  1.1263
 8491TIP3   OH246963   3.293   0.649   3.068 -0.5701  0.2211 -0.2255
 8491TIP3    H146964   3.360   0.603   3.119 -0.4357  0.1412 -0.4728
 8491TIP3    H246965   3.232   0.683   3.134  0.5044  1.5867  0.1002
 8492TIP3   OH246966   5.819   6.464   1.707  0.0502  0.1113 -0.3146
 8492TIP3    H146967   5.893   6.514   1.742 -0.5069  0.9950 -0.3682
 8492TIP3    H246968   5.825   6.475   1.613 -0.0557  0.0494 -0.3291
 8493TIP3   OH246969   1.503   0.962   1.430  0.3792  0.6198  0.2653
 8493TIP3    H146970   1.479   1.016   1.505  0.4809  0.4236  0.4429
 8493TIP3    H246971   1.421   0.926   1.398  0.0583  2.4586 -1.1002
 8494TIP3   OH246972   3.582   3.039   2.044  0.4694  0.0061  0.4148
 8494TIP3    H146973   3.489   3.019   2.037  0.2749  0.6547  1.0655
 8494TIP3    H246974   3.587   3.133   2.030  1.1566 -0.1702 -0.6787
 8495TIP3   OH246975   0.012   4.265  13.123 -0.2747  0.6041  0.5546
 8495TIP3    H146976   0.096   4.253  13.167 -0.3554 -2.6858  0.0228
 8495TIP3    H246977   0.034   4.269  13.030 -0.5544  2.2283  0.5318
 8496TIP3   OH246978   4.208   1.251   2.408 -0.9260  0.2224  0.1324
 8496TIP3    H146979   4.200   1.204   2.325 -0.1496  2.4972 -1.3187
 8496TIP3    H246980   4.250   1.189   2.467  0.1572 -0.8803 -1.7110
 8497TIP3   OH246981   1.439   3.736  16.226  0.1604 -0.2060 -0.3160
 8497TIP3    H146982   1.426   3.671  16.156  0.3313 -0.4981 -0.0812
 8497TIP3    H246983   1.442   3.684  16.306  0.5551  0.0692 -0.1491
 8498TIP3   OH246984   6.256   6.380  17.074 -0.2607 -0.4764 -0.1820
 8498TIP3    H146985   6.308   6.459  17.089  0.6880 -0.8794 -1.1842
 8498TIP3    H246986   6.192   6.405  17.008 -1.9682  0.2557  1.6529
 8499TIP3   OH246987   3.543   6.669   0.674  0.8338  0.2400 -0.2910
 8499TIP3    H146988   3.600   6.708   0.740  1.4469  0.5854 -1.0170
 8499TIP3    H246989   3.463   6.723   0.677  0.9751  0.4383 -0.0394
 8500TIP3   OH246990   4.314   6.287  14.608  0.6220  0.3858 -0.1589
 8500TIP3    H146991   4.388   6.298  14.547  1.1840  1.9435  0.7330
 8500TIP3    H246992   4.326   6.357  14.672 -0.4607 -0.6570  1.2330
 8501TIP3   OH246993   4.910   0.704  14.104 -0.1074  0.1300 -0.4078
 8501TIP3    H146994   4.918   0.799  14.114  0.5809  0.3676 -2.6196
 8501TIP3    H246995   4.973   0.681  14.036 -2.3665 -1.4293 -2.1804
 8502TIP3   OH246996   3.511   2.653  16.270  0.0250 -0.0154  0.4998
 8502TIP3    H146997   3.595   2.617  16.299  0.1279 -0.4664 -0.3539
 8502TIP3    H246998   3.531   2.744  16.248  0.1159  0.1028  1.0438
 8503TIP3   OH246999   4.641   3.672   0.369 -0.1135 -0.2837 -0.0213
 8503TIP3    H147000   4.580   3.720   0.315  1.1317  0.5707 -0.7193
 8503TIP3    H247001   4.713   3.733   0.386  1.1213 -1.6015 -0.2336
 8504TIP3   OH247002   1.630   5.713  12.897 -0.6218  0.0507 -0.3444
 8504TIP3    H147003   1.688   5.778  12.858 -1.1096  0.2329 -0.7676
 8504TIP3    H247004   1.652   5.631  12.852 -0.1763 -0.0354  0.0203
 8505TIP3   OH247005   4.246   1.413   1.221  0.0884  0.1001 -0.4394
 8505TIP3    H147006   4.276   1.324   1.205  1.2744  0.2290  0.8501
 8505TIP3    H247007   4.153   1.404   1.240 -0.0218 -0.7297 -1.2756
 8506TIP3   OH247008   0.590   5.018  10.604 -0.2609 -0.4433  0.0063
 8506TIP3    H147009   0.677   5.038  10.571  0.1903 -1.1459  0.7200
 8506TIP3    H247010   0.536   5.091  10.577  0.2191 -0.6988 -1.7342
 8507TIP3   OH247011   6.007   1.701   0.761 -0.2360 -0.0117 -0.0293
 8507TIP3    H147012   5.998   1.768   0.829 -1.2355  0.8932 -1.0168
 8507TIP3    H247013   6.091   1.719   0.720  0.6516 -0.9177  1.2890
 8508TIP3   OH247014   5.798   0.557   0.063 -0.6725  0.5117 -0.0882
 8508TIP3    H147015   5.786   0.464   0.081 -0.8825  0.3807 -0.8794
 8508TIP3    H247016   5.719   0.598   0.095 -2.0038  0.0260 -2.5131
 8509TIP3   OH247017   2.390   1.967  14.126 -0.2957  0.1684 -0.2767
 8509TIP3    H147018   2.444   2.021  14.068 -0.7467 -0.9747 -1.8558
 8509TIP3    H247019   2.450   1.936  14.193  0.6027  0.3711 -0.9703
 8510TIP3   OH247020   6.588   2.575  15.532  0.0660  0.5552  0.6078
 8510TIP3    H147021   6.607   2.597  15.623  0.8142 -0.9229  0.8288
 8510TIP3    H247022   6.496   2.547  15.533 -0.0747  1.0038  0.7998
 8511TIP3   OH247023   1.920   3.208  12.459  0.1912  0.4251  0.4915
 8511TIP3    H147024   1.954   3.297  12.452  0.1317  0.5910  2.0472
 8511TIP3    H247025   1.859   3.199  12.386  3.6633  0.0157 -2.6507
 8512TIP3   OH247026   3.404   1.489   2.840 -0.1180 -0.1492  0.5426
 8512TIP3    H147027   3.355   1.411   2.864  0.3044 -0.3209  0.8731
 8512TIP3    H247028   3.463   1.460   2.770 -2.3570  0.6754 -1.8710
 8513TIP3   OH247029   5.169   2.061  13.634  0.5635  0.3335 -0.2649
 8513TIP3    H147030   5.242   2.076  13.695 -0.0678  3.9781 -0.1728
 8513TIP3    H247031   5.203   2.088  13.549 -0.6337  2.3790 -0.1727
 8514TIP3   OH247032   3.134   2.073   3.694 -0.2357  0.2286 -0.2461
 8514TIP3    H147033   3.103   2.066   3.604  1.1845 -0.8755 -0.7018
 8514TIP3    H247034   3.142   2.167   3.710 -3.0995  0.5738 -0.2765
 8515TIP3   OH247035   5.457   1.508  11.115 -0.2414  0.8026  0.1665
 8515TIP3    H147036   5.551   1.496  11.132 -0.2243  0.5508 -0.1009
 8515TIP3    H247037   5.423   1.548  11.196 -0.0588  0.1192  0.5857
 8516TIP3   OH247038   3.261   6.644  10.709 -0.1086  0.0643  0.2306
 8516TIP3    H147039   3.325   6.714  10.722 -0.4166  0.1426  1.4277
 8516TIP3    H247040   3.178   6.681  10.738 -0.2509 -0.8371  1.0434
 8517TIP3   OH247041   0.585   0.106  16.171 -0.3865  0.3341  0.0726
 8517TIP3    H147042   0.546   0.162  16.104 -0.3300  0.6448  0.2976
 8517TIP3    H247043   0.643   0.047  16.122  1.9591  2.4578  0.0936
 8518TIP3   OH247044   4.401   6.612   2.790  0.1621  0.1742  0.0718
 8518TIP3    H147045   4.374   6.554   2.719 -0.0186  1.6743 -1.1491
 8518TIP3    H247046   4.340   6.686   2.785  1.0506  0.9952  0.8390
 8519TIP3   OH247047   5.860   4.380  11.579 -0.0378  0.8115  0.5610
 8519TIP3    H147048   5.827   4.466  11.605 -1.8621  0.5086 -0.5499
 8519TIP3    H247049   5.810   4.359  11.500  3.1055  0.4234 -1.5219
 8520TIP3   OH247050   0.636   2.280  15.174  0.1527  0.5829 -0.3318
 8520TIP3    H147051   0.596   2.290  15.087 -1.6185  0.3351  0.4238
 8520TIP3    H247052   0.632   2.186  15.192 -4.3258  0.9814  2.0961
 8521TIP3   OH247053   0.090   3.860  14.635 -0.0605 -0.4582  0.0618
 8521TIP3    H147054   0.126   3.795  14.574  0.1705  0.6696 -1.0359
 8521TIP3    H247055   0.163   3.879  14.695  1.4383  2.0343 -2.3317
 8522TIP3   OH247056   3.062   3.281   5.103  0.0009 -0.1513 -0.0325
 8522TIP3    H147057   3.012   3.332   5.040 -1.7876  0.6416  1.9068
 8522TIP3    H247058   3.041   3.190   5.082  0.4044  0.0228 -1.2974
 8523TIP3   OH247059   3.736   5.489  17.058  0.1979 -0.2280  0.0749
 8523TIP3    H147060   3.683   5.411  17.077  1.4348 -1.4075 -1.0058
 8523TIP3    H247061   3.674   5.561  17.057 -1.2236 -1.4057 -0.1388
 8524TIP3   OH247062   5.442   1.414  15.777  0.4580  0.6336 -0.3073
 8524TIP3    H147063   5.432   1.507  15.754 -0.2206  0.9135  0.9977
 8524TIP3    H247064   5.362   1.373  15.744 -0.7125  1.1101  1.7418
 8525TIP3   OH247065   5.140   1.201   6.551  0.6499 -0.0657  0.1717
 8525TIP3    H147066   5.138   1.297   6.548  0.9071  0.1034  2.7557
 8525TIP3    H247067   5.050   1.176   6.568  0.8846 -0.0866  1.5661
 8526TIP3   OH247068   3.997   1.237   5.611 -0.3938  1.0212  0.3408
 8526TIP3    H147069   3.953   1.220   5.695 -0.1703  0.7976  0.4155
 8526TIP3    H247070   4.077   1.185   5.616 -1.9741 -1.8666 -1.4085
 8527TIP3   OH247071   5.269   5.300  12.040  0.3818 -0.4502  0.1951
 8527TIP3    H147072   5.287   5.386  12.003  1.4191  0.1480  1.9614
 8527TIP3    H247073   5.349   5.249  12.023 -0.4420 -1.3095 -1.3633
 8528TIP3   OH247074   0.746   3.262  14.489 -0.1303 -0.1824 -0.6155
 8528TIP3    H147075   0.775   3.337  14.438 -2.9189  1.6790  0.3379
 8528TIP3    H247076   0.681   3.218  14.434 -2.0823  1.0046  0.6267
 8529TIP3   OH247077   0.859   2.580   2.101 -0.5254 -0.1436  0.0799
 8529TIP3    H147078   0.868   2.649   2.036  0.1118 -0.7796 -0.5277
 8529TIP3    H247079   0.944   2.578   2.146 -0.7644 -0.0954  0.5377
 8530TIP3   OH247080   5.415   6.102   2.173  0.1524 -0.3990 -0.6377
 8530TIP3    H147081   5.459   6.186   2.188  0.6652 -0.8817  0.6230
 8530TIP3    H247082   5.479   6.050   2.124  1.2198 -1.2463  1.5490
 8531TIP3   OH247083   1.839   0.135   6.360  0.0606 -0.7765  0.4768
 8531TIP3    H147084   1.821   0.071   6.429  0.9603 -0.8385  0.6652
 8531TIP3    H247085   1.787   0.211   6.384 -0.5329 -1.2090  0.5914
 8532TIP3   OH247086   2.092   3.034  14.269 -0.2350  0.0226  0.1496
 8532TIP3    H147087   2.174   3.045  14.318  0.4124 -1.8511 -0.3978
 8532TIP3    H247088   2.120   3.012  14.180 -1.3798  4.0379 -1.4076
 8533TIP3   OH247089   1.060   3.798  11.226  0.0851 -0.0445 -0.1888
 8533TIP3    H147090   1.061   3.867  11.159 -1.7078  0.1897 -0.0142
 8533TIP3    H247091   1.130   3.824  11.287  1.9551 -0.4083 -2.0401
 8534TIP3   OH247092   2.964   3.790   0.763 -0.3388  0.7741  0.0493
 8534TIP3    H147093   2.960   3.729   0.837  0.5368  1.1773  0.4366
 8534TIP3    H247094   2.905   3.861   0.787  0.5853  1.3206  0.7587
 8535TIP3   OH247095   2.722   4.824  15.416  0.6922 -0.1498  0.1178
 8535TIP3    H147096   2.805   4.848  15.457  0.7843 -1.4383  0.7207
 8535TIP3    H247097   2.667   4.901  15.428  0.7612 -0.3926  2.5453
 8536TIP3   OH247098   3.852   1.812  12.999  0.0279  0.3156  0.3875
 8536TIP3    H147099   3.940   1.818  12.963 -0.0152  1.1808  0.4032
 8536TIP3    H247100   3.801   1.766  12.932  0.3821  0.2096  0.1875
 8537TIP3   OH247101   3.018   6.049  16.685  0.9228 -0.6856  0.7752
 8537TIP3    H147102   3.091   6.074  16.742  0.9503 -0.5373  0.6731
 8537TIP3    H247103   2.977   6.132  16.662  0.9153 -0.7477  0.5715
 8538TIP3   OH247104   6.598   5.523   2.932 -0.1366  0.0036 -0.5126
 8538TIP3    H147105   6.531   5.488   2.990  0.1037 -5.7448 -3.0634
 8538TIP3    H247106   6.669   5.550   2.990 -1.2205 -2.1577  2.0147
 8539TIP3   OH247107   3.096   0.388  16.104  0.5494 -0.2213 -0.0338
 8539TIP3    H147108   3.124   0.303  16.139 -0.3311 -1.0501 -1.2931
 8539TIP3    H247109   3.001   0.385  16.105  0.4400  1.6433  1.9511
 8540TIP3   OH247110   4.650   3.632  16.256  0.0853  0.2333  0.0558
 8540TIP3    H147111   4.707   3.674  16.320  0.6911  1.4999 -1.2405
 8540TIP3    H247112   4.710   3.588  16.196 -0.3884  0.1166 -0.3377
 8541TIP3   OH247113   1.166   5.011  16.784 -0.0517  0.2425 -0.1417
 8541TIP3    H147114   1.197   4.998  16.873 -0.7663  0.8379  0.2072
 8541TIP3    H247115   1.158   4.923  16.748 -1.7215 -0.1393  1.0677
 8542TIP3   OH247116   0.761   6.637   6.361 -0.3390  0.2771 -0.0183
 8542TIP3    H147117   0.786   6.715   6.311  0.1091 -0.8678 -1.6732
 8542TIP3    H247118   0.691   6.597   6.308 -1.6618  0.3440  1.5932
 8543TIP3   OH247119   2.822   1.600  13.309 -0.0100 -0.6584 -0.8941
 8543TIP3    H147120   2.864   1.682  13.283  1.3690 -0.8021  0.6898
 8543TIP3    H247121   2.838   1.541  13.236  2.0946 -0.5171 -0.6240
 8544TIP3   OH247122   3.119   1.261   5.049  0.2514 -0.0323  0.0794
 8544TIP3    H147123   3.194   1.235   4.996  1.2394 -0.4610  1.6197
 8544TIP3    H247124   3.153   1.329   5.107 -0.7647  0.3573  0.2393
 8545TIP3   OH247125   1.516   6.391  12.109 -0.1040  0.2544  0.2165
 8545TIP3    H147126   1.478   6.311  12.146  1.7111 -1.2456 -0.9982
 8545TIP3    H247127   1.483   6.395  12.020  2.9973 -1.5775 -1.1859
 8546TIP3   OH247128   0.774   4.481  13.663 -0.5434 -0.0883 -0.0147
 8546TIP3    H147129   0.811   4.535  13.734  1.5507 -0.8124 -0.4688
 8546TIP3    H247130   0.741   4.545  13.600  2.3765  0.8010 -0.8056
 8547TIP3   OH247131   5.952   5.751  15.510 -0.1282  0.7159 -0.0470
 8547TIP3    H147132   5.947   5.785  15.599  0.1775  0.5401  0.0389
 8547TIP3    H247133   5.885   5.682  15.507  0.1204  0.4613  0.1652
 8548TIP3   OH247134   3.860   6.817   5.362  0.1924  0.4093  0.0922
 8548TIP3    H147135   3.781   6.794   5.411  0.2341 -0.9608 -0.4729
 8548TIP3    H247136   3.932   6.779   5.413  1.0168  4.5951  2.6450
 8549TIP3   OH247137   6.108   1.350  13.946 -0.0725  0.0714 -0.2473
 8549TIP3    H147138   6.057   1.421  13.909  0.0792  0.1194 -0.3640
 8549TIP3    H247139   6.086   1.273  13.893  0.7072  0.2968 -0.9116
 8550TIP3   OH247140   6.279   1.382   2.070 -0.0179  0.1232 -0.0440
 8550TIP3    H147141   6.200   1.336   2.101  1.1287 -1.3616  0.8456
 8550TIP3    H247142   6.288   1.456   2.130 -1.0730  0.6940 -0.5589
 8551TIP3   OH247143   0.952   0.707  15.650  0.3035  0.8063  0.0181
 8551TIP3    H147144   1.038   0.741  15.625 -0.5697  3.1180 -0.1058
 8551TIP3    H247145   0.913   0.677  15.568  0.4772  0.9854 -0.1309
 8552TIP3   OH247146   6.745   5.356  15.333 -0.3358 -0.0485  0.8455
 8552TIP3    H147147   6.834   5.330  15.309 -1.3452 -2.6987 -0.4674
 8552TIP3    H247148   6.750   5.451  15.344  2.3676  0.0708 -0.5126
 8553TIP3   OH247149   3.748   3.559  16.898  0.6794 -0.3268  0.0147
 8553TIP3    H147150   3.797   3.639  16.881 -0.2435  0.5957  1.5326
 8553TIP3    H247151   3.781   3.497  16.833  3.4700  0.3784  0.6187
 8554TIP3   OH247152   1.417   3.306   0.004  0.4573  0.0445 -0.0336
 8554TIP3    H147153   1.341   3.363   0.013 -0.8607 -1.6451  0.2279
 8554TIP3    H247154   1.491   3.359   0.033 -0.2654  2.4318 -2.2305
 8555TIP3   OH247155   6.437   3.843  11.428 -0.0665 -0.0446  0.0368
 8555TIP3    H147156   6.358   3.791  11.415  0.1367 -0.0196 -1.4862
 8555TIP3    H247157   6.449   3.891  11.346  2.0166 -0.7474 -0.1437
 8556TIP3   OH247158   1.504   6.379   0.973  0.4774 -0.0704  0.1054
 8556TIP3    H147159   1.584   6.332   0.949  0.8013  0.2887  0.4658
 8556TIP3    H247160   1.471   6.331   1.049  0.0060 -0.5957 -0.4273
 8557TIP3   OH247161   0.841   3.575  15.647  0.0113 -0.5705 -0.5145
 8557TIP3    H147162   0.763   3.590  15.594 -1.6679 -0.2254  1.8932
 8557TIP3    H247163   0.846   3.480  15.656 -1.4215 -0.5579  0.9850
 8558TIP3   OH247164   5.457   4.842  13.893 -0.1855 -0.6211 -0.3136
 8558TIP3    H147165   5.493   4.766  13.940 -0.3735  0.4187  1.6062
 8558TIP3    H247166   5.364   4.822  13.883 -0.0078 -1.1753 -0.9414
 8559TIP3   OH247167   3.256   4.249   3.898  0.0056  0.0847  0.5357
 8559TIP3    H147168   3.294   4.163   3.918 -0.6291 -0.0500  1.2166
 8559TIP3    H247169   3.311   4.311   3.946  1.0819  0.1838 -0.7501
 8560TIP3   OH247170   0.801   6.438   0.393 -0.2368 -0.0502  0.1562
 8560TIP3    H147171   0.781   6.506   0.329 -0.0553 -0.9667 -0.9011
 8560TIP3    H247172   0.747   6.460   0.469  0.1218  1.4922 -0.0051
 8561TIP3   OH247173   4.908   5.764  16.308 -0.3740  0.2489 -0.6310
 8561TIP3    H147174   4.831   5.716  16.338  0.8748 -1.6894 -0.4008
 8561TIP3    H247175   4.935   5.719  16.228 -1.2498  2.8428 -2.5430
 8562TIP3   OH247176   5.530   6.211  17.144  0.8546  0.1980 -0.0107
 8562TIP3    H147177   5.616   6.250  17.149  1.1304  0.2982 -3.4004
 8562TIP3    H247178   5.472   6.282  17.117  1.0376 -1.0062 -4.3747
 8563TIP3   OH247179   0.125   6.487  16.206  0.0456 -0.9541  0.2570
 8563TIP3    H147180   0.170   6.423  16.150  0.5072 -2.9391  2.6826
 8563TIP3    H247181   0.195   6.544  16.237 -0.2632  0.3790 -1.3562
 8564TIP3   OH247182   5.945   5.815   4.719 -0.2247  0.5393 -0.3293
 8564TIP3    H147183   5.975   5.816   4.629  1.3871  1.1558  0.1791
 8564TIP3    H247184   6.022   5.791   4.770 -1.1504  0.0286  0.8737
 8565TIP3   OH247185   0.790   2.150  14.009 -0.1983  0.7848 -0.0094
 8565TIP3    H147186   0.856   2.176  14.073 -0.4883 -0.1396  0.6922
 8565TIP3    H247187   0.832   2.164  13.924  1.9506 -2.2179  0.4017
 8566TIP3   OH247188   2.720   2.945   5.876  0.3912 -0.6761  0.1493
 8566TIP3    H147189   2.655   2.975   5.812  1.3019 -0.9886 -0.9504
 8566TIP3    H247190   2.750   2.861   5.842 -0.0746 -1.5150  1.7153
 8567TIP3   OH247191   4.329   4.635   3.559 -1.4045  0.1200 -0.8976
 8567TIP3    H147192   4.403   4.696   3.556  0.2638 -1.8506 -2.0997
 8567TIP3    H247193   4.252   4.690   3.542 -0.0411  1.9402 -1.4528
 8568TIP3   OH247194   1.384   5.278  14.697  0.3056 -0.2478  0.4679
 8568TIP3    H147195   1.405   5.369  14.719 -0.9234  0.3792 -0.7709
 8568TIP3    H247196   1.430   5.262  14.615 -0.9749 -0.0833 -0.3091
 8569TIP3   OH247197   0.255   0.128   1.344  0.5112 -0.0022  0.4607
 8569TIP3    H147198   0.300   0.195   1.292 -0.4718  1.6388  1.6389
 8569TIP3    H247199   0.180   0.102   1.291  0.4052  0.4896  0.3659
 8570TIP3   OH247200   0.758   2.775   3.493  0.2579  0.3014 -0.0239
 8570TIP3    H147201   0.689   2.830   3.529  0.0141 -0.6119  0.9450
 8570TIP3    H247202   0.823   2.768   3.563  1.0351  0.6223 -0.6971
 8571TIP3   OH247203   1.534   1.383   5.761 -0.4051  0.3272  0.3478
 8571TIP3    H147204   1.563   1.473   5.744 -0.6537  0.1251 -1.2972
 8571TIP3    H247205   1.612   1.330   5.746 -1.0642 -0.0407 -2.3138
 8572TIP3   OH247206   2.241   0.820  11.892  0.0132  0.1310  0.4530
 8572TIP3    H147207   2.201   0.863  11.968  0.3818  0.6612  0.3556
 8572TIP3    H247208   2.192   0.739  11.882 -1.7914  1.2440 -0.3285
 8573TIP3   OH247209   0.051   5.970   5.301  0.0173 -0.2671  0.3403
 8573TIP3    H147210   0.005   6.044   5.263 -1.7836 -2.6492 -2.5239
 8573TIP3    H247211  -0.019   5.914   5.336  1.1303 -1.7112  0.3268
 8574TIP3   OH247212   6.761   4.425  16.659  0.1442  0.1446 -0.3351
 8574TIP3    H147213   6.731   4.488  16.594 -0.0971 -0.6489 -1.0037
 8574TIP3    H247214   6.846   4.460  16.688  1.7270 -0.9388 -3.2331
 8575TIP3   OH247215   4.819   0.519  11.766  0.2931  0.1423  0.1326
 8575TIP3    H147216   4.859   0.493  11.849  0.1328  0.3278  0.2688
 8575TIP3    H247217   4.750   0.455  11.751 -0.2846  0.6333  0.6088
 8576TIP3   OH247218   5.366   1.407  16.204  0.6859  0.7948  0.1118
 8576TIP3    H147219   5.342   1.495  16.177 -0.6383 -0.4885 -3.6016
 8576TIP3    H247220   5.421   1.374  16.132 -0.7666 -2.1034  0.1470
 8577TIP3   OH247221   2.143   5.469  13.472 -0.0591 -0.4604  0.2380
 8577TIP3    H147222   2.113   5.549  13.429  1.7331  0.1651  0.0824
 8577TIP3    H247223   2.063   5.417  13.483 -1.2095  1.1553 -0.0246
 8578TIP3   OH247224   2.782   6.798   1.716  0.1184 -0.4363 -0.3751
 8578TIP3    H147225   2.836   6.858   1.664 -0.6646  1.1761  0.5994
 8578TIP3    H247226   2.702   6.847   1.734  0.0676 -1.2143  1.7551
 8579TIP3   OH247227   0.682   1.126   4.462  0.3119 -0.2932 -0.0534
 8579TIP3    H147228   0.634   1.044   4.462  1.4032 -0.9586 -0.9267
 8579TIP3    H247229   0.615   1.194   4.473 -0.7240 -1.2290 -0.5032
 8580TIP3   OH247230   3.145   4.441  11.439  0.7896 -0.5815 -0.0522
 8580TIP3    H147231   3.160   4.481  11.353  3.5387  1.2219  1.1262
 8580TIP3    H247232   3.052   4.459  11.457  0.7869  1.3297 -1.5727
 8581TIP3   OH247233   4.832   4.514  13.823  0.0752 -0.2494 -0.7161
 8581TIP3    H147234   4.881   4.572  13.882  0.0089  0.0284 -0.9308
 8581TIP3    H247235   4.764   4.475  13.878  0.6209 -0.7412 -0.3852
 8582TIP3   OH247236   1.220   3.197   6.544  0.3794  0.4051 -0.3529
 8582TIP3    H147237   1.222   3.196   6.449 -1.4803  1.8772 -0.4768
 8582TIP3    H247238   1.186   3.111   6.569 -1.3669  0.8050 -1.1835
 8583TIP3   OH247239   0.059   1.493   0.509 -0.2268  0.3727  0.1159
 8583TIP3    H147240   0.007   1.414   0.525 -0.3175  0.3052 -0.5047
 8583TIP3    H247241   0.121   1.468   0.441 -0.8079  1.0675 -0.6954
 8584TIP3   OH247242   6.610   1.043  11.654  0.2195 -0.2248 -0.0196
 8584TIP3    H147243   6.558   1.051  11.574 -0.0378 -0.0912  0.1575
 8584TIP3    H247244   6.556   0.989  11.712  0.3717 -0.2620  0.0873
 8585TIP3   OH247245   4.931   2.521   0.141 -0.2359 -0.2380  0.3772
 8585TIP3    H147246   4.860   2.580   0.119 -0.3347  0.1484  1.6252
 8585TIP3    H247247   4.975   2.503   0.058 -1.8769 -0.6248 -0.4496
 8586TIP3   OH247248   3.839   3.751  13.002 -0.2786 -0.3001  0.0027
 8586TIP3    H147249   3.790   3.669  13.000 -1.1688  0.1896  1.0284
 8586TIP3    H247250   3.828   3.784  13.091 -1.6417  1.9360 -0.9183
 8587TIP3   OH247251   3.532   5.663  13.907 -0.6228 -0.3062 -0.0480
 8587TIP3    H147252   3.566   5.599  13.845 -1.8172 -1.1614  0.1380
 8587TIP3    H247253   3.603   5.675  13.970 -0.6198 -1.9932  0.3142
 8588TIP3   OH247254   1.452   1.852   4.298 -0.4008  0.3299 -0.2534
 8588TIP3    H147255   1.425   1.925   4.242  0.6200  0.7062 -0.2666
 8588TIP3    H247256   1.400   1.863   4.378 -1.0675  0.4214 -0.6892
 8589TIP3   OH247257   6.554   5.100  16.531 -0.5843 -0.0424 -0.9519
 8589TIP3    H147258   6.471   5.053  16.535  0.7855 -2.5391  1.2510
 8589TIP3    H247259   6.619   5.035  16.557  1.8856  2.2253 -1.1318
 8590TIP3   OH247260   6.279   1.559   2.297  0.0874  0.4289 -0.5644
 8590TIP3    H147261   6.231   1.641   2.284  1.9013  1.5334 -0.5871
 8590TIP3    H247262   6.220   1.505   2.351 -1.2516  1.6148 -0.7720
 8591TIP3   OH247263   1.205   2.632   0.684  0.4429  0.1762  0.5093
 8591TIP3    H147264   1.198   2.594   0.597  0.3379  2.2975 -0.4630
 8591TIP3    H247265   1.204   2.557   0.743 -1.4290 -1.2342 -1.1896
 8592TIP3   OH247266   1.648   4.101  10.941 -0.3074  0.1375 -0.3489
 8592TIP3    H147267   1.603   4.019  10.963  0.3855 -0.4061 -0.9059
 8592TIP3    H247268   1.589   4.170  10.970 -0.0427 -0.5332  1.9925
 8593TIP3   OH247269   5.193   1.051  15.503 -0.4929 -0.3587  0.2155
 8593TIP3    H147270   5.131   1.062  15.431 -0.5918  0.8795  0.4785
 8593TIP3    H247271   5.195   1.136  15.547  1.6282 -0.2730  0.0383
 8594TIP3   OH247272   4.074   6.289   0.529 -0.0443 -0.1536  0.2557
 8594TIP3    H147273   4.060   6.198   0.501  1.1447 -0.3049  0.0903
 8594TIP3    H247274   4.127   6.327   0.459 -1.2992  0.9545 -0.1245
 8595TIP3   OH247275   4.685   2.570  16.687  0.4591 -0.1846 -0.6523
 8595TIP3    H147276   4.776   2.540  16.680  0.8064  0.4547  0.8138
 8595TIP3    H247277   4.692   2.666  16.683  0.1374 -0.0016  1.7884
 8596TIP3   OH247278   1.662   2.271  12.396  0.3227  0.0030  0.3676
 8596TIP3    H147279   1.754   2.272  12.422  0.1576  0.5297  0.9779
 8596TIP3    H247280   1.637   2.179  12.399 -0.0732  0.1099  3.6346
 8597TIP3   OH247281   1.823   0.087   3.688  0.3521  0.4495 -0.7961
 8597TIP3    H147282   1.766   0.018   3.721 -0.4671  1.0412 -0.9296
 8597TIP3    H247283   1.863   0.050   3.609  1.0851 -0.3960 -0.0483
 8598TIP3   OH247284   3.895   5.857   1.410 -0.2365  0.5362  0.5640
 8598TIP3    H147285   3.982   5.851   1.369 -0.2322  1.1156  0.4789
 8598TIP3    H247286   3.906   5.922   1.479 -0.0908 -0.8325  1.8927
 8599TIP3   OH247287   4.986   2.816   2.433 -0.0510  0.4894  0.1160
 8599TIP3    H147288   4.970   2.902   2.395 -0.8377  0.9065  1.3308
 8599TIP3    H247289   4.933   2.815   2.512  1.9299 -0.1271  1.5043
 8600TIP3   OH247290   6.229   4.496  12.367 -0.1636  0.5667  0.4225
 8600TIP3    H147291   6.201   4.586  12.383 -1.1021  0.7170 -1.6598
 8600TIP3    H247292   6.148   4.445  12.371  0.2017 -0.0121  0.5176
 8601TIP3   OH247293   4.525   1.551   1.086 -0.2989 -0.3504  0.1469
 8601TIP3    H147294   4.557   1.604   1.159  0.2757 -0.7521  0.1952
 8601TIP3    H247295   4.438   1.585   1.068  0.1541  0.7718  0.0189
 8602TIP3   OH247296   2.537   3.969   0.593  0.0104  0.1225  0.2423
 8602TIP3    H147297   2.452   3.995   0.557  0.4086  1.0855 -0.0410
 8602TIP3    H247298   2.528   3.875   0.611 -1.3691  0.3635  0.9556
 8603TIP3   OH247299   6.538   2.778  10.314  0.0796  0.0073 -0.2916
 8603TIP3    H147300   6.540   2.794  10.220 -0.1932 -0.4740 -0.3827
 8603TIP3    H247301   6.609   2.832  10.349  0.1267  0.2525 -0.7607
 8604TIP3   OH247302   0.161   6.230   3.526 -0.0366  0.3269  0.1329
 8604TIP3    H147303   0.149   6.155   3.584  1.6394 -0.9742 -1.0766
 8604TIP3    H247304   0.097   6.215   3.455 -0.2190  0.4545  0.2695
 8605TIP3   OH247305   0.922   2.639   5.663 -0.2731 -0.1316 -0.4412
 8605TIP3    H147306   0.852   2.584   5.698 -0.9271 -0.3437 -1.9889
 8605TIP3    H247307   0.881   2.724   5.649 -0.0584 -0.0792 -0.7583
 8606TIP3   OH247308   5.164   0.806   5.475  0.6070  0.0451 -0.2215
 8606TIP3    H147309   5.090   0.832   5.420 -1.0892  0.5823  2.1816
 8606TIP3    H247310   5.134   0.725   5.518  2.6474 -1.4538 -1.4168
 8607TIP3   OH247311   0.050   2.673  10.682  0.0298 -0.1887 -0.0192
 8607TIP3    H147312   0.002   2.627  10.751 -0.4008  1.8390  1.1293
 8607TIP3    H247313   0.123   2.615  10.660 -1.6807 -2.3547 -0.2445
 8608TIP3   OH247314   0.597   6.095  16.320  0.3790  0.4402 -0.1647
 8608TIP3    H147315   0.553   6.010  16.315 -0.7635  1.0374 -0.5486
 8608TIP3    H247316   0.612   6.109  16.414 -0.3983  0.2889 -0.0142
 8609TIP3   OH247317   0.001   2.341   3.759  0.1365 -0.5224  0.1172
 8609TIP3    H147318   0.060   2.322   3.686  1.1113 -0.9812  1.0075
 8609TIP3    H247319   0.050   2.403   3.814 -0.9563  0.5537 -0.0762
 8610TIP3   OH247320   6.144   4.173   5.516  0.0202 -0.3287 -0.1520
 8610TIP3    H147321   6.169   4.175   5.424 -1.6737 -1.7037 -0.7099
 8610TIP3    H247322   6.120   4.082   5.532 -0.2854  0.0050  1.4994
 8611TIP3   OH247323   0.817   6.624   4.655 -0.0193 -0.3961  0.6122
 8611TIP3    H147324   0.855   6.644   4.569  0.1550  0.0155  0.7817
 8611TIP3    H247325   0.724   6.612   4.637 -0.2129  1.0335  0.5597
 8612TIP3   OH247326   6.600   5.041  16.147 -0.1681  0.4212  0.1818
 8612TIP3    H147327   6.657   5.053  16.071  1.9025 -1.3993  1.3416
 8612TIP3    H247328   6.624   5.112  16.206  1.4296 -0.6679  0.9117
 8613TIP3   OH247329   0.818   3.135   5.228 -0.4633  0.4460  0.6416
 8613TIP3    H147330   0.802   3.168   5.140  0.2113 -0.2734  0.2369
 8613TIP3    H247331   0.736   3.151   5.275 -1.8053 -1.5027 -0.8531
 8614TIP3   OH247332   0.429   6.331   5.427 -0.1400  0.2413  0.3164
 8614TIP3    H147333   0.446   6.297   5.514  1.7842 -2.4156 -0.9630
 8614TIP3    H247334   0.343   6.297   5.404  0.1837 -0.7477  0.4931
 8615TIP3   OH247335   4.199   0.815   6.202 -0.4990  0.6141 -0.1455
 8615TIP3    H147336   4.156   0.735   6.173 -2.2947  0.9848  1.2972
 8615TIP3    H247337   4.290   0.790   6.216 -0.8174 -0.9182 -0.6480
 8616TIP3   OH247338   0.799   5.278  12.336  0.0851  0.7873 -0.0012
 8616TIP3    H147339   0.751   5.205  12.295  1.9501 -0.0780 -0.7732
 8616TIP3    H247340   0.732   5.327  12.384 -1.1011 -2.1149  1.5691
 8617TIP3   OH247341   1.849   2.258  13.833 -0.5287  0.0160 -0.0509
 8617TIP3    H147342   1.842   2.199  13.758  0.2585  1.0336 -0.9665
 8617TIP3    H247343   1.796   2.217  13.901 -1.5328 -0.7776 -1.2607
 8618TIP3   OH247344   3.609   5.601  14.457 -0.1132 -0.0594  0.5148
 8618TIP3    H147345   3.603   5.630  14.366 -0.9754  0.5064  0.7436
 8618TIP3    H247346   3.519   5.585  14.484  0.0485  0.6526  1.5507
 8619TIP3   OH247347   4.224   6.271   5.873  1.0188 -0.0103  0.0741
 8619TIP3    H147348   4.176   6.261   5.955  0.2683 -2.1925 -0.5883
 8619TIP3    H247349   4.178   6.216   5.810  1.1226  2.1779 -2.0646
 8620TIP3   OH247350   0.242   0.862  16.183  0.1011 -0.1330  0.4824
 8620TIP3    H147351   0.241   0.957  16.178 -0.9773 -0.1833 -0.8971
 8620TIP3    H247352   0.276   0.842  16.270  2.1098  1.4701  0.1249
 8621TIP3   OH247353   0.921   6.147  15.346 -0.4975  0.0079 -0.2283
 8621TIP3    H147354   0.894   6.237  15.361  2.6011  0.9829  0.4120
 8621TIP3    H247355   0.840   6.097  15.345 -2.2386  2.5805  0.9141
 8622TIP3   OH247356   1.552   4.713   0.312 -0.0637 -0.0821  0.8315
 8622TIP3    H147357   1.574   4.625   0.281  0.2506  0.0971  0.5463
 8622TIP3    H247358   1.597   4.721   0.396 -1.3860 -0.7886  1.6521
 8623TIP3   OH247359   4.022   2.613   1.978 -0.4010 -0.2563 -0.0590
 8623TIP3    H147360   4.022   2.677   2.049  2.1142  1.4569 -1.4298
 8623TIP3    H247361   3.945   2.636   1.925 -1.5457 -0.7264  1.3336
 8624TIP3   OH247362   4.285   6.662  16.643  0.6204  0.0859 -0.7827
 8624TIP3    H147363   4.353   6.654  16.710 -0.3322 -1.4858  0.0472
 8624TIP3    H247364   4.243   6.745  16.661 -1.2595 -1.3586  2.2576
 8625TIP3   OH247365   0.493   1.315  15.495  0.3859  0.3315  0.8336
 8625TIP3    H147366   0.460   1.226  15.484  0.3801  0.3268  0.8878
 8625TIP3    H247367   0.587   1.305  15.507  0.5235  0.3997 -0.0945
 8626TIP3   OH247368   3.455   5.268  10.485 -0.2066  0.0575  0.1568
 8626TIP3    H147369   3.422   5.285  10.573  1.8384 -0.4630  1.0773
 8626TIP3    H247370   3.443   5.173  10.473 -0.0404  0.0501  0.0540
 8627TIP3   OH247371   1.925   6.122   5.570  0.0882  0.5254 -0.1980
 8627TIP3    H147372   1.968   6.200   5.535  0.3985 -0.3474 -1.8322
 8627TIP3    H247373   1.909   6.067   5.494  0.1338 -1.1472  0.9519
 8628TIP3   OH247374   0.388   5.276   1.876  0.5444 -0.2203  0.1526
 8628TIP3    H147375   0.390   5.263   1.971 -0.1847  1.3686  0.4196
 8628TIP3    H247376   0.475   5.309   1.855  0.2783  0.7471  0.5086
 8629TIP3   OH247377   4.496   0.430  15.345 -0.4932 -0.0536 -0.4139
 8629TIP3    H147378   4.532   0.378  15.273  0.2791  0.8968 -0.7336
 8629TIP3    H247379   4.530   0.518  15.331  0.0731  0.0578  1.4023
 8630TIP3   OH247380   4.687   1.486  13.027  0.5024  0.2780 -0.7949
 8630TIP3    H147381   4.780   1.511  13.026  0.2552  1.2812  0.0413
 8630TIP3    H247382   4.660   1.498  13.117  0.0212 -1.8757 -0.6174
 8631TIP3   OH247383   0.143   3.075  12.258 -0.1328 -0.5958  0.0898
 8631TIP3    H147384   0.105   2.995  12.295 -0.3564 -0.8246 -0.6309
 8631TIP3    H247385   0.198   3.044  12.186 -1.8321  0.0353 -1.5454
 8632TIP3   OH247386   3.738   6.397  15.075  0.4148  0.1527 -0.5743
 8632TIP3    H147387   3.798   6.372  15.005  0.5473 -0.0664 -0.3846
 8632TIP3    H247388   3.701   6.314  15.104  1.6099  0.0486  0.7449
 8633TIP3   OH247389   5.679   0.169  12.888 -0.5378 -0.0669 -0.5781
 8633TIP3    H147390   5.594   0.130  12.908  0.3225 -0.7910  2.1192
 8633TIP3    H247391   5.669   0.262  12.909 -0.6551 -0.1673 -0.1881
 8634TIP3   OH247392   3.262   5.214  15.735  0.2387 -0.2358  0.0034
 8634TIP3    H147393   3.208   5.167  15.671 -0.1771 -1.4905  1.2281
 8634TIP3    H247394   3.215   5.296  15.750 -0.4081 -0.5530 -0.2572
 8635TIP3   OH247395   4.482   5.222  13.019  0.3657 -0.0875  0.2042
 8635TIP3    H147396   4.549   5.213  13.087  2.7233  2.2831 -1.5766
 8635TIP3    H247397   4.528   5.202  12.938 -1.7406 -0.5919 -0.9351
 8636TIP3   OH247398   2.022   2.440  12.162 -0.8829  0.0444 -0.7028
 8636TIP3    H147399   2.089   2.454  12.228 -0.7423 -3.0090 -0.0514
 8636TIP3    H247400   2.064   2.464  12.079 -0.6144  2.5768  0.0822
 8637TIP3   OH247401   6.298   2.007  14.965 -0.7472  0.1801 -0.8266
 8637TIP3    H147402   6.380   1.972  15.000 -0.7863  1.6290  0.8921
 8637TIP3    H247403   6.322   2.091  14.927 -1.5565  1.2711  0.9048
 8638TIP3   OH247404   2.215   6.006   3.510  0.3692  0.1018  0.6888
 8638TIP3    H147405   2.305   5.998   3.543 -0.2273 -0.1260  2.3945
 8638TIP3    H247406   2.211   5.943   3.438  1.0782 -1.2677  1.7856
 8639TIP3   OH247407   4.134   1.599  12.018  0.0816  0.6055 -0.0833
 8639TIP3    H147408   4.040   1.606  12.004 -0.3093 -1.0965  1.3986
 8639TIP3    H247409   4.164   1.539  11.950 -0.4979 -1.4435  1.3918
 8640TIP3   OH247410   2.813   2.539   2.925 -0.3399  0.3954 -0.0171
 8640TIP3    H147411   2.734   2.531   2.872 -0.4794  0.4624  0.1771
 8640TIP3    H247412   2.782   2.530   3.015  0.0885 -1.1887 -0.0076
 8641TIP3   OH247413   4.796   6.195   5.481  0.3284  0.3457  0.1021
 8641TIP3    H147414   4.772   6.109   5.449 -0.8340  0.5206  0.4416
 8641TIP3    H247415   4.748   6.204   5.564  1.4371  0.8103  0.7209
 8642TIP3   OH247416   5.009   2.555  13.142  0.9982 -0.0623 -0.6381
 8642TIP3    H147417   5.061   2.567  13.221  1.3226 -0.0071 -0.8576
 8642TIP3    H247418   4.946   2.627  13.144  0.7707 -0.2685 -0.2492
 8643TIP3   OH247419   4.287   5.988  11.961  0.5084  0.5115 -0.1162
 8643TIP3    H147420   4.202   6.023  11.939  0.2594 -0.0185 -0.0203
 8643TIP3    H247421   4.275   5.893  11.962  1.0781  0.4315 -0.0301
 8644TIP3   OH247422   0.923   4.127  12.362 -0.0055 -0.3954  0.2441
 8644TIP3    H147423   0.979   4.184  12.310 -1.7774 -0.1954 -1.5731
 8644TIP3    H247424   0.892   4.061  12.301 -2.8471  0.3346  0.7312
 8645TIP3   OH247425   1.511   0.858   3.819  0.1645 -0.2621 -0.2134
 8645TIP3    H147426   1.455   0.904   3.882  2.3628  1.9894  0.2673
 8645TIP3    H247427   1.497   0.904   3.737 -0.4676 -1.2872 -0.7025
 8646TIP3   OH247428   1.952   5.460  14.367 -0.7008 -0.4071  0.0264
 8646TIP3    H147429   2.031   5.442  14.419 -0.6949 -2.6213 -0.6447
 8646TIP3    H247430   1.896   5.510  14.426  2.4425  4.5440 -0.5688
 8647TIP3   OH247431   2.522   2.441   1.963 -0.4152 -0.2019 -0.8638
 8647TIP3    H147432   2.490   2.425   1.874 -2.5142 -0.2301 -0.1408
 8647TIP3    H247433   2.468   2.385   2.019  1.0013 -0.3373  0.4342
 8648TIP3   OH247434   4.983   5.214  13.839  0.1514  0.4700  0.1618
 8648TIP3    H147435   5.058   5.214  13.779 -1.4224  1.4520 -1.9034
 8648TIP3    H247436   4.968   5.306  13.858 -0.1083  0.2329  1.1737
 8649TIP3   OH247437   6.407   4.008   1.912 -0.1233  0.2270 -0.2407
 8649TIP3    H147438   6.382   4.055   1.991 -1.4242  0.6044 -0.8509
 8649TIP3    H247439   6.375   3.918   1.926  0.7583 -0.0327  0.1694
 8650TIP3   OH247440   5.256   6.273   4.676  0.1215 -0.2667 -0.0553
 8650TIP3    H147441   5.197   6.328   4.624 -1.5928 -0.2435  1.8005
 8650TIP3    H247442   5.264   6.318   4.760  2.3134 -0.6342  0.0015
 8651TIP3   OH247443   1.854   5.201   5.504  0.2261  0.4890 -0.3465
 8651TIP3    H147444   1.833   5.125   5.450 -0.7873 -0.7270  1.6259
 8651TIP3    H247445   1.904   5.166   5.577 -0.3312  1.6856  0.6523
 8652TIP3   OH247446   2.265   3.148  14.463 -0.0908 -0.0530  0.1129
 8652TIP3    H147447   2.252   3.237  14.497 -1.3338 -0.4798  0.8186
 8652TIP3    H247448   2.290   3.097  14.540  1.1792 -0.2209 -0.3946
 8653TIP3   OH247449   3.073   4.431   1.117 -0.4456 -0.0699 -0.1786
 8653TIP3    H147450   3.019   4.368   1.163 -0.8033  1.1866  1.2134
 8653TIP3    H247451   3.161   4.417   1.152 -0.6171  0.5148  0.5119
 8654TIP3   OH247452   4.610   5.602  13.008  0.5240  0.1091  0.1694
 8654TIP3    H147453   4.578   5.606  13.098  0.3337 -1.3537  0.1941
 8654TIP3    H247454   4.546   5.652  12.957 -2.1215 -2.9440  0.1728
 8655TIP3   OH247455   3.087   2.546  11.364  0.3494  0.0879 -0.3017
 8655TIP3    H147456   3.056   2.470  11.315 -0.1756 -0.3170  0.6262
 8655TIP3    H247457   3.182   2.540  11.360  0.3092 -0.1016 -1.0197
 8656TIP3   OH247458   2.809   4.834  13.394  0.0071  0.0233 -0.4538
 8656TIP3    H147459   2.769   4.900  13.451 -2.8710 -1.1931 -0.8399
 8656TIP3    H247460   2.820   4.878  13.309 -1.9046  0.0981 -0.7147
 8657TIP3   OH247461   1.782   1.890   5.751  0.3532 -0.5960  0.1257
 8657TIP3    H147462   1.753   1.889   5.842 -0.2161 -4.6257  0.0717
 8657TIP3    H247463   1.878   1.899   5.756  0.2819 -0.3198  1.0606
 8658TIP3   OH247464   1.208   6.169  10.863 -0.2086  0.0517 -0.4734
 8658TIP3    H147465   1.201   6.264  10.871 -0.4665 -0.0494  0.6137
 8658TIP3    H247466   1.302   6.151  10.864 -0.1730  0.1991  0.7834
 8659TIP3   OH247467   0.890   4.602   3.128 -0.2367  0.9027  0.0629
 8659TIP3    H147468   0.882   4.555   3.046  1.3938  1.7042 -0.6063
 8659TIP3    H247469   0.844   4.548   3.192  0.2004 -0.7755 -0.9795
 8660TIP3   OH247470   2.890   4.028  14.461 -0.3278  0.1902 -0.4259
 8660TIP3    H147471   2.826   3.958  14.472  0.9823 -0.9898 -0.1249
 8660TIP3    H247472   2.975   3.987  14.476  0.6100  1.4828 -1.8500
 8661TIP3   OH247473   2.395   2.746   1.578  0.0354  0.1391  0.2079
 8661TIP3    H147474   2.427   2.671   1.528  2.5349 -0.7178  2.7570
 8661TIP3    H247475   2.421   2.822   1.527  0.2898 -0.6933 -0.9419
 8662TIP3   OH247476   5.697   4.090  17.025 -0.0685  0.9854 -0.1398
 8662TIP3    H147477   5.631   4.154  16.996  0.2832  1.5389  0.2571
 8662TIP3    H247478   5.732   4.128  17.106 -0.6694 -0.2714  0.7475
 8663TIP3   OH247479   0.253   6.191   1.126  0.1800  0.0594  0.3182
 8663TIP3    H147480   0.337   6.206   1.170  0.5976 -2.6543  0.6169
 8663TIP3    H247481   0.263   6.106   1.082 -1.6805  0.6940 -1.5153
 8664TIP3   OH247482   2.611   5.218   0.586 -0.0252  0.5138  0.4838
 8664TIP3    H147483   2.615   5.298   0.639 -0.8059  1.0261 -0.2019
 8664TIP3    H247484   2.579   5.151   0.647 -0.5192  1.0014  0.7729
 8665TIP3   OH247485   0.131   3.336   0.946 -0.2839 -0.4465  0.0257
 8665TIP3    H147486   0.069   3.274   0.984 -1.6023  0.3171 -0.7901
 8665TIP3    H247487   0.151   3.300   0.860 -0.8132  0.0644 -0.3262
 8666TIP3   OH247488   2.750   0.396  15.862 -0.0254 -0.0056  0.2167
 8666TIP3    H147489   2.840   0.411  15.831  0.1353 -0.8792  0.2287
 8666TIP3    H247490   2.757   0.398  15.957 -0.0606  0.1413  0.2158
 8667TIP3   OH247491   4.040   4.564   5.194 -0.2787  0.2394  0.2858
 8667TIP3    H147492   4.063   4.507   5.121  0.0718  0.6500  0.0665
 8667TIP3    H247493   4.037   4.506   5.270 -2.0528 -0.4509 -0.2691
 8668TIP3   OH247494   0.142   5.141  11.234 -0.3531 -0.0684  0.5235
 8668TIP3    H147495   0.237   5.154  11.230 -0.4269  0.4049  0.0848
 8668TIP3    H247496   0.106   5.230  11.235 -0.7892 -0.2460  0.7492
 8669TIP3   OH247497   4.199   1.633   3.285 -0.0425  0.0297  0.2853
 8669TIP3    H147498   4.246   1.712   3.260  0.0396  0.1978  0.9499
 8669TIP3    H247499   4.228   1.567   3.222  1.3359  0.0463  0.8753
 8670TIP3   OH247500   5.398   1.729   1.513 -0.1354  0.1809 -0.2951
 8670TIP3    H147501   5.305   1.721   1.490 -0.0408  0.3077 -0.7347
 8670TIP3    H247502   5.400   1.722   1.608 -0.3237 -2.5496 -0.3951
 8671TIP3   OH247503   3.255   3.735  14.235 -0.1643 -0.0779  0.0609
 8671TIP3    H147504   3.292   3.823  14.228  0.3783 -0.2076  1.1176
 8671TIP3    H247505   3.170   3.748  14.276 -0.3353  0.0076 -0.3195
 8672TIP3   OH247506   0.718   1.071  12.747  0.5725 -0.4842  0.0449
 8672TIP3    H147507   0.633   1.061  12.705  0.2050 -0.9434  0.8766
 8672TIP3    H247508   0.704   1.045  12.838  0.9758  1.9466  0.8960
 8673TIP3   OH247509   1.224   0.611   1.578  0.1078 -0.0423  0.2253
 8673TIP3    H147510   1.230   0.566   1.662  0.9150  0.6641  0.5542
 8673TIP3    H247511   1.134   0.594   1.548 -0.9668  1.5602  2.2785
 8674TIP3   OH247512   4.379   5.590   3.856 -0.3687 -0.5794 -0.3082
 8674TIP3    H147513   4.420   5.666   3.814 -0.1374 -0.8210 -0.5241
 8674TIP3    H247514   4.440   5.567   3.927  1.4549 -2.7439 -2.4144
 8675TIP3   OH247515   4.185   6.791   5.335  0.0470 -0.3604  0.0277
 8675TIP3    H147516   4.201   6.864   5.276  0.5117  0.1244  0.7404
 8675TIP3    H247517   4.241   6.721   5.302  0.2376 -0.1206 -0.1596
 8676TIP3   OH247518   1.157   3.422   2.702  0.3644 -0.3878  0.6338
 8676TIP3    H147519   1.185   3.413   2.611  0.7400  0.8893  0.6085
 8676TIP3    H247520   1.062   3.408   2.699  0.4513 -0.9098  0.1384
 8677TIP3   OH247521   6.727   5.436   2.640  0.5040 -0.5539  0.2941
 8677TIP3    H147522   6.789   5.471   2.704  0.2866 -0.5615  0.5118
 8677TIP3    H247523   6.770   5.448   2.556 -0.8637  3.3752 -0.0813
 8678TIP3   OH247524   2.781   1.402  15.101 -0.7715  0.0333  0.1159
 8678TIP3    H147525   2.825   1.432  15.022 -1.8588  1.3025 -0.0517
 8678TIP3    H247526   2.851   1.366  15.156 -0.2439 -2.6931 -2.1511
 8679TIP3   OH247527   0.190   3.166  16.566  0.1293  0.6966 -0.2894
 8679TIP3    H147528   0.236   3.247  16.587  0.8485 -0.2250  2.0347
 8679TIP3    H247529   0.099   3.184  16.586  0.0817  1.2825 -0.9867
 8680TIP3   OH247530   5.777   3.635  16.171 -0.2952 -0.0595 -0.0858
 8680TIP3    H147531   5.752   3.550  16.209 -1.2123  0.3505  0.2639
 8680TIP3    H247532   5.714   3.697  16.208 -0.3225  0.5905 -1.1705
 8681TIP3   OH247533   1.164   6.508  13.569 -0.2786 -0.3553  0.4370
 8681TIP3    H147534   1.105   6.499  13.494 -0.0728 -1.0419  0.3571
 8681TIP3    H247535   1.115   6.472  13.643 -0.1179 -0.5540  0.4482
 8682TIP3   OH247536   1.620   1.055   3.219  0.3453  0.2325  0.2490
 8682TIP3    H147537   1.658   1.043   3.132 -0.7426  2.5921 -0.6519
 8682TIP3    H247538   1.570   0.975   3.235  2.1375 -1.0669 -0.4015
 8683TIP3   OH247539   4.160   6.054   1.696 -0.0847  0.6678  0.5812
 8683TIP3    H147540   4.255   6.048   1.700  0.0086  1.3338 -0.3520
 8683TIP3    H247541   4.142   6.117   1.626 -1.2122  0.1122  0.3293
 8684TIP3   OH247542   6.738   4.094  12.722 -0.3897 -0.2969 -0.1191
 8684TIP3    H147543   6.676   4.096  12.648 -0.3436 -0.7368 -0.1766
 8684TIP3    H247544   6.753   4.000  12.737 -1.5449 -0.2811  1.4138
 8685TIP3   OH247545   3.322   1.085  15.323  0.1799  0.4344  0.2244
 8685TIP3    H147546   3.346   1.177  15.310 -0.8030  0.6102 -0.5210
 8685TIP3    H247547   3.235   1.089  15.364  0.2419 -0.1596  0.4181
 8686TIP3   OH247548   0.546   6.624   0.837 -0.2522 -0.0792  0.3479
 8686TIP3    H147549   0.458   6.588   0.827  0.2733 -1.3669  0.1442
 8686TIP3    H247550   0.604   6.548   0.829  0.9326  0.8752 -0.5320
 8687TIP3   OH247551   3.884   0.747   1.378  0.0896  0.3316 -0.5083
 8687TIP3    H147552   3.808   0.689   1.384  2.0915 -2.3406  2.9284
 8687TIP3    H247553   3.855   0.829   1.418 -0.5351 -1.4950  3.2830
 8688TIP3   OH247554   5.144   1.402  17.032 -1.0209 -0.5214 -0.5334
 8688TIP3    H147555   5.120   1.314  17.001  1.0448 -1.6242  0.7608
 8688TIP3    H247556   5.233   1.415  17.000 -0.4611  0.1359  1.1790
 8689TIP3   OH247557   5.786   1.894  14.074  0.3111 -0.2348  0.1273
 8689TIP3    H147558   5.786   1.990  14.071  0.3110 -0.1176  2.3762
 8689TIP3    H247559   5.737   1.868  13.996 -0.7011  1.6286  0.0768
 8690TIP3   OH247560   3.862   6.678  16.184 -0.2802  0.4303  0.1015
 8690TIP3    H147561   3.787   6.737  16.175 -0.9596 -0.5184 -0.6264
 8690TIP3    H247562   3.895   6.696  16.272 -0.9551  1.3271  0.1901
 8691TIP3   OH247563   0.519   0.273  15.957 -0.1004 -0.8157 -0.1429
 8691TIP3    H147564   0.514   0.361  15.919 -0.7450  0.3205  2.3661
 8691TIP3    H247565   0.450   0.224  15.913 -1.8909  0.8988  0.6134
 8692TIP3   OH247566   4.943   5.319  14.126 -0.0850 -0.3342 -0.1057
 8692TIP3    H147567   5.023   5.332  14.178  1.1702 -0.8945 -1.8120
 8692TIP3    H247568   4.937   5.397  14.072 -0.3714 -0.5632 -0.4041
 8693TIP3   OH247569   3.341   6.794   4.252 -0.7264  0.0435 -0.4223
 8693TIP3    H147570   3.294   6.803   4.335  0.1041 -0.5582  0.1203
 8693TIP3    H247571   3.272   6.777   4.188 -1.1846 -2.5986  0.6329
 8694TIP3   OH247572   3.025   2.233  14.747  0.1690 -0.4205 -0.5427
 8694TIP3    H147573   2.949   2.181  14.771 -0.3909  0.0134 -1.3433
 8694TIP3    H247574   2.995   2.289  14.675  1.7131 -1.5323 -2.1336
 8695TIP3   OH247575   3.578   1.366  10.492 -0.2544 -0.0784 -0.0791
 8695TIP3    H147576   3.577   1.460  10.512 -0.7950  0.1578 -1.1465
 8695TIP3    H247577   3.526   1.327  10.562 -1.4373  0.6339 -0.5202
 8696TIP3   OH247578   2.049   0.934   3.839  0.3348 -0.5610 -0.0143
 8696TIP3    H147579   1.961   0.907   3.815  0.4381 -0.9668  0.0533
 8696TIP3    H247580   2.089   0.856   3.877 -0.0346  0.2051  2.0776
 8697TIP3   OH247581   1.082   4.674   6.267  0.0700  0.4385 -0.1949
 8697TIP3    H147582   1.007   4.674   6.326 -0.2584 -1.6853 -0.5582
 8697TIP3    H247583   1.157   4.658   6.325  0.1086  1.2038 -0.0153
 8698TIP3   OH247584   4.628   1.786   1.195 -0.0855  0.2607 -0.2470
 8698TIP3    H147585   4.689   1.839   1.145  2.6764 -2.4509 -0.1181
 8698TIP3    H247586   4.640   1.814   1.286  0.3665  0.3030 -0.3198
 8699TIP3   OH247587   6.642   5.681  14.682  0.2671  0.0739  0.9750
 8699TIP3    H147588   6.689   5.755  14.719 -0.2099  0.8271  0.1121
 8699TIP3    H247589   6.551   5.710  14.678 -0.0137 -0.7643  1.1178
 8700TIP3   OH247590   1.116   1.665   3.106  0.3860  0.4767  0.1489
 8700TIP3    H147591   1.167   1.724   3.051  0.2994  0.2389 -0.1858
 8700TIP3    H247592   1.042   1.638   3.052  1.5460 -1.6525 -0.5040
 8701TIP3   OH247593   2.026   2.006   5.152  0.8946  0.0900 -0.0608
 8701TIP3    H147594   2.032   1.960   5.235  1.8183 -0.6420 -0.5214
 8701TIP3    H247595   2.102   1.976   5.101  0.4173  0.6072 -1.1241
 8702TIP3   OH247596   0.514   6.186   4.702  0.1540 -0.1996 -0.0433
 8702TIP3    H147597   0.422   6.166   4.717  0.2846  0.5700  2.1711
 8702TIP3    H247598   0.562   6.114   4.743  0.5235  0.4858  0.7847
 8703TIP3   OH247599   2.439   0.470  13.549 -0.0702 -0.0736  0.0739
 8703TIP3    H147600   2.482   0.497  13.630 -0.5561  0.1882  0.2481
 8703TIP3    H247601   2.460   0.539  13.486  2.1559 -1.3335 -0.6876
 8704TIP3   OH247602   3.823   2.085   1.297 -0.2218 -0.0193 -0.7445
 8704TIP3    H147603   3.737   2.059   1.331  0.6158 -1.7586  0.1741
 8704TIP3    H247604   3.858   2.145   1.363 -0.3010 -0.1435 -0.5889
 8705TIP3   OH247605   1.238   3.987  13.791 -0.0546 -0.1351  0.9756
 8705TIP3    H147606   1.142   3.985  13.790 -0.1492  0.7314  2.8801
 8705TIP3    H247607   1.259   4.080  13.805  1.0241 -0.4000  1.1768
 8706TIP3   OH247608   1.109   2.256  13.167  0.1962  0.1151 -0.3884
 8706TIP3    H147609   1.163   2.184  13.200  1.8779  0.7640 -1.5867
 8706TIP3    H247610   1.048   2.214  13.106  0.6123 -0.4033 -0.4521
 8707TIP3   OH247611   1.990   1.484  15.125  0.2063  0.3731 -0.8656
 8707TIP3    H147612   1.905   1.468  15.085  0.3463 -0.4775 -0.8350
 8707TIP3    H247613   2.028   1.555  15.072  0.5464 -0.9570 -2.4914
 8708TIP3   OH247614   5.126   5.545   2.816  0.1267 -0.4917  0.2399
 8708TIP3    H147615   5.129   5.449   2.809  3.4458 -0.6673  1.8087
 8708TIP3    H247616   5.116   5.561   2.910 -1.4355  0.7630 -0.1150
 8709TIP3   OH247617   3.115   4.137   1.828  0.0215 -0.1795  0.6699
 8709TIP3    H147618   3.041   4.173   1.876 -1.6930 -2.9041  0.3263
 8709TIP3    H247619   3.185   4.130   1.893 -0.6073  0.7799  1.4714
 8710TIP3   OH247620   5.190   0.961  12.969  0.4689 -0.1113  0.2471
 8710TIP3    H147621   5.232   1.028  13.023  0.2209  1.5585 -1.5115
 8710TIP3    H247622   5.244   0.883  12.981  1.2759  0.6301  1.6904
 8711TIP3   OH247623   5.814   2.119  12.888 -0.1043  0.1203 -0.1965
 8711TIP3    H147624   5.824   2.204  12.845 -0.1494  0.0636 -0.3200
 8711TIP3    H247625   5.722   2.096  12.874 -0.8232  1.2846  2.1196
 8712TIP3   OH247626   5.145   6.276  10.880  0.1604  0.4802 -0.0581
 8712TIP3    H147627   5.102   6.355  10.847 -0.3945  0.7158  1.1729
 8712TIP3    H247628   5.234   6.303  10.899 -0.0704  0.8562  0.5041
 8713TIP3   OH247629   0.185   0.479   0.287 -0.1141 -0.1272 -0.0307
 8713TIP3    H147630   0.181   0.574   0.280 -0.9799 -0.2384 -2.1374
 8713TIP3    H247631   0.260   0.454   0.233 -0.0562 -0.6562  0.2871
 8714TIP3   OH247632   1.082   2.194   3.352 -0.0097  0.2394 -0.0144
 8714TIP3    H147633   1.118   2.263   3.407 -0.9550 -2.8833  5.1703
 8714TIP3    H247634   0.987   2.197   3.369 -0.6048 -0.0614 -2.7680
 8715TIP3   OH247635   2.345   0.549  14.273  0.0972 -0.3565  0.3778
 8715TIP3    H147636   2.309   0.474  14.320 -0.4464 -0.8406 -0.7719
 8715TIP3    H247637   2.284   0.564  14.201 -0.0345  1.4730  0.8249
 8716TIP3   OH247638   3.782   0.750   0.707 -0.5583  0.3812  0.1726
 8716TIP3    H147639   3.705   0.742   0.762 -1.1231 -1.9735 -0.8671
 8716TIP3    H247640   3.767   0.830   0.656 -2.5766 -0.3227 -0.3981
 8717TIP3   OH247641   0.510   3.500   4.756  0.1000 -0.2620 -0.2613
 8717TIP3    H147642   0.420   3.476   4.737 -0.1480  0.4326  0.0272
 8717TIP3    H247643   0.544   3.532   4.672 -0.0472 -0.1343 -0.2726
 8718TIP3   OH247644   2.584   4.175   0.106 -0.3805  0.0211  0.3081
 8718TIP3    H147645   2.610   4.205   0.193 -0.3672 -0.3957  0.4495
 8718TIP3    H247646   2.640   4.099   0.089 -2.0651 -1.4586  0.9909
 8719TIP3   OH247647   3.987   1.602   5.720 -0.3367  0.5502  0.2463
 8719TIP3    H147648   3.969   1.635   5.808 -0.9953 -0.2041  0.4063
 8719TIP3    H247649   3.904   1.608   5.675 -0.8347 -1.9881  0.6614
 8720TIP3   OH247650   6.243   3.098   2.915 -0.3320  0.8432 -0.5834
 8720TIP3    H147651   6.312   3.036   2.894  0.2970  1.9144 -1.7716
 8720TIP3    H247652   6.174   3.045   2.955  0.2890 -0.5730 -1.3417
 8721TIP3   OH247653   0.912   1.959   5.788  0.4327  0.1179 -0.2666
 8721TIP3    H147654   0.902   1.881   5.842  3.1483  0.6134  1.1617
 8721TIP3    H247655   0.866   2.027   5.836  0.4111 -0.0472 -0.0490
 8722TIP3   OH247656   5.390   1.554   3.960  0.2542 -0.2615 -0.7244
 8722TIP3    H147657   5.475   1.521   3.990  0.2727 -0.5511 -1.0834
 8722TIP3    H247658   5.402   1.567   3.866 -0.2500 -0.7796 -0.8648
 8723TIP3   OH247659   2.546   0.353  16.242  0.1812  0.1943 -0.0906
 8723TIP3    H147660   2.513   0.308  16.320  2.5138  0.2080  0.9572
 8723TIP3    H247661   2.467   0.391  16.202 -1.8565 -3.8587 -0.4967
 8724TIP3   OH247662   2.861   1.303  16.318 -0.7199  0.3125 -0.2881
 8724TIP3    H147663   2.787   1.245  16.301  0.5062 -1.6682  0.7398
 8724TIP3    H247664   2.923   1.249  16.367  1.6360  1.7241 -1.5199
 8725TIP3   OH247665   5.249   5.333   1.860  0.3782  0.0182  0.0014
 8725TIP3    H147666   5.259   5.406   1.921  1.4120  0.4867 -0.6930
 8725TIP3    H247667   5.163   5.346   1.820 -1.2024 -1.3717  2.6862
 8726TIP3   OH247668   1.886   0.993   3.036  0.2969 -0.0683  0.5645
 8726TIP3    H147669   1.928   1.077   3.016  0.3477 -0.2450 -0.1028
 8726TIP3    H247670   1.941   0.955   3.104  0.1915  0.5046  0.9728
 8727TIP3   OH247671   2.704   0.850  13.065  0.0478 -0.2939  0.4088
 8727TIP3    H147672   2.633   0.818  13.120 -1.0562  1.0820 -0.1606
 8727TIP3    H247673   2.675   0.835  12.975 -1.3863  3.7017  0.0110
 8728TIP3   OH247674   5.647   0.845   3.502 -0.3131 -0.8757  0.0425
 8728TIP3    H147675   5.711   0.908   3.468  1.5228 -1.1372  2.6981
 8728TIP3    H247676   5.658   0.768   3.446 -0.9652  0.2916 -1.8006
 8729TIP3   OH247677   4.923   1.852   1.106 -0.0010  0.3834  0.0651
 8729TIP3    H147678   5.003   1.897   1.080 -0.4504  2.4972  1.9941
 8729TIP3    H247679   4.922   1.858   1.202 -2.4571  0.5265  0.1113
 8730TIP3   OH247680   6.663   6.687  12.598 -0.1805 -0.2822 -0.3744
 8730TIP3    H147681   6.654   6.702  12.504 -0.2867 -1.8266 -0.6462
 8730TIP3    H247682   6.592   6.625  12.619  0.5310 -0.8274  0.4845
 8731TIP3   OH247683   0.247   0.729  15.632 -0.0591  0.0162  0.4356
 8731TIP3    H147684   0.242   0.641  15.669  1.4862 -0.3429 -0.1362
 8731TIP3    H247685   0.332   0.732  15.587 -0.5207  1.4654 -0.4179
 8732TIP3   OH247686   5.562   6.522  12.482  0.0011 -0.6800  0.1328
 8732TIP3    H147687   5.540   6.537  12.390  1.9610  1.3675 -0.0945
 8732TIP3    H247688   5.585   6.430  12.487 -0.5153 -0.9190 -1.3204
 8733TIP3   OH247689   1.803   0.877  15.933  0.4115  0.5354  0.5365
 8733TIP3    H147690   1.767   0.807  15.988  1.1171  0.7409  1.2919
 8733TIP3    H247691   1.728   0.932  15.912  0.2940  1.1481  2.3481
 8734TIP3   OH247692   4.080   0.590   4.526  0.0531 -0.2096 -0.5301
 8734TIP3    H147693   4.134   0.567   4.602  1.7229  0.4139 -1.4886
 8734TIP3    H247694   4.133   0.651   4.476 -1.5522  0.4230 -1.5498
 8735TIP3   OH247695   3.648   2.132   3.947 -0.2006  0.7005 -0.1471
 8735TIP3    H147696   3.557   2.150   3.969 -0.7993 -2.0575  0.0495
 8735TIP3    H247697   3.644   2.093   3.859  0.8641  1.1046 -0.3902
 8736TIP3   OH247698   6.540   3.660  13.028 -0.3033 -0.5870  0.1863
 8736TIP3    H147699   6.628   3.633  13.003  0.3520  1.2691  0.3626
 8736TIP3    H247700   6.522   3.737  12.974  0.1028  1.9136  3.3557
 8737TIP3   OH247701   1.984   1.768  11.142  0.1202  0.6782 -0.6198
 8737TIP3    H147702   1.987   1.864  11.146  2.8797  0.9218 -3.8356
 8737TIP3    H247703   2.064   1.744  11.096 -0.5985 -3.2001 -0.1185
 8738TIP3   OH247704   2.157   4.110  14.285  0.4167 -0.2056 -0.2719
 8738TIP3    H147705   2.156   4.015  14.289 -1.3774 -0.2463 -0.8740
 8738TIP3    H247706   2.190   4.130  14.197  2.5077 -0.1923  0.4681
 8739TIP3   OH247707   2.688   2.972  11.899 -0.2653 -0.2390 -0.3238
 8739TIP3    H147708   2.649   2.994  11.814  0.1084  1.1669 -0.1622
 8739TIP3    H247709   2.781   2.994  11.888 -0.5301  1.8092  1.0016
 8740TIP3   OH247710   2.822   1.755   2.791  0.1289 -0.3197  0.0117
 8740TIP3    H147711   2.865   1.670   2.805 -1.7524 -1.3543 -0.1608
 8740TIP3    H247712   2.894   1.816   2.776  1.5287 -1.9446 -0.2099
 8741TIP3   OH247713   2.952   4.110  13.410  0.3786  0.1270 -0.1848
 8741TIP3    H147714   3.012   4.184  13.414  0.2780  0.3398 -1.7809
 8741TIP3    H247715   2.882   4.139  13.351 -0.9384 -0.3728  1.0657
 8742TIP3   OH247716   3.394   2.120  12.561 -0.1013 -0.2857 -0.2551
 8742TIP3    H147717   3.445   2.166  12.494  1.8515  0.5561  1.6822
 8742TIP3    H247718   3.327   2.184  12.588  1.2577  0.7007  0.9212
 8743TIP3   OH247719   6.607   5.275  12.994  0.2150 -0.0954 -0.1223
 8743TIP3    H147720   6.563   5.361  12.990 -1.3134 -0.7530  1.2191
 8743TIP3    H247721   6.676   5.287  13.060 -1.5170 -0.4449  1.8833
 8744TIP3   OH247722   0.767   2.240   3.400 -0.2731 -0.2484  0.2697
 8744TIP3    H147723   0.723   2.303   3.457 -2.5755  0.0971 -1.7525
 8744TIP3    H247724   0.720   2.158   3.413 -0.9294 -0.1251 -1.1944
 8745TIP3   OH247725   2.943   3.962   5.735  0.1552  0.1182  0.3314
 8745TIP3    H147726   2.931   4.019   5.660  0.5557  1.9218  1.5641
 8745TIP3    H247727   2.855   3.944   5.766 -0.0477 -1.1999 -0.9322
 8746TIP3   OH247728   5.831   3.914   3.955  0.0856 -0.1562  0.3603
 8746TIP3    H147729   5.792   3.947   3.874  0.0073 -0.5828  0.2228
 8746TIP3    H247730   5.780   3.954   4.025  0.8719  1.1287  0.2289
 8747TIP3   OH247731   4.725   3.128  17.172 -0.3560  0.0927 -0.0915
 8747TIP3    H147732   4.732   3.193  17.241 -0.0408 -2.3192  2.3089
 8747TIP3    H247733   4.759   3.172  17.094  1.4966  2.2213  1.7892
 8748TIP3   OH247734   5.193   0.093   1.715  0.3529 -0.2965  0.5927
 8748TIP3    H147735   5.110   0.132   1.688  0.5980  0.1139  0.4217
 8748TIP3    H247736   5.192   0.099   1.811  0.6296  0.6357  0.5411
 8749TIP3   OH247737   1.069   1.026   0.940 -0.0022  0.0086  0.0055
 8749TIP3    H147738   0.982   1.058   0.920 -0.2733 -0.4157  0.4906
 8749TIP3    H247739   1.114   1.022   0.855 -0.1517  1.0808 -0.1429
 8750TIP3   OH247740   0.789   1.180  14.839 -0.1192 -0.4812  0.3854
 8750TIP3    H147741   0.813   1.133  14.758 -0.9620  1.8073 -1.2856
 8750TIP3    H247742   0.701   1.149  14.859 -0.4677 -0.0265 -0.4067
 8751TIP3   OH247743   3.101   6.534  14.822 -0.0021  0.0529 -0.1279
 8751TIP3    H147744   3.179   6.490  14.787 -1.1275 -1.9024 -0.3117
 8751TIP3    H247745   3.062   6.577  14.747 -0.0590 -0.4924 -0.4194
 8752TIP3   OH247746   6.725   1.359  11.860 -0.8077 -0.0944 -0.2637
 8752TIP3    H147747   6.817   1.382  11.846 -0.4148 -0.7436  1.0362
 8752TIP3    H247748   6.724   1.263  11.862 -1.5310 -0.0953 -0.3403
 8753TIP3   OH247749   0.667   6.160  14.709 -0.0614 -0.7362  0.6720
 8753TIP3    H147750   0.760   6.174  14.727 -0.2324  1.9064  0.0159
 8753TIP3    H247751   0.623   6.186  14.790 -0.2771 -0.9214  0.6136
 8754TIP3   OH247752   2.332   2.932  11.632 -0.2611 -0.1869  0.0485
 8754TIP3    H147753   2.247   2.977  11.625 -0.6740 -0.7169  1.4731
 8754TIP3    H247754   2.341   2.911  11.724  1.6029  0.1615 -0.0065
 8755TIP3   OH247755   2.625   5.596  11.218 -0.4122 -0.0180 -0.4570
 8755TIP3    H147756   2.634   5.511  11.175 -0.2792  0.3123 -1.1031
 8755TIP3    H247757   2.607   5.657  11.146 -1.6298  0.3266  0.1116
 8756TIP3   OH247758   0.852   5.562  11.401 -0.0760  0.0165 -0.1680
 8756TIP3    H147759   0.806   5.481  11.425 -0.1226  0.8115  2.9588
 8756TIP3    H247760   0.853   5.562  11.306 -2.2294 -2.4481 -0.3159
 8757TIP3   OH247761   2.829   4.027   0.792 -0.4942  0.4911  0.1190
 8757TIP3    H147762   2.747   4.060   0.757 -0.3746 -0.0944 -0.7443
 8757TIP3    H247763   2.897   4.067   0.738 -0.1744  1.3029  1.0945
 8758TIP3   OH247764   6.611   4.214   1.301 -0.0647 -0.3066  0.2410
 8758TIP3    H147765   6.588   4.284   1.241 -0.1749 -0.5521 -0.0043
 8758TIP3    H247766   6.704   4.227   1.319 -0.3579  0.6270  1.1550
 8759TIP3   OH247767   6.206   3.150  16.775  0.0735 -0.3822 -0.0560
 8759TIP3    H147768   6.172   3.070  16.735 -0.1514  0.8767 -2.5709
 8759TIP3    H247769   6.141   3.217  16.754  0.1548  0.4814  2.1691
 8760TIP3   OH247770   0.241   1.677  15.859  1.1603  0.9652  0.3221
 8760TIP3    H147771   0.249   1.645  15.949  0.2877  1.6886  0.6699
 8760TIP3    H247772   0.289   1.612  15.807 -0.9038 -1.2028  0.9388
 8761TIP3   OH247773   4.231   1.920   3.517 -0.2872 -0.3859  0.7527
 8761TIP3    H147774   4.281   1.997   3.546  1.8940 -2.4028  2.8280
 8761TIP3    H247775   4.218   1.869   3.597  0.6426 -3.3769 -0.8536
 8762TIP3   OH247776   2.234   1.773  12.565  0.2551  0.1643 -0.5752
 8762TIP3    H147777   2.245   1.835  12.638  2.6598  0.3627 -1.0363
 8762TIP3    H247778   2.172   1.817  12.507  1.2844  1.8391 -0.4999
 8763TIP3   OH247779   5.123   3.309   1.564 -0.2962  0.3423 -0.4858
 8763TIP3    H147780   5.188   3.257   1.519  0.8059  1.8066 -0.6690
 8763TIP3    H247781   5.091   3.253   1.635  1.1630 -0.4015 -0.3958
 8764TIP3   OH247782   1.689   6.602  15.214 -0.1834 -0.5244  0.1484
 8764TIP3    H147783   1.769   6.551  15.220  1.8340  2.3492 -0.1869
 8764TIP3    H247784   1.688   6.635  15.125 -2.3503 -1.3016 -0.1796
 8765TIP3   OH247785   3.406   6.348  12.221 -0.3116 -0.1301  0.2418
 8765TIP3    H147786   3.500   6.329  12.218  0.1363  1.9538 -0.1457
 8765TIP3    H247787   3.383   6.336  12.313  0.2201 -1.0993  0.2649
 8766TIP3   OH247788   1.188   2.886  15.067 -0.3105  0.1187  0.0396
 8766TIP3    H147789   1.130   2.958  15.041 -0.4513 -0.1715 -0.4571
 8766TIP3    H247790   1.238   2.866  14.989 -0.1578 -0.2186  0.2226
 8767TIP3   OH247791   3.584   4.703   3.555 -0.3478  0.1676 -0.1873
 8767TIP3    H147792   3.518   4.652   3.508  0.0054  0.1192 -0.6283
 8767TIP3    H247793   3.635   4.746   3.487  0.5706 -0.4104  0.1181
 8768TIP3   OH247794   0.306   4.326  16.365  0.7453  0.1777 -0.6122
 8768TIP3    H147795   0.283   4.318  16.273 -0.3783  1.3494 -0.4646
 8768TIP3    H247796   0.401   4.314  16.368  1.1795  2.5389 -2.2723
 8769TIP3   OH247797   4.366   5.517   3.100 -0.1925  0.2487 -0.0990
 8769TIP3    H147798   4.338   5.488   3.187  1.6291 -0.5057  0.2789
 8769TIP3    H247799   4.317   5.461   3.040 -1.0777  0.4224  0.4376
 8770TIP3   OH247800   2.849   5.940   6.061 -0.4311 -0.7547 -0.0629
 8770TIP3    H147801   2.833   6.029   6.092  1.7943 -0.2458 -0.2167
 8770TIP3    H247802   2.776   5.889   6.095  0.8754  0.0679  4.6746
 8771TIP3   OH247803   4.252   3.444  11.621  0.0731 -0.6232  0.8801
 8771TIP3    H147804   4.245   3.360  11.667  1.1985 -1.1710  0.0900
 8771TIP3    H247805   4.340   3.475  11.640  1.3787 -1.8484 -2.4269
 8772TIP3   OH247806   2.730   2.139   5.508 -0.4697  0.1193  0.5733
 8772TIP3    H147807   2.797   2.077   5.479 -0.0154  1.9650 -2.8711
 8772TIP3    H247808   2.657   2.083   5.535  0.1853 -2.0032 -1.5970
 8773TIP3   OH247809   6.346   3.106  12.194 -0.4114  0.1631  0.7958
 8773TIP3    H147810   6.304   3.079  12.113 -1.0500  1.6315  0.6175
 8773TIP3    H247811   6.434   3.068  12.189 -0.5735 -0.0875 -0.3887
 8774TIP3   OH247812   0.651   5.960  13.995  0.4264  0.0359  0.1345
 8774TIP3    H147813   0.740   5.936  13.969  0.3563 -1.7076  1.3190
 8774TIP3    H247814   0.596   5.927  13.924  0.5050 -1.7406  0.8430
 8775TIP3   OH247815   1.765   2.496  13.784 -0.1332  0.4178  0.0528
 8775TIP3    H147816   1.686   2.524  13.831 -0.3260  0.1268 -0.0972
 8775TIP3    H247817   1.785   2.410  13.820 -0.4796  0.0419 -0.6449
 8776TIP3   OH247818   1.562   6.620   4.613  0.0697  0.1256  0.3386
 8776TIP3    H147819   1.522   6.620   4.527  3.3845 -3.1531 -1.4905
 8776TIP3    H247820   1.595   6.709   4.625 -0.7378  0.7246 -1.6270
 8777TIP3   OH247821   0.099   4.501   5.336 -0.0584  0.9585  0.6047
 8777TIP3    H147822   0.114   4.528   5.245  1.7655  0.7513  0.8152
 8777TIP3    H247823   0.007   4.477   5.338 -0.1731  1.0988 -1.1591
 8778TIP3   OH247824   0.448   2.606  12.789 -0.2648  0.0144 -0.1394
 8778TIP3    H147825   0.403   2.609  12.705 -0.3605 -0.3054 -0.0991
 8778TIP3    H247826   0.477   2.696  12.803  1.4657 -0.2713 -1.4446
 8779TIP3   OH247827   1.462   1.574  14.231  0.0742  0.0538  0.0780
 8779TIP3    H147828   1.480   1.623  14.311  2.2639 -1.3553  0.5313
 8779TIP3    H247829   1.479   1.483  14.254 -1.6719 -0.6814 -1.3514
 8780TIP3   OH247830   0.446   0.030  16.404 -0.6037  0.3589 -0.2567
 8780TIP3    H147831   0.401   0.104  16.445 -2.0857 -1.3709  1.4369
 8780TIP3    H247832   0.493   0.069  16.330 -0.4485  3.1287  1.1632
 8781TIP3   OH247833   3.757   5.306  16.500 -0.4636  0.1522  0.1000
 8781TIP3    H147834   3.846   5.279  16.475  0.4471  2.3589  0.7106
 8781TIP3    H247835   3.766   5.337  16.590 -1.6258  1.3199 -0.1561
 8782TIP3   OH247836   3.779   0.404  11.094 -0.1856  0.2126 -0.1467
 8782TIP3    H147837   3.747   0.493  11.101  0.5979  0.4092  1.2323
 8782TIP3    H247838   3.873   0.409  11.114 -0.1583 -0.9283  0.1359
 8783TIP3   OH247839   0.542   4.783  10.742  0.0473  0.1481  0.4078
 8783TIP3    H147840   0.596   4.705  10.730 -1.1009 -0.6173  0.1363
 8783TIP3    H247841   0.598   4.855  10.712  0.9024 -0.6221  0.1090
 8784TIP3   OH247842   2.793   0.950  15.599 -0.3096 -0.2637  0.0811
 8784TIP3    H147843   2.883   0.956  15.633  0.2642 -0.7034 -1.2840
 8784TIP3    H247844   2.797   0.992  15.514 -0.4915 -3.4250 -1.6335
 8785TIP3   OH247845   4.883   1.682  12.891 -0.3159 -0.0623 -0.3106
 8785TIP3    H147846   4.801   1.634  12.886 -0.7925  0.7951 -0.9965
 8785TIP3    H247847   4.872   1.756  12.831  0.0850  1.3812  1.3051
 8786TIP3   OH247848   5.874   1.199   5.260  0.5360  0.3166  0.6760
 8786TIP3    H147849   5.805   1.167   5.318 -2.3658  1.5429 -1.8122
 8786TIP3    H247850   5.896   1.285   5.295  0.1712  0.2694  1.0357
 8787TIP3   OH247851   5.177   3.349  17.154 -0.0373 -0.9406 -0.3634
 8787TIP3    H147852   5.270   3.332  17.169 -0.2301 -1.0065  0.8939
 8787TIP3    H247853   5.145   3.270  17.109  0.6986 -0.5095 -1.6847
 8788TIP3   OH247854   0.525   5.145   5.369 -1.1062 -0.6665 -0.3852
 8788TIP3    H147855   0.446   5.103   5.401 -0.6374 -0.8625  0.5241
 8788TIP3    H247856   0.516   5.237   5.394 -1.4161 -0.5196 -1.0099
 8789TIP3   OH247857   3.725   3.423  12.112 -0.3235  0.2086  0.8882
 8789TIP3    H147858   3.657   3.357  12.099 -0.7807  0.6293  1.0805
 8789TIP3    H247859   3.680   3.506  12.097  0.6594  0.4278 -1.1506
 8790TIP3   OH247860   0.557   2.387   0.207  0.4689  0.1574 -0.3517
 8790TIP3    H147861   0.577   2.474   0.242 -1.4683  0.8249 -0.7790
 8790TIP3    H247862   0.630   2.367   0.149  1.4377  1.0538  0.5229
 8791TIP3   OH247863   0.946   5.146  16.879  0.6145 -0.6092  0.3136
 8791TIP3    H147864   0.923   5.153  16.972 -0.6302 -1.1035  0.0715
 8791TIP3    H247865   1.027   5.096  16.878  1.2237  0.3216  1.1800
 8792TIP3   OH247866   5.635   3.399  14.773  0.3624  0.8089  0.3267
 8792TIP3    H147867   5.575   3.383  14.846  0.7463  1.5274  0.8181
 8792TIP3    H247868   5.658   3.492  14.781 -0.8141  1.3052 -1.6694
 8793TIP3   OH247869   2.255   6.522   3.577 -0.2115  0.0328 -0.0869
 8793TIP3    H147870   2.247   6.577   3.656 -0.0455  1.6067 -1.1221
 8793TIP3    H247871   2.170   6.479   3.569 -0.3928  0.2240  0.6804
 8794TIP3   OH247872   5.373   3.460   3.713 -0.9524  0.1222 -0.0823
 8794TIP3    H147873   5.335   3.372   3.705  1.5735 -1.1988  1.0801
 8794TIP3    H247874   5.365   3.481   3.806 -0.9590  0.8393 -0.2410
 8795TIP3   OH247875   5.150   5.086   1.680 -0.3122  0.2817  0.1496
 8795TIP3    H147876   5.238   5.077   1.718  0.0863  1.3120 -0.4620
 8795TIP3    H247877   5.092   5.092   1.756 -0.0145 -1.6079  0.5605
 8796TIP3   OH247878   0.375   6.014  13.583 -0.6410  0.3476 -0.0102
 8796TIP3    H147879   0.463   6.028  13.618 -0.0940  1.0246 -1.5372
 8796TIP3    H247880   0.335   5.951  13.642  0.1659  1.4888  1.8367
 8797TIP3   OH247881   0.827   3.104   2.403 -0.0589 -0.1732  0.5445
 8797TIP3    H147882   0.733   3.112   2.390 -0.0781 -0.1550  0.6923
 8797TIP3    H247883   0.846   3.012   2.384 -0.1216 -0.1998  0.6128
 8798TIP3   OH247884   6.682   5.490   0.883 -0.5963  0.6849 -0.5241
 8798TIP3    H147885   6.673   5.580   0.916  0.1814  1.0520 -1.2858
 8798TIP3    H247886   6.609   5.479   0.822 -2.0718 -0.0103  1.2655
 8799TIP3   OH247887   2.535   0.768   7.055  0.2813 -0.0406  0.1610
 8799TIP3    H147888   2.607   0.784   6.994  1.4601  0.9021  1.6995
 8799TIP3    H247889   2.472   0.717   7.006  1.3861  0.2823 -1.6808
 8800TIP3   OH247890   3.960   0.949   0.848 -0.0088  0.1988 -0.1165
 8800TIP3    H147891   3.934   0.861   0.874  1.7871  0.1087  1.6814
 8800TIP3    H247892   3.954   0.949   0.753  0.4185 -2.0600 -0.2082
 8801TIP3   OH247893   6.261   6.328   2.628  0.4874 -0.0991 -0.0778
 8801TIP3    H147894   6.315   6.405   2.612  1.1162 -0.5960 -0.3774
 8801TIP3    H247895   6.219   6.345   2.712 -0.2456  1.0560 -0.6611
 8802TIP3   OH247896   0.452   5.165   2.421 -0.1613 -0.1558 -0.1658
 8802TIP3    H147897   0.442   5.132   2.511  1.6137  0.8027  0.4227
 8802TIP3    H247898   0.517   5.235   2.428 -2.0965  1.9904 -1.7094
 8803TIP3   OH247899   1.154   2.136   0.998  0.0142 -0.5399 -0.5759
 8803TIP3    H147900   1.204   2.205   1.041 -1.9486 -1.0201  2.9160
 8803TIP3    H247901   1.219   2.076   0.963  1.8752 -0.0730  1.8663
 8804TIP3   OH247902   6.148   4.475   6.675 -0.3475 -0.1032  0.4650
 8804TIP3    H147903   6.189   4.557   6.704  0.4028 -0.5059  0.5836
 8804TIP3    H247904   6.208   4.407   6.706  0.0572 -0.6085 -1.3015
 8805TIP3   OH247905   4.353   0.666  13.022  0.1390 -0.0275 -0.3604
 8805TIP3    H147906   4.337   0.578  12.988 -1.4869 -0.8495  2.1868
 8805TIP3    H247907   4.290   0.722  12.977 -0.3121 -0.6076 -0.4572
 8806TIP3   OH247908   2.678   6.103  13.635 -0.3798 -0.5848 -0.1139
 8806TIP3    H147909   2.645   6.139  13.717 -0.7265 -0.4141 -0.3301
 8806TIP3    H247910   2.770   6.084  13.654 -0.6499 -1.2918  0.5649
 8807TIP3   OH247911   4.605   2.481   3.679 -0.4055 -0.5246  0.1985
 8807TIP3    H147912   4.651   2.432   3.610  0.6708  1.3406 -0.4838
 8807TIP3    H247913   4.628   2.436   3.760  1.1883 -0.7311 -0.3294
 8808TIP3   OH247914   3.499   4.040   1.481 -0.1254  0.5108  0.5556
 8808TIP3    H147915   3.497   3.980   1.406  2.7913 -1.8931  2.1372
 8808TIP3    H247916   3.408   4.049   1.507 -0.7945 -3.1443  0.0270
 8809TIP3   OH247917   4.092   3.361   4.871 -0.1497 -0.3630 -0.4441
 8809TIP3    H147918   4.007   3.405   4.867  0.1619  0.2910 -0.0120
 8809TIP3    H247919   4.107   3.346   4.965  0.6850  0.4677 -0.4366
 8810TIP3   OH247920   6.279   0.236  13.411  0.5898 -0.3281  0.5183
 8810TIP3    H147921   6.205   0.267  13.462 -0.7759 -0.1416 -1.4707
 8810TIP3    H247922   6.336   0.312  13.401  0.3961 -0.1281  0.9256
 8811TIP3   OH247923   6.357   2.372  16.495  0.3395  0.0297  0.1642
 8811TIP3    H147924   6.401   2.293  16.527 -0.8047 -0.4306  0.6390
 8811TIP3    H247925   6.313   2.344  16.415  1.1926  0.5849 -0.5167
 8812TIP3   OH247926   5.372   6.040  16.348 -0.4488  0.1717 -0.2227
 8812TIP3    H147927   5.314   5.976  16.309 -0.4291  0.6849 -1.1065
 8812TIP3    H247928   5.429   6.068  16.277 -0.3323  1.0311  0.1945
 8813TIP3   OH247929   4.574   4.166  13.154  0.3952 -0.1308  0.2532
 8813TIP3    H147930   4.495   4.125  13.120  0.2044 -0.2314  0.8213
 8813TIP3    H247931   4.622   4.193  13.075 -0.2217 -0.0218 -0.0892
 8814TIP3   OH247932   3.171   6.138  16.062 -0.2302  0.2483  0.0766
 8814TIP3    H147933   3.130   6.165  16.145  2.3569 -0.2684  1.6362
 8814TIP3    H247934   3.158   6.043  16.059  1.0416  0.0314  0.7519
 8815TIP3   OH247935   4.972   6.098   4.842 -0.5235 -0.8441 -0.1165
 8815TIP3    H147936   4.935   6.144   4.767  0.4034  2.4660  1.2868
 8815TIP3    H247937   5.059   6.071   4.814  0.6042  2.1131  0.2530
 8816TIP3   OH247938   3.313   3.048   5.814 -0.0405  0.2289 -0.0224
 8816TIP3    H147939   3.329   2.954   5.811 -1.0093  0.0587 -0.0590
 8816TIP3    H247940   3.399   3.087   5.794  0.2811 -0.6417 -0.4119
 8817TIP3   OH247941   3.781   2.206   0.896 -0.2768 -0.0006 -0.6353
 8817TIP3    H147942   3.858   2.190   0.841  0.3697  0.4400  0.1150
 8817TIP3    H247943   3.754   2.120   0.926  0.4943 -0.0921 -0.1669
 8818TIP3   OH247944   4.234   3.687  16.887  0.0251  0.0317  0.4019
 8818TIP3    H147945   4.141   3.667  16.876  0.3727 -0.4395 -2.2136
 8818TIP3    H247946   4.278   3.602  16.878  0.7557  0.2968  1.2938
 8819TIP3   OH247947   0.808   3.670   2.353  0.2741 -0.3206 -0.4338
 8819TIP3    H147948   0.774   3.628   2.274  0.7428 -1.1463 -0.2092
 8819TIP3    H247949   0.757   3.631   2.424 -1.4198  1.7354 -0.4371
 8820TIP3   OH247950   0.775   6.517   5.467  0.1252 -0.0765 -0.1608
 8820TIP3    H147951   0.773   6.610   5.446  0.5826 -0.0596 -0.1279
 8820TIP3    H247952   0.708   6.478   5.410 -1.1153  0.4748  0.8519
 8821TIP3   OH247953   5.926   3.405   0.111  0.4178 -0.3513  0.1309
 8821TIP3    H147954   5.894   3.433   0.197  0.1720 -0.1226 -0.0350
 8821TIP3    H247955   6.014   3.443   0.104  1.6881 -2.7512  1.5067
 8822TIP3   OH247956   4.806   0.412  15.984 -0.0490  0.2458  0.0236
 8822TIP3    H147957   4.840   0.368  15.906 -1.7295 -1.6084  0.2497
 8822TIP3    H247958   4.714   0.388  15.987 -0.1446  0.6264  2.3306
 8823TIP3   OH247959   3.056   1.698   3.805  0.1333 -0.3075 -0.0558
 8823TIP3    H147960   2.979   1.658   3.844  0.1231 -0.2042  0.0318
 8823TIP3    H247961   3.108   1.625   3.772  0.5737 -0.4566  0.9434
 8824TIP3   OH247962   2.816   6.497   3.766 -0.2310 -0.1921  0.2395
 8824TIP3    H147963   2.887   6.501   3.702 -0.1199  0.7305  0.3947
 8824TIP3    H247964   2.794   6.404   3.773  0.8813 -0.4821  0.0989
 8825TIP3   OH247965   3.699   2.771   3.737 -0.3152 -0.8272  0.2464
 8825TIP3    H147966   3.754   2.725   3.674 -0.5615 -0.6842 -0.0736
 8825TIP3    H247967   3.724   2.734   3.822  1.4402  0.3781  0.3143
 8826TIP3   OH247968   6.696   4.444  15.970  0.2883  0.2495  0.1100
 8826TIP3    H147969   6.723   4.518  15.915  0.0535  0.1255 -0.1769
 8826TIP3    H247970   6.615   4.412  15.928  0.3154 -0.0805  0.3117
 8827TIP3   OH247971   6.500   5.276  10.917  0.2079 -0.2619 -0.0218
 8827TIP3    H147972   6.489   5.341  10.986 -0.8574  1.1819 -1.4651
 8827TIP3    H247973   6.564   5.214  10.952  0.8709  1.2731  1.6414
 8828TIP3   OH247974   4.141   5.131  11.173  0.0890 -0.1037 -0.3374
 8828TIP3    H147975   4.145   5.051  11.225  0.6815 -0.2414 -0.5877
 8828TIP3    H247976   4.072   5.113  11.108  1.0182 -0.8699 -1.1359
 8829TIP3   OH247977   6.337   0.828   1.172  0.3984  0.8132  0.0993
 8829TIP3    H147978   6.245   0.845   1.151  0.2464  0.2264  0.2765
 8829TIP3    H247979   6.354   0.880   1.251 -0.4287 -0.8085  1.4032
 8830TIP3   OH247980   4.648   6.719   0.867  0.2483 -0.8668  0.2154
 8830TIP3    H147981   4.572   6.677   0.826  0.2927 -1.3588  0.6288
 8830TIP3    H247982   4.613   6.754   0.950  0.2770 -0.3273  0.0052
 8831TIP3   OH247983   0.657   5.245   0.788  0.5011 -0.1071  0.0609
 8831TIP3    H147984   0.680   5.281   0.702 -1.2877  1.1693  0.0618
 8831TIP3    H247985   0.609   5.165   0.769 -0.0015  0.2395 -0.1480
 8832TIP3   OH247986   6.604   1.696  12.510 -0.2599  0.3321  0.5672
 8832TIP3    H147987   6.611   1.609  12.549  0.9082 -0.3988 -1.1501
 8832TIP3    H247988   6.605   1.681  12.415 -2.2186  2.0804  0.1888
 8833TIP3   OH247989   1.955   3.817   5.374 -0.2435  0.3865  0.1855
 8833TIP3    H147990   1.926   3.862   5.453  0.9901 -0.2525  1.0277
 8833TIP3    H247991   2.025   3.758   5.403  0.4305  0.3294 -1.4142
 8834TIP3   OH247992   6.289   0.503  16.852 -0.0460 -1.2727 -0.0595
 8834TIP3    H147993   6.245   0.562  16.791 -0.1188 -1.2448  0.0198
 8834TIP3    H247994   6.374   0.485  16.811 -0.4324 -1.9307 -0.5852
 8835TIP3   OH247995   0.606   5.902  14.620  0.3212  0.3571 -0.4183
 8835TIP3    H147996   0.547   5.879  14.691  1.6064  0.6606  0.7979
 8835TIP3    H247997   0.624   5.995  14.633  0.4477  0.4513 -1.2329
 8836TIP3   OH247998   2.723   5.747  14.716  0.2981  0.3227 -0.1694
 8836TIP3    H147999   2.792   5.784  14.662 -0.7868  2.1878 -0.3769
 8836TIP3    H248000   2.721   5.654  14.692  2.2832  0.3455 -0.5874
 8837TIP3   OH248001   3.825   5.091  16.751 -0.3848 -0.1298  0.7253
 8837TIP3    H148002   3.732   5.093  16.728 -0.1672  3.7585 -0.4602
 8837TIP3    H248003   3.866   5.043  16.679 -1.2948 -0.6121  0.5094
 8838TIP3   OH248004   1.889   1.663   3.096 -0.3813 -0.1276 -1.0608
 8838TIP3    H148005   1.866   1.609   3.171  1.0799 -0.2525 -0.6751
 8838TIP3    H248006   1.861   1.612   3.020 -0.5256 -0.6720 -0.6493
 8839TIP3   OH248007   2.298   2.087   5.262  0.3669  0.1300 -0.1655
 8839TIP3    H148008   2.326   2.069   5.351  3.2363  1.3494 -0.6866
 8839TIP3    H248009   2.265   2.177   5.265 -0.3497 -0.1332 -0.1713
 8840TIP3   OH248010   4.224   2.390   3.763 -0.6507 -0.5963 -0.0250
 8840TIP3    H148011   4.179   2.361   3.684  0.0245 -1.2797 -0.1773
 8840TIP3    H248012   4.237   2.310   3.813  1.2097 -0.5954 -0.4327
 8841TIP3   OH248013   5.418   1.193  12.165  0.1084  0.7729 -0.3175
 8841TIP3    H148014   5.507   1.166  12.190  0.3395  0.7097 -1.1808
 8841TIP3    H248015   5.399   1.143  12.086 -1.1952 -0.1675  0.5489
 8842TIP3   OH248016   2.784   4.602   3.035 -0.2933 -0.0757  0.3279
 8842TIP3    H148017   2.860   4.658   3.019 -1.2229  1.1928  0.1843
 8842TIP3    H248018   2.720   4.629   2.969 -1.0462 -0.7880  0.7471
 8843TIP3   OH248019   0.269   4.356   2.568 -0.1597 -0.6688 -0.1862
 8843TIP3    H148020   0.247   4.329   2.658 -1.9915 -2.6895 -1.1395
 8843TIP3    H248021   0.330   4.289   2.538 -1.1334 -1.1848 -1.0785
 8844TIP3   OH248022   4.762   1.779   0.095 -0.3114 -0.5765 -0.0963
 8844TIP3    H148023   4.837   1.804   0.149 -0.1544 -2.1578  0.4383
 8844TIP3    H248024   4.801   1.739   0.017 -0.5895 -0.9039 -0.0676
 8845TIP3   OH248025   6.287   2.411  16.902  0.3855 -0.1971 -0.0317
 8845TIP3    H148026   6.319   2.467  16.972 -2.8147  1.9389 -0.0731
 8845TIP3    H248027   6.347   2.427  16.828  2.9109 -1.3624  1.6129
 8846TIP3   OH248028   2.582   1.219  13.489 -0.6094  0.0301 -0.4201
 8846TIP3    H148029   2.620   1.262  13.566 -0.7242 -0.4860 -0.0767
 8846TIP3    H248030   2.488   1.223  13.504 -0.6128 -0.4883 -0.3125
 8847TIP3   OH248031   2.625   0.050  11.908  0.4032 -0.5493 -0.0643
 8847TIP3    H148032   2.552  -0.005  11.881 -0.2874  0.6314 -0.7273
 8847TIP3    H248033   2.602   0.079  11.996 -0.4634  0.6060 -0.6320
 8848TIP3   OH248034   4.359   0.924   3.516 -0.6347 -0.1106 -0.1048
 8848TIP3    H148035   4.266   0.929   3.493 -0.5050  0.8163 -0.4819
 8848TIP3    H248036   4.374   1.000   3.572 -0.0680 -0.1602 -0.1838
 8849TIP3   OH248037   6.685   1.774   4.789  0.2385  0.1750 -0.3172
 8849TIP3    H148038   6.761   1.831   4.781  0.5624 -0.3847 -1.3561
 8849TIP3    H248039   6.696   1.732   4.875 -0.6132  2.4795  0.9926
 8850TIP3   OH248040   1.134   2.453   0.871  0.0727 -0.2848 -0.4114
 8850TIP3    H148041   1.150   2.378   0.814 -1.0195  0.6672 -2.0606
 8850TIP3    H248042   1.049   2.433   0.912 -0.1548 -0.0155 -0.7499
 8851TIP3   OH248043   4.488   6.833   1.066 -0.0220  0.5750  0.0830
 8851TIP3    H148044   4.474   6.772   1.138 -0.1905 -1.4002 -1.5323
 8851TIP3    H248045   4.417   6.897   1.074  0.7241  1.2043  2.3835
 8852TIP3   OH248046   6.458   4.692  14.457 -0.2756 -0.3871  0.0865
 8852TIP3    H148047   6.403   4.747  14.402  1.3744  0.7465 -0.4996
 8852TIP3    H248048   6.436   4.718  14.546  2.1085  3.0917 -0.1524
 8853TIP3   OH248049   6.733   0.549  12.539  0.2629 -0.5419 -0.3265
 8853TIP3    H148050   6.753   0.635  12.501  0.1623 -1.2248 -2.0165
 8853TIP3    H248051   6.819   0.512  12.560  0.3658 -0.4346 -0.5499
 8854TIP3   OH248052   5.912   4.176   2.556  0.1220 -0.3386  0.0009
 8854TIP3    H148053   5.843   4.109   2.555 -1.0057  0.7680  0.7047
 8854TIP3    H248054   5.865   4.259   2.548  1.2820  0.5110  1.4343
 8855TIP3   OH248055   5.739   4.244   0.098  0.3685 -0.0069 -0.1637
 8855TIP3    H148056   5.819   4.284   0.130 -0.3303  1.5054 -0.2236
 8855TIP3    H248057   5.669   4.287   0.147 -0.4267 -1.2799 -0.1252
 8856TIP3   OH248058   1.338   0.073  16.096  0.0169 -0.5770  0.0575
 8856TIP3    H148059   1.356   0.060  16.003 -2.3721 -1.0297 -0.3862
 8856TIP3    H248060   1.339   0.167  16.108 -1.4782 -0.4150 -0.8615
 8857TIP3   OH248061   1.497   3.306   2.273  0.2037  0.3880  0.0368
 8857TIP3    H148062   1.423   3.315   2.333 -0.3492  0.2048 -0.6022
 8857TIP3    H248063   1.480   3.371   2.205 -0.2114 -0.7203 -0.9503
 8858TIP3   OH248064   3.806   4.318  11.242 -0.1633  0.2162  0.2792
 8858TIP3    H148065   3.725   4.269  11.229  0.1352 -0.1572 -0.1760
 8858TIP3    H248066   3.777   4.410  11.243 -0.6147  0.0789  0.2894
 8859TIP3   OH248067   2.901   1.445  11.630 -0.2935  0.2971 -0.2093
 8859TIP3    H148068   2.925   1.479  11.544 -0.2147  0.5779 -0.0748
 8859TIP3    H248069   2.961   1.487  11.690  0.3041 -0.6412 -0.1303
 8860TIP3   OH248070   0.893   0.771   3.120 -0.1485 -0.4854  0.1397
 8860TIP3    H148071   0.808   0.811   3.102  1.0968  1.6847 -1.3250
 8860TIP3    H248072   0.907   0.710   3.047  0.6015  1.0519 -1.0606
 8861TIP3   OH248073   0.106   2.854   6.443  0.2262 -0.3435  0.0717
 8861TIP3    H148074   0.089   2.935   6.490  1.8472 -1.3155  2.5042
 8861TIP3    H248075   0.199   2.837   6.456 -0.6726 -4.5137  3.1153
 8862TIP3   OH248076   0.595   6.378   4.500 -0.2412 -0.8254  0.0210
 8862TIP3    H148077   0.567   6.320   4.571 -0.0765 -0.1873  0.6121
 8862TIP3    H248078   0.681   6.343   4.474  0.2188 -0.3945  0.9074
 8863TIP3   OH248079   6.026   3.406   0.489  0.5723 -0.0449 -0.0090
 8863TIP3    H148080   6.120   3.420   0.504  0.2537  1.8155  0.4408
 8863TIP3    H248081   5.991   3.386   0.576  0.4571 -0.1771 -0.0849
 8864TIP3   OH248082   4.206   3.484  10.413 -0.2411 -0.0724  0.3628
 8864TIP3    H148083   4.129   3.460  10.362  0.6250 -1.2907 -0.4379
 8864TIP3    H248084   4.270   3.513  10.348  0.3870 -0.2180  0.9031
 8865TIP3   OH248085   4.080   4.038  14.746  0.4446  0.0376 -0.6604
 8865TIP3    H148086   4.093   4.046  14.651 -0.9220 -0.8259 -0.9513
 8865TIP3    H248087   4.099   3.946  14.765 -2.4074 -0.6680 -0.7067
 8866TIP3   OH248088   1.588   4.546  17.110  0.6143  0.1778  0.4004
 8866TIP3    H148089   1.656   4.611  17.095  1.2890 -0.3892  0.9694
 8866TIP3    H248090   1.590   4.491  17.031  1.8005 -0.7029  1.0282
 8867TIP3   OH248091   3.785   6.418   2.130  0.2383 -0.0132 -0.0350
 8867TIP3    H148092   3.698   6.410   2.092  0.6850 -1.3654 -0.8813
 8867TIP3    H248093   3.844   6.423   2.054  0.8867  1.1225  0.5247
 8868TIP3   OH248094   4.681   3.565  12.979  0.6261  0.2547 -0.3559
 8868TIP3    H148095   4.684   3.613  13.062  0.0257  0.6813 -0.5701
 8868TIP3    H248096   4.771   3.538  12.963  0.7639  0.2581  0.3850
 8869TIP3   OH248097   0.342   5.179   1.619  0.1086 -0.6649  0.0734
 8869TIP3    H148098   0.346   5.199   1.712 -1.5470 -2.0657  0.5032
 8869TIP3    H248099   0.420   5.125   1.602  0.0873 -0.9353  0.8038
 8870TIP3   OH248100   0.061   3.979   4.125  0.1104 -0.1796 -0.2948
 8870TIP3    H148101   0.104   3.922   4.061  2.7374  1.3022 -0.0392
 8870TIP3    H248102   0.050   4.062   4.078  1.2080  0.6368  0.8252
 8871TIP3   OH248103   6.146   0.473  13.664 -0.0509  0.6182  0.3841
 8871TIP3    H148104   6.069   0.431  13.626  0.1135 -0.1882  0.9162
 8871TIP3    H248105   6.118   0.499  13.752  0.8289 -1.4425  1.3252
 8872TIP3   OH248106   2.646   3.587  12.744  0.0790  0.3177 -0.0605
 8872TIP3    H148107   2.562   3.568  12.785 -1.0185  1.4224 -1.6749
 8872TIP3    H248108   2.711   3.571  12.813 -1.3304 -1.6032  0.9126
 8873TIP3   OH248109   6.241   2.393   4.674 -0.0852  0.1447  0.1513
 8873TIP3    H148110   6.307   2.411   4.607  0.7168 -4.0056 -0.4357
 8873TIP3    H248111   6.280   2.428   4.755 -0.0526  3.1792 -1.0129
 8874TIP3   OH248112   0.420   0.890   1.700  0.5883 -0.4140 -0.2742
 8874TIP3    H148113   0.338   0.844   1.718  0.8515 -1.7981 -2.2340
 8874TIP3    H248114   0.444   0.931   1.783 -1.6846 -0.5849  0.5378
 8875TIP3   OH248115   6.765   5.474  13.570 -0.4655  0.0232 -0.0262
 8875TIP3    H148116   6.804   5.412  13.509  0.7297  2.3265 -1.7577
 8875TIP3    H248117   6.672   5.474  13.547  0.2596  2.9590 -4.1989
 8876TIP3   OH248118   4.606   5.101   5.764 -0.5407 -0.0160 -0.0761
 8876TIP3    H148119   4.586   5.130   5.853 -0.6518 -0.0026 -0.1058
 8876TIP3    H248120   4.590   5.006   5.765  0.3517 -0.1715  0.1713
 8877TIP3   OH248121   2.641   1.757   3.540  0.3984  0.3864 -0.0009
 8877TIP3    H148122   2.636   1.723   3.451  2.5907 -1.6973  0.5563
 8877TIP3    H248123   2.733   1.744   3.565  0.0501  1.7590  2.2516
 8878TIP3   OH248124   4.303   0.736  11.334 -0.1495 -0.1633  0.3134
 8878TIP3    H148125   4.314   0.694  11.248  1.5845 -0.8270  0.8168
 8878TIP3    H248126   4.371   0.804  11.336 -1.1103  0.8079  0.6213
 8879TIP3   OH248127   3.236   5.441  13.899 -0.2645  0.1612  0.7437
 8879TIP3    H148128   3.273   5.493  13.969  0.1971  1.3441 -0.3364
 8879TIP3    H248129   3.158   5.489  13.871  1.0993  1.2986 -1.4085
 8880TIP3   OH248130   4.996   6.310   2.945 -0.0083  0.0502  0.1383
 8880TIP3    H148131   5.026   6.305   2.854  0.3065  1.6272  0.1263
 8880TIP3    H248132   5.072   6.283   2.996 -0.3819 -1.4660 -0.0589
 8881TIP3   OH248133   4.627   3.047   0.275 -0.2778 -0.1320  0.3294
 8881TIP3    H148134   4.665   3.087   0.197  0.4177  0.0167  0.7387
 8881TIP3    H248135   4.700   3.036   0.335 -0.4851 -1.8805  0.3078
 8882TIP3   OH248136   0.610   0.589  13.654 -0.4673  0.2388  0.6409
 8882TIP3    H148137   0.685   0.579  13.713  0.2906  1.5583 -0.0455
 8882TIP3    H248138   0.547   0.642  13.703 -0.5505 -0.0604  0.8619
 8883TIP3   OH248139   2.200   3.307   5.732  0.2263 -0.0362 -0.0020
 8883TIP3    H148140   2.226   3.223   5.697 -0.8796 -0.2284 -0.3885
 8883TIP3    H248141   2.247   3.371   5.679  1.2134 -0.3922  0.4124
 8884TIP3   OH248142   5.091   2.556  14.071 -0.2482 -0.5919  0.3707
 8884TIP3    H148143   5.066   2.566  14.163  0.6101  0.3353  0.5143
 8884TIP3    H248144   5.047   2.475  14.043 -1.5478 -0.2095  1.2273
 8885TIP3   OH248145   0.721   0.377  15.479 -0.3140  0.6043  0.4062
 8885TIP3    H148146   0.749   0.297  15.435 -1.6078  0.6187 -0.4887
 8885TIP3    H248147   0.627   0.368  15.488 -0.3403  1.5726  1.2443
 8886TIP3   OH248148   6.283   6.598   5.639  0.0743 -0.0629  0.0724
 8886TIP3    H148149   6.369   6.568   5.611 -0.2951 -0.3333 -0.8365
 8886TIP3    H248150   6.245   6.523   5.686 -0.4555 -0.7157 -1.3276
 8887TIP3   OH248151   0.402   0.804  15.937  0.2216  0.5732 -0.5349
 8887TIP3    H148152   0.364   0.767  15.858  1.3112 -1.1548 -0.3139
 8887TIP3    H248153   0.331   0.803  16.001  0.2055 -1.2307 -0.5388
 8888TIP3   OH248154   4.298   5.845  14.711 -0.3499  0.1334  0.1148
 8888TIP3    H148155   4.222   5.903  14.705 -0.3724  0.1177  0.2483
 8888TIP3    H248156   4.304   5.822  14.803  1.3515  2.1517  0.5592
 8889TIP3   OH248157   3.838   1.526  11.987 -0.1301  0.6023  0.3559
 8889TIP3    H148158   3.771   1.457  11.992  0.1571  0.3433  0.7454
 8889TIP3    H248159   3.814   1.587  12.057  1.6170 -0.9539  2.4967
 8890TIP3   OH248160   4.583   0.504  12.490 -0.0876 -0.2441  0.3926
 8890TIP3    H148161   4.542   0.540  12.569  1.0176 -0.1087  0.9193
 8890TIP3    H248162   4.667   0.550  12.483 -0.6109  0.5231 -1.4735
 8891TIP3   OH248163   5.518   3.004   5.071  0.3941 -0.0407 -0.6345
 8891TIP3    H148164   5.507   3.051   5.154  0.1370 -1.2038  0.0069
 8891TIP3    H248165   5.446   2.941   5.068  0.3224  0.0731 -1.8127
 8892TIP3   OH248166   3.708   5.425  15.358 -0.8120  0.6265  0.2301
 8892TIP3    H148167   3.660   5.485  15.415  0.6148 -0.1352  2.3702
 8892TIP3    H248168   3.780   5.477  15.323 -0.7210  0.6669  0.4782
 8893TIP3   OH248169   1.599   1.588  13.433 -0.1397  0.2922  0.2376
 8893TIP3    H148170   1.644   1.548  13.359 -1.9381  1.1071 -1.3794
 8893TIP3    H248171   1.523   1.531  13.449 -1.3334  1.6237 -0.4580
 8894TIP3   OH248172   2.642   1.126   1.792  0.2331  0.0576 -0.4048
 8894TIP3    H148173   2.651   1.211   1.750  0.4735  0.0081 -0.4584
 8894TIP3    H248174   2.732   1.102   1.815  0.0543  0.3345  0.6354
 8895TIP3   OH248175   0.565   1.748  11.915  0.2634  0.1376 -0.4696
 8895TIP3    H148176   0.513   1.710  11.844  0.7082  0.1074 -0.7867
 8895TIP3    H248177   0.508   1.814  11.953 -0.1156 -0.0977 -0.6221
 8896TIP3   OH248178   3.860   4.590   3.290  0.7564  0.1176  0.1922
 8896TIP3    H148179   3.894   4.555   3.372 -0.1519  0.3102  0.6675
 8896TIP3    H248180   3.769   4.559   3.287  0.5397  0.7763 -0.3443
 8897TIP3   OH248181   3.811   4.605   1.237 -0.3975 -0.2010 -0.2826
 8897TIP3    H148182   3.895   4.577   1.273  0.4978  0.9312 -1.3966
 8897TIP3    H248183   3.757   4.625   1.313  0.3521 -0.8829  0.4450
 8898TIP3   OH248184   1.210   1.974   5.858 -0.2422 -0.0734 -0.8277
 8898TIP3    H148185   1.155   1.971   5.780  0.5819  0.0108 -1.4158
 8898TIP3    H248186   1.217   1.882   5.885  1.7886 -0.4767 -2.5062
 8899TIP3   OH248187   6.655   0.217  12.437 -0.5241  0.7147  0.4085
 8899TIP3    H148188   6.748   0.238  12.430 -0.2652 -0.6771 -1.2600
 8899TIP3    H248189   6.645   0.181  12.525  0.5948  0.6173  0.5136
 8900TIP3   OH248190   4.041   0.634   0.273  0.0547  0.4758  0.5904
 8900TIP3    H148191   4.057   0.577   0.348 -2.0838 -1.5522 -0.3870
 8900TIP3    H248192   4.101   0.602   0.206  0.7845  1.2110  0.8701
 8901TIP3   OH248193   5.410   0.335   0.576  0.0358 -0.0477  0.0254
 8901TIP3    H148194   5.369   0.310   0.493  1.4154 -1.3211 -0.3001
 8901TIP3    H248195   5.449   0.421   0.557  0.5670 -0.4427 -0.7352
 8902TIP3   OH248196   4.506   3.404  12.514 -0.3328  0.0061  0.1227
 8902TIP3    H148197   4.487   3.424  12.605 -0.3747  1.3367 -0.1582
 8902TIP3    H248198   4.471   3.478  12.465  1.1160  0.1100 -0.8293
 8903TIP3   OH248199   2.743   4.411   3.388  0.2847 -0.1671 -0.6031
 8903TIP3    H148200   2.783   4.416   3.475 -0.8581  0.7127 -0.1034
 8903TIP3    H248201   2.654   4.446   3.400 -1.6154 -4.2254 -1.1005
 8904TIP3   OH248202   2.280   0.189  11.496 -0.1557  0.2745 -0.0543
 8904TIP3    H148203   2.219   0.221  11.563 -0.1878  0.8835 -0.3601
 8904TIP3    H248204   2.246   0.103  11.471 -0.1727  0.0690  0.6711
 8905TIP3   OH248205   4.791   4.212   4.226  0.1362 -0.5798  0.1463
 8905TIP3    H148206   4.755   4.133   4.185 -1.1102  0.3715 -0.6378
 8905TIP3    H248207   4.868   4.180   4.274  0.1766 -2.1321 -0.8620
 8906TIP3   OH248208   1.750   3.945  17.026  0.2660  0.3123  0.7352
 8906TIP3    H148209   1.784   3.856  17.022  0.4638  0.4078  0.2037
 8906TIP3    H248210   1.671   3.939  17.080  0.4278 -0.1342  0.9182
 8907TIP3   OH248211   0.453   1.417   2.596  0.3149  0.1680  0.1232
 8907TIP3    H148212   0.451   1.390   2.505 -0.5024  1.4512 -0.2656
 8907TIP3    H248213   0.545   1.409   2.621  0.6456  0.3326 -0.9832
 8908TIP3   OH248214   0.561   5.208  10.938 -0.2871  0.5844  0.3198
 8908TIP3    H148215   0.614   5.276  10.978 -0.7601  0.0929  1.8365
 8908TIP3    H248216   0.624   5.140  10.912 -0.1991 -0.9268  3.9361
 8909TIP3   OH248217   5.579   5.963   0.840 -0.5341  0.1517  0.0874
 8909TIP3    H148218   5.662   5.930   0.805 -0.5456 -0.3224  0.5029
 8909TIP3    H248219   5.534   5.885   0.873 -0.6953  0.5331  0.7927
 8910TIP3   OH248220   6.506   2.395   0.344  0.2436  0.4493 -0.1251
 8910TIP3    H148221   6.460   2.400   0.427 -0.8115  1.0536 -0.7138
 8910TIP3    H248222   6.564   2.320   0.352 -1.6271 -1.0354  0.2799
 8911TIP3   OH248223   1.530   0.679  10.465 -0.0099 -0.0824  0.1579
 8911TIP3    H148224   1.614   0.677  10.511 -0.6676  1.4065  1.5043
 8911TIP3    H248225   1.493   0.765  10.485  0.4477  1.5382 -4.6332
 8912TIP3   OH248226   1.733   4.544  12.950 -0.1233 -1.1891  0.2321
 8912TIP3    H148227   1.777   4.545  13.035  0.0684 -3.0195  0.2136
 8912TIP3    H248228   1.648   4.505  12.968 -0.9464  0.3916 -0.0887
 8913TIP3   OH248229   1.787   5.579  16.136 -0.7117  0.0755 -0.5150
 8913TIP3    H148230   1.808   5.501  16.086  1.5061 -0.4988  1.1149
 8913TIP3    H248231   1.710   5.555  16.188 -0.0608 -1.0455 -0.0443
 8914TIP3   OH248232   2.655   3.222  10.468  0.0913 -0.5182 -0.1425
 8914TIP3    H148233   2.563   3.227  10.495  0.2631 -0.6554  0.4786
 8914TIP3    H248234   2.674   3.129  10.466  0.0540 -0.5154 -0.8486
 8915TIP3   OH248235   5.453   1.050   2.279  0.1894  0.5314 -0.1078
 8915TIP3    H148236   5.499   1.133   2.292  0.7711  0.2421 -0.2837
 8915TIP3    H248237   5.460   1.032   2.186  0.4002  0.0952 -0.0109
 8916TIP3   OH248238   6.104   1.275   0.718  0.4558 -0.0564  0.1361
 8916TIP3    H148239   6.085   1.309   0.805  0.0629 -4.0789  1.8217
 8916TIP3    H248240   6.180   1.218   0.730 -0.1944 -1.4851 -1.9221
 8917TIP3   OH248241   5.430   2.198   5.595 -0.5084 -0.1153 -0.1945
 8917TIP3    H148242   5.458   2.108   5.610  1.0803  0.4159  0.2484
 8917TIP3    H248243   5.468   2.221   5.510 -1.2511  0.0228 -0.5002
 8918TIP3   OH248244   2.534   4.380  14.326 -0.3975 -0.5496  0.0129
 8918TIP3    H148245   2.541   4.404  14.233 -0.3480  0.2525  0.2167
 8918TIP3    H248246   2.619   4.402  14.363 -0.2247 -1.4019  0.1380
 8919TIP3   OH248247   1.070   4.569   4.176 -0.4273  0.0496 -0.1063
 8919TIP3    H148248   0.994   4.618   4.146 -1.0219 -0.2524  0.8718
 8919TIP3    H248249   1.141   4.595   4.116 -0.5056  2.7006  0.8375
 8920TIP3   OH248250   3.532   6.270  13.404  0.1399 -0.4041  0.2679
 8920TIP3    H148251   3.535   6.186  13.449  1.4468 -0.1456  0.7086
 8920TIP3    H248252   3.545   6.336  13.473  1.8184  0.0097 -0.3811
 8921TIP3   OH248253   1.359   5.509   3.748 -0.5490  0.1827  0.7652
 8921TIP3    H148254   1.333   5.551   3.830  1.3922 -0.4273  1.7496
 8921TIP3    H248255   1.317   5.423   3.751  0.7715 -0.4579  1.9169
 8922TIP3   OH248256   1.266   0.903  15.729 -0.0182 -0.0586 -0.0751
 8922TIP3    H148257   1.236   0.990  15.704 -0.0330 -0.2793 -0.8635
 8922TIP3    H248258   1.309   0.869  15.650  3.0115  0.5351  1.2077
 8923TIP3   OH248259   2.699   1.082   5.584  0.3186 -0.5262  0.2664
 8923TIP3    H148260   2.778   1.049   5.543 -0.1893 -1.4743  0.0238
 8923TIP3    H248261   2.727   1.112   5.670  1.3861  1.4274 -0.7035
 8924TIP3   OH248262   4.670   4.491  16.159 -0.6897 -0.4530  0.0478
 8924TIP3    H148263   4.674   4.560  16.093  0.0001  0.5967  1.1490
 8924TIP3    H248264   4.684   4.410  16.110  0.4192  0.3512 -1.0167
 8925TIP3   OH248265   6.705   2.804   6.318 -0.3844  0.3620  0.4682
 8925TIP3    H148266   6.774   2.839   6.374 -0.0068  0.6470 -0.1595
 8925TIP3    H248267   6.660   2.740   6.373  1.1104 -0.6985  0.5431
 8926TIP3   OH248268   0.644   3.095  16.620  0.2048 -0.0173  0.5816
 8926TIP3    H148269   0.735   3.068  16.634  0.1696 -1.4225 -1.5091
 8926TIP3    H248270   0.593   3.040  16.679  0.6666  0.9486  1.9505
 8927TIP3   OH248271   1.427   4.643  12.250 -0.3290 -0.1199 -0.1959
 8927TIP3    H148272   1.521   4.652  12.262 -0.6574  0.4413  2.5359
 8927TIP3    H248273   1.417   4.574  12.185  1.9581 -1.7413  1.0662
 8928TIP3   OH248274   2.995   1.809   2.580  0.1045  0.3691  0.4683
 8928TIP3    H148275   2.951   1.827   2.497 -0.7638 -0.2382  0.7809
 8928TIP3    H248276   3.017   1.716   2.575 -3.0248 -0.6100  2.2590
 8929TIP3   OH248277   1.775   1.444  15.536  0.0869 -0.8953  0.3914
 8929TIP3    H148278   1.792   1.533  15.567 -0.5584 -0.4443 -0.4976
 8929TIP3    H248279   1.680   1.433  15.545 -0.0490 -0.9270 -0.9091
 8930TIP3   OH248280   4.729   1.421   1.993  0.3258 -0.7959  0.0298
 8930TIP3    H148281   4.706   1.372   2.072 -1.2176 -1.2692 -0.6755
 8930TIP3    H248282   4.823   1.438   2.002  0.2003 -0.8402  1.9514
 8931TIP3   OH248283   1.527   4.782  16.339 -0.2556  0.3582 -0.4943
 8931TIP3    H148284   1.467   4.838  16.290  0.7537  1.5754 -0.3653
 8931TIP3    H248285   1.502   4.795  16.430 -0.0596  0.5497 -0.4676
 8932TIP3   OH248286   2.820   4.477  11.243 -0.0381 -0.6399 -0.4366
 8932TIP3    H148287   2.900   4.488  11.193 -0.0604 -0.2642 -0.3923
 8932TIP3    H248288   2.848   4.480  11.335 -0.2329  0.6594 -0.3938
 8933TIP3   OH248289   2.145   1.552  16.376  0.2904 -0.1546  0.7539
 8933TIP3    H148290   2.204   1.608  16.426  0.7022 -0.0506  0.1653
 8933TIP3    H248291   2.200   1.478  16.348  0.7859  1.0365 -1.7146
 8934TIP3   OH248292   6.367   3.254  13.090 -0.4974  0.0397 -0.3317
 8934TIP3    H148293   6.306   3.195  13.047 -2.3710 -0.0257  2.2114
 8934TIP3    H248294   6.344   3.341  13.056 -2.0413  0.0131  0.5642
 8935TIP3   OH248295   5.349   0.369   4.812  0.2620  0.3488 -0.4066
 8935TIP3    H148296   5.397   0.372   4.729  2.0498  1.3651  0.6000
 8935TIP3    H248297   5.289   0.444   4.807  0.4287  0.4613 -0.7540
 8936TIP3   OH248298   0.866   4.564  11.954  0.0560  0.1829  0.2137
 8936TIP3    H148299   0.823   4.558  11.869 -0.4863 -0.0913  0.5044
 8936TIP3    H248300   0.933   4.495  11.952 -1.1344 -1.0296  0.6677
 8937TIP3   OH248301   2.659   2.095  15.823 -0.2531  0.1480 -0.8085
 8937TIP3    H148302   2.748   2.089  15.858 -0.9865 -0.8987  1.0314
 8937TIP3    H248303   2.617   2.015  15.854 -1.3743 -0.1934 -3.0638
 8938TIP3   OH248304   3.122   3.861   2.468 -0.3356  0.4754  0.8406
 8938TIP3    H148305   3.124   3.948   2.428 -2.2417  0.8506  1.4320
 8938TIP3    H248306   3.055   3.814   2.417  0.9604 -0.8008  0.2681
 8939TIP3   OH248307   6.082   2.195  14.690  0.2921 -0.3569 -0.7952
 8939TIP3    H148308   6.034   2.151  14.760 -0.3547 -0.3304 -1.2114
 8939TIP3    H248309   6.052   2.285  14.693 -0.9562 -0.6850 -2.1055
 8940TIP3   OH248310   5.865   5.306   3.944 -0.1391 -0.1407  0.0753
 8940TIP3    H148311   5.951   5.266   3.952 -1.2822 -2.4268  2.2890
 8940TIP3    H248312   5.858   5.365   4.019  0.5461  2.4410 -1.7643
 8941TIP3   OH248313   2.277   3.540   1.490 -0.1096 -0.3309  0.5901
 8941TIP3    H148314   2.183   3.529   1.473  0.0123  2.1812 -2.7641
 8941TIP3    H248315   2.280   3.597   1.567 -1.4686  1.0604 -0.3133
 8942TIP3   OH248316   2.991   4.932   4.181 -0.4209  0.0563 -0.1538
 8942TIP3    H148317   2.923   4.906   4.243  0.6984  0.2480  1.2014
 8942TIP3    H248318   3.018   4.850   4.139 -0.7202 -0.1700  0.0900
 8943TIP3   OH248319   1.902   4.639   3.484 -0.0956  0.1320 -0.1775
 8943TIP3    H148320   1.990   4.677   3.491  0.0498 -0.3923  1.1913
 8943TIP3    H248321   1.855   4.673   3.560 -1.0766  0.3527 -0.8567
 8944TIP3   OH248322   3.679   3.996   5.087 -0.1817 -0.1742  0.3923
 8944TIP3    H148323   3.672   3.901   5.080  0.7712 -0.2624  0.4917
 8944TIP3    H248324   3.741   4.022   5.019  0.5460  0.2160  1.1694
 8945TIP3   OH248325   3.578   6.063   4.253  0.0945 -0.3911  0.2646
 8945TIP3    H148326   3.512   6.129   4.233  0.2284  0.0083  1.1144
 8945TIP3    H248327   3.543   5.982   4.215 -0.4718 -0.0119 -0.0308
 8946TIP3   OH248328   5.335   2.897  10.647 -0.2748  0.1997 -0.1292
 8946TIP3    H148329   5.419   2.919  10.606 -0.0911  0.2797  0.2878
 8946TIP3    H248330   5.313   2.811  10.610 -0.0150  0.1811 -0.2442
 8947TIP3   OH248331   4.983   4.405   4.773  0.1119  0.0378 -0.0073
 8947TIP3    H148332   5.016   4.425   4.685 -2.1026  2.5475 -0.3978
 8947TIP3    H248333   4.911   4.344   4.757  0.3854 -0.3474  0.2089
 8948TIP3   OH248334   4.342   0.937   5.232 -0.2562  0.2668  0.0453
 8948TIP3    H148335   4.371   1.006   5.172 -1.3164  0.1230 -0.6583
 8948TIP3    H248336   4.411   0.933   5.298  1.4188 -0.2014 -1.6396
 8949TIP3   OH248337   4.303   6.641  11.521  0.5839 -0.6916  0.2864
 8949TIP3    H148338   4.356   6.592  11.585  0.8517  0.7741  1.2300
 8949TIP3    H248339   4.244   6.695  11.574 -0.9743 -1.2970 -0.7407
 8950TIP3   OH248340   5.409   6.768  12.090  0.5959  0.2937 -0.3040
 8950TIP3    H148341   5.377   6.770  12.181  2.0229 -0.0461  0.2383
 8950TIP3    H248342   5.490   6.818  12.093  1.0278 -0.3347 -1.2551
 8951TIP3   OH248343   4.650   0.207  14.057 -0.0502  0.3728  0.3570
 8951TIP3    H148344   4.646   0.301  14.075  0.4019  0.4728 -0.0373
 8951TIP3    H248345   4.589   0.193  13.984  0.8553  0.5925 -0.4693
 8952TIP3   OH248346   0.883   3.573   6.509 -0.2325 -0.3421 -0.3342
 8952TIP3    H148347   0.928   3.654   6.535  0.3560 -0.8772  0.3671
 8952TIP3    H248348   0.790   3.591   6.522 -0.0437 -0.0934  0.7485
 8953TIP3   OH248349   3.448   0.844  15.590 -0.1217  0.3279 -0.1048
 8953TIP3    H148350   3.371   0.789  15.572  0.0452  0.0916 -0.0982
 8953TIP3    H248351   3.523   0.788  15.570  0.0641  1.1110 -1.8045
 8954TIP3   OH248352   4.322   0.922  13.855 -0.4731 -0.4612  0.2404
 8954TIP3    H148353   4.325   0.856  13.786 -0.0360  1.9136 -2.1600
 8954TIP3    H248354   4.288   1.000  13.812 -1.4133  0.8101  3.0788
 8955TIP3   OH248355   2.043   6.203  15.781  0.1602 -0.1817  0.0412
 8955TIP3    H148356   1.958   6.220  15.739  0.1457  2.8100  1.0278
 8955TIP3    H248357   2.020   6.171  15.869 -0.0005  0.8411  0.3879
 8956TIP3   OH248358   6.800   4.810  14.754  0.0421 -0.1101  0.5886
 8956TIP3    H148359   6.773   4.720  14.774  2.3494 -1.0553 -0.2018
 8956TIP3    H248360   6.842   4.804  14.668 -0.5137  1.9028  0.1368
 8957TIP3   OH248361   6.744   0.745   5.259 -0.5861  0.7804  0.2303
 8957TIP3    H148362   6.771   0.663   5.300  0.9518 -0.2334 -2.5572
 8957TIP3    H248363   6.801   0.811   5.300 -0.6794  0.2068  1.3157
 8958TIP3   OH248364   6.179   4.380   0.588 -0.2473  0.2633 -0.0800
 8958TIP3    H148365   6.185   4.466   0.546 -1.5751 -0.3269 -1.6020
 8958TIP3    H248366   6.233   4.323   0.533 -0.0809 -0.0493  0.4082
 8959TIP3   OH248367   0.277   2.442  15.112  0.0518  0.1180  0.3883
 8959TIP3    H148368   0.351   2.435  15.052 -0.5005 -0.4371 -0.2313
 8959TIP3    H248369   0.301   2.514  15.170 -0.2585  2.0052 -1.7024
 8960TIP3   OH248370   3.642   5.273   0.033  0.1001 -1.4367 -0.5257
 8960TIP3    H148371   3.569   5.295   0.091  1.5528  2.6369  0.0634
 8960TIP3    H248372   3.720   5.289   0.086  1.4677 -0.9725 -2.5592
 8961TIP3   OH248373   4.494   5.586   5.868 -0.1969  0.1531  0.1093
 8961TIP3    H148374   4.471   5.667   5.914  1.5398  0.5985  0.2649
 8961TIP3    H248375   4.558   5.544   5.926 -1.5153 -1.6898  0.3473
 8962TIP3   OH248376   2.222   5.981   2.503 -0.0857 -0.1714  0.7298
 8962TIP3    H148377   2.233   6.075   2.515  1.1050 -0.1495 -0.2839
 8962TIP3    H248378   2.171   5.973   2.422  0.2954 -0.3884  0.5055
 8963TIP3   OH248379   2.840   1.992  16.577  0.4550 -0.2672 -0.2523
 8963TIP3    H148380   2.812   1.948  16.497  0.7647  3.0221 -2.3327
 8963TIP3    H248381   2.927   2.026  16.556  0.7402  0.2951  1.6732
 8964TIP3   OH248382   2.262   6.095  13.551 -0.0915 -0.6461  0.3142
 8964TIP3    H148383   2.219   6.167  13.505  0.4317  0.1266  1.0134
 8964TIP3    H248384   2.342   6.080  13.501 -0.6215 -1.3532 -0.3479
 8965TIP3   OH248385   2.444   3.658   6.684 -0.0599  0.3146 -0.0069
 8965TIP3    H148386   2.352   3.667   6.708  0.5129  1.9568  1.8943
 8965TIP3    H248387   2.466   3.568   6.709 -1.3533 -0.4517 -1.4614
 8966TIP3   OH248388   5.613   5.318   0.993 -0.0310  0.1822  0.3266
 8966TIP3    H148389   5.690   5.348   1.043 -0.0433 -1.2027  1.2419
 8966TIP3    H248390   5.602   5.384   0.924  1.7357  0.6307  0.4140
 8967TIP3   OH248391   4.149   3.916  12.956 -0.2785 -0.3812 -0.1356
 8967TIP3    H148392   4.196   3.832  12.964 -0.4594 -0.6672 -1.7581
 8967TIP3    H248393   4.077   3.898  12.895  0.8718  1.4021 -2.1835
 8968TIP3   OH248394   5.492   5.799  10.982  0.0380 -0.1007 -0.5184
 8968TIP3    H148395   5.458   5.835  10.900 -0.3921 -0.5993 -0.5702
 8968TIP3    H248396   5.485   5.704  10.970 -0.9847 -0.1713  0.4802
 8969TIP3   OH248397   5.612   5.153   1.598  0.5648 -0.2979 -0.1889
 8969TIP3    H148398   5.561   5.073   1.610 -1.1263  1.0057  1.8413
 8969TIP3    H248399   5.698   5.131   1.633 -0.1493 -0.9741  1.2252
 8970TIP3   OH248400   5.448   0.990  13.376  0.3706  0.1913 -0.5966
 8970TIP3    H148401   5.469   1.083  13.360 -1.0809  0.9577  1.5218
 8970TIP3    H248402   5.520   0.942  13.334  0.1044  2.1291 -3.6099
 8971TIP3   OH248403   5.450   3.683  16.225 -0.2904 -0.1524 -0.1002
 8971TIP3    H148404   5.477   3.775  16.226 -1.4809  0.2333 -0.8114
 8971TIP3    H248405   5.403   3.671  16.308 -0.9208  0.1438 -0.4093
 8972TIP3   OH248406   5.904   3.329  15.555  0.5030  0.3177  0.3092
 8972TIP3    H148407   5.832   3.381  15.521  0.2875 -0.4358 -0.3912
 8972TIP3    H248408   5.864   3.271  15.620  0.2828 -0.8224 -0.8126
 8973TIP3   OH248409   1.538   6.110  16.852 -0.3075 -0.3583 -0.3536
 8973TIP3    H148410   1.586   6.063  16.784 -1.1314  0.7967 -1.8083
 8973TIP3    H248411   1.526   6.046  16.922  1.9981 -1.1045 -0.5553
 8974TIP3   OH248412   0.723   3.429   2.517  0.1787 -0.2132  0.2506
 8974TIP3    H148413   0.779   3.445   2.594  0.4603  1.2885 -0.2475
 8974TIP3    H248414   0.662   3.361   2.547  1.4334 -0.9776  1.2176
 8975TIP3   OH248415   3.811   2.749   5.720  0.2836  0.2073 -0.2365
 8975TIP3    H148416   3.751   2.764   5.647  1.8273  1.0732 -1.3734
 8975TIP3    H248417   3.797   2.824   5.778  1.8872  1.6862 -1.6720
 8976TIP3   OH248418   1.595   6.789  14.421  0.3874  0.2743 -0.0931
 8976TIP3    H148419   1.553   6.861  14.373  0.6781  1.5193  1.4546
 8976TIP3    H248420   1.524   6.750  14.472  0.4214  0.0322 -0.2266
 8977TIP3   OH248421   2.823   5.810   4.551  0.0632 -0.3992  0.4338
 8977TIP3    H148422   2.894   5.799   4.614 -0.8303  3.1912  2.3080
 8977TIP3    H248423   2.867   5.843   4.472  0.7141 -0.7268  0.6474
 8978TIP3   OH248424   2.747   4.490   5.823 -0.0049  0.0745 -0.3987
 8978TIP3    H148425   2.740   4.551   5.750 -0.6522 -0.1886 -0.5678
 8978TIP3    H248426   2.656   4.466   5.843  0.2738 -1.6583 -1.0493
 8979TIP3   OH248427   6.370   6.123  13.753 -0.6363  0.7949 -0.0118
 8979TIP3    H148428   6.325   6.196  13.709 -0.7925  0.8237  0.1958
 8979TIP3    H248429   6.365   6.051  13.690  0.1348  1.1665 -0.5074
 8980TIP3   OH248430   3.579   6.141  13.823 -0.0714 -0.0956 -0.1108
 8980TIP3    H148431   3.589   6.233  13.799 -1.6961  0.4346  1.0401
 8980TIP3    H248432   3.665   6.115  13.855  1.0215  0.3370 -2.4757
 8981TIP3   OH248433   2.272   5.479  17.070 -0.6363  0.4838 -0.2111
 8981TIP3    H148434   2.256   5.408  17.007 -0.4680 -1.3242  1.6835
 8981TIP3    H248435   2.184   5.506  17.097 -0.7409  1.8392 -1.7420
 8982TIP3   OH248436   2.218   5.592  13.888  0.1138  0.1142 -0.3850
 8982TIP3    H148437   2.159   5.619  13.817 -1.0412 -0.5991  0.2729
 8982TIP3    H248438   2.263   5.673  13.913 -1.1928  0.8607 -0.3497
 8983TIP3   OH248439   5.625   3.840   1.627 -0.1803  0.3791 -0.6931
 8983TIP3    H148440   5.566   3.893   1.681 -1.0258 -1.8697  0.7408
 8983TIP3    H248441   5.587   3.845   1.540 -1.6011  0.2651 -0.1150
 8984TIP3   OH248442   5.733   5.220  13.824  0.5434  0.2548 -0.3715
 8984TIP3    H148443   5.692   5.291  13.775 -0.3289 -0.2134 -0.3380
 8984TIP3    H248444   5.826   5.228  13.803  0.7371  2.5161  1.0939
 8985TIP3   OH248445   3.749   4.171  12.278 -0.7554  0.3139  0.3512
 8985TIP3    H148446   3.685   4.120  12.327  1.5925 -1.0354  2.2960
 8985TIP3    H248447   3.819   4.187  12.341  2.3529 -1.1915 -2.4051
 8986TIP3   OH248448   0.082   4.905   1.326 -0.3021 -0.1869 -0.8215
 8986TIP3    H148449   0.075   4.933   1.417 -1.5895 -0.1602 -0.9074
 8986TIP3    H248450   0.014   4.955   1.280  1.0363  0.6237 -2.0248
 8987TIP3   OH248451   2.775   2.339   4.193 -0.1965  0.3533 -0.2939
 8987TIP3    H148452   2.822   2.372   4.269 -0.4476 -1.4246  0.7035
 8987TIP3    H248453   2.776   2.244   4.205 -2.8357  0.1890 -0.9564
 8988TIP3   OH248454   6.405   3.313  12.805 -0.0835 -0.3710 -0.5236
 8988TIP3    H148455   6.332   3.252  12.789  0.0755 -0.5152 -0.7109
 8988TIP3    H248456   6.368   3.379  12.863 -0.7637  0.3282 -1.7182
 8989TIP3   OH248457   4.766   5.789  15.460  0.0075  0.0972  0.5189
 8989TIP3    H148458   4.741   5.817  15.548  0.7548  1.6126  0.2890
 8989TIP3    H248459   4.794   5.698  15.470  0.2644  0.3077  1.8726
 8990TIP3   OH248460   5.232   3.213  13.271 -0.4464 -0.3092  0.5834
 8990TIP3    H148461   5.247   3.306  13.288 -0.9768  0.0083 -0.5843
 8990TIP3    H248462   5.319   3.173  13.275 -0.3598 -0.0069  2.3648
 8991TIP3   OH248463   6.686   5.265  16.279  0.0847  0.6025 -0.5782
 8991TIP3    H148464   6.774   5.297  16.302 -0.2857 -0.0427  1.9617
 8991TIP3    H248465   6.629   5.301  16.347 -1.5140  0.3585 -1.7448
 8992TIP3   OH248466   3.051   2.129   3.449  0.4398 -0.3378 -0.1878
 8992TIP3    H148467   3.104   2.161   3.375  0.2195 -0.7916 -0.5515
 8992TIP3    H248468   2.987   2.071   3.408 -2.6727  2.8230 -0.2366
 8993TIP3   OH248469   2.642   3.730   3.857 -0.2314 -0.4344  0.0968
 8993TIP3    H148470   2.647   3.649   3.907 -0.6242 -1.2883 -1.2235
 8993TIP3    H248471   2.584   3.786   3.908  0.7480 -0.6141  1.4739
 8994TIP3   OH248472   2.465   3.558  15.446 -0.0030 -0.5805  0.4569
 8994TIP3    H148473   2.443   3.595  15.531 -1.8960 -1.5067  0.4443
 8994TIP3    H248474   2.545   3.602  15.419  0.6739 -0.3289  2.7398
 8995TIP3   OH248475   1.979   2.659   0.379 -0.0641 -0.3998 -0.5240
 8995TIP3    H148476   1.928   2.591   0.336  1.1970 -0.5446 -1.8992
 8995TIP3    H248477   2.008   2.619   0.461 -1.1228 -0.7407 -0.3107
 8996TIP3   OH248478   6.530   0.532  14.330 -0.1959 -0.5111  0.1632
 8996TIP3    H148479   6.473   0.459  14.305 -0.2853 -1.3861  2.6482
 8996TIP3    H248480   6.612   0.490  14.358  0.3535  0.4750  0.0943
 8997TIP3   OH248481   4.342   4.166  14.783  0.0381  0.4513 -0.4901
 8997TIP3    H148482   4.263   4.117  14.760 -0.7890  0.8465  1.3415
 8997TIP3    H248483   4.405   4.098  14.807 -0.2906  0.1808 -0.3733
 8998TIP3   OH248484   0.061   4.517   3.153  0.3476 -0.2077  0.0149
 8998TIP3    H148485   0.142   4.559   3.183  0.0022  1.1103 -0.8393
 8998TIP3    H248486   0.012   4.499   3.233 -0.2371  2.5940  0.3863
 8999TIP3   OH248487   6.107   0.585   1.972  0.3187  0.0297  0.5715
 8999TIP3    H148488   6.118   0.581   1.876 -1.3595 -1.0324  0.3943
 8999TIP3    H248489   6.040   0.520   1.991  0.1012  0.7482  2.4070
 9000TIP3   OH248490   5.804   3.289   4.186  0.5944  0.2593 -0.4758
 9000TIP3    H148491   5.728   3.345   4.175 -1.0592 -1.6645  0.4973
 9000TIP3    H248492   5.798   3.257   4.276  1.8649 -0.8969 -0.7657
 9001TIP3   OH248493   6.229   3.797  14.566  0.0772  1.0172 -0.7094
 9001TIP3    H148494   6.261   3.728  14.624 -1.5623  0.6610 -0.1804
 9001TIP3    H248495   6.255   3.767  14.478 -1.1252 -0.6066 -0.5525
 9002TIP3   OH248496   3.119   4.883  12.563 -0.4349 -0.0826 -0.1250
 9002TIP3    H148497   3.170   4.963  12.572 -0.1783 -0.4072  1.7936
 9002TIP3    H248498   3.184   4.813  12.567 -0.9203 -0.5046  2.4556
 9003TIP3   OH248499   5.411   6.023   2.680 -0.3887  0.3193  0.0472
 9003TIP3    H148500   5.450   5.941   2.711  0.9728  0.9947  0.1592
 9003TIP3    H248501   5.329   5.995   2.638  0.0720 -1.1006  0.0215
 9004TIP3   OH248502   5.487   2.437   4.689  0.0481 -0.1499 -0.0407
 9004TIP3    H148503   5.396   2.465   4.701  0.2889  0.6521 -0.0416
 9004TIP3    H248504   5.482   2.365   4.627 -0.6114 -0.2559  0.1321
 9005TIP3   OH248505   3.810   3.238  13.225  0.1027  0.2451 -0.1949
 9005TIP3    H148506   3.758   3.161  13.248  1.6209 -1.0787 -1.0027
 9005TIP3    H248507   3.849   3.215  13.140  2.2039  1.0509  0.5053
 9006TIP3   OH248508   1.264   2.444   0.459  0.2304 -0.4285 -0.7792
 9006TIP3    H148509   1.336   2.423   0.519 -0.6660  1.2344  0.9871
 9006TIP3    H248510   1.284   2.394   0.380  2.1692 -1.7021  0.4175
 9007TIP3   OH248511   0.646   0.060  14.333  0.0264 -0.1935  0.2313
 9007TIP3    H148512   0.676   0.145  14.366 -1.1179  0.6494 -0.7947
 9007TIP3    H248513   0.708   0.038  14.264  0.9295 -0.7155  1.1885
 9008TIP3   OH248514   4.779   3.242   3.137 -0.6266  0.2015  0.0469
 9008TIP3    H148515   4.719   3.202   3.200  0.5885 -1.7522  0.0321
 9008TIP3    H248516   4.815   3.318   3.183  0.5719 -1.4293  1.9571
 9009TIP3   OH248517   5.531   2.731   4.613  0.0466  0.3934  0.0884
 9009TIP3    H148518   5.618   2.728   4.653  1.1028 -0.5808 -2.1309
 9009TIP3    H248519   5.531   2.660   4.549 -2.7500 -0.2568  0.6486
 9010TIP3   OH248520   1.090   0.494   2.528  0.3782 -0.4736  0.3760
 9010TIP3    H148521   1.155   0.522   2.594  1.8052 -0.7339 -0.8616
 9010TIP3    H248522   1.131   0.418   2.486  0.4962  0.9526 -2.2729
 9011TIP3   OH248523   4.897   1.848   1.403  0.1058  0.5516  0.0471
 9011TIP3    H148524   4.836   1.922   1.400 -2.2349 -1.2077  0.5911
 9011TIP3    H248525   4.842   1.773   1.427  2.4246 -1.3043 -0.0409
 9012TIP3   OH248526   3.548   4.043  11.924 -0.3734  0.2002 -0.0183
 9012TIP3    H148527   3.485   4.094  11.873  1.1155  1.3060 -0.8311
 9012TIP3    H248528   3.599   3.995  11.858 -1.2157 -1.7698  0.6937
 9013TIP3   OH248529   3.051   2.423  13.399 -0.3243 -0.1549 -0.0216
 9013TIP3    H148530   3.142   2.397  13.411  0.0834  0.3410 -1.7230
 9013TIP3    H248531   3.020   2.446  13.487  0.0795 -3.6308  1.1732
 9014TIP3   OH248532   1.607   4.335   2.229  0.7759 -0.0852 -0.4430
 9014TIP3    H148533   1.600   4.409   2.169 -0.5702 -0.1852 -0.4421
 9014TIP3    H248534   1.529   4.342   2.284  1.6200 -0.4103  0.8292
 9015TIP3   OH248535   5.052   1.760   0.880 -0.9031 -0.2198  0.0286
 9015TIP3    H148536   4.985   1.774   0.947 -0.8822  2.6101 -0.4139
 9015TIP3    H248537   5.003   1.742   0.800 -0.9821 -1.5017  0.3381
 9016TIP3   OH248538   6.129   0.755  12.631 -0.1025 -0.2212  0.4581
 9016TIP3    H148539   6.109   0.842  12.598 -0.2747 -0.6004 -0.4591
 9016TIP3    H248540   6.064   0.698  12.590 -0.8793 -0.6097  2.1055
 9017TIP3   OH248541   1.148   5.173   5.683  0.0966 -0.3607 -0.3046
 9017TIP3    H148542   1.218   5.122   5.725  0.2614  1.4735  1.8512
 9017TIP3    H248543   1.189   5.209   5.605  1.2082 -0.2886  0.2845
 9018TIP3   OH248544   6.766   1.276   0.602  0.1962 -0.3963 -0.2419
 9018TIP3    H148545   6.683   1.237   0.574  1.1714 -3.2872  0.5400
 9018TIP3    H248546   6.827   1.203   0.606  2.0215  1.0819  2.2281
 9019TIP3   OH248547   5.306   5.353   2.190 -0.6491 -0.3664 -0.1999
 9019TIP3    H148548   5.263   5.286   2.138  0.7901 -1.9769  0.5896
 9019TIP3    H248549   5.303   5.319   2.280 -1.8861  1.7061  0.6096
 9020TIP3   OH248550   3.079   3.350  16.880 -0.0315 -0.0917  0.5443
 9020TIP3    H148551   3.106   3.269  16.923  0.4365  0.5600  1.5198
 9020TIP3    H248552   3.113   3.420  16.937  2.3813  0.8932 -1.8672
 9021TIP3   OH248553   5.582   5.596  14.873 -0.0785  0.3616 -0.7642
 9021TIP3    H148554   5.608   5.603  14.781  0.6322  0.0154 -0.5933
 9021TIP3    H248555   5.621   5.673  14.915 -1.0537  0.9393 -0.8941
 9022TIP3   OH248556   0.725   3.782  11.730 -0.0260  0.5555 -0.2269
 9022TIP3    H148557   0.651   3.783  11.792  0.2153  0.3896  0.0677
 9022TIP3    H248558   0.697   3.840  11.660 -1.7518 -1.8362 -1.6863
 9023TIP3   OH248559   4.930   2.829   3.114  0.3698  0.1894 -0.0866
 9023TIP3    H148560   4.930   2.742   3.073 -0.4815 -0.0450  0.3892
 9023TIP3    H248561   5.006   2.828   3.171 -0.7001 -0.9927  1.4093
 9024TIP3   OH248562   1.276   4.469   0.475 -0.9668 -0.1580 -0.1076
 9024TIP3    H148563   1.259   4.540   0.413 -1.4527 -0.4495 -0.3066
 9024TIP3    H248564   1.290   4.514   0.559 -0.4293  0.2243 -0.3985
 9025TIP3   OH248565   6.015   4.661  15.120 -0.3587 -0.1843  0.4016
 9025TIP3    H148566   6.083   4.654  15.187  0.2854  1.0147 -0.0889
 9025TIP3    H248567   5.951   4.722  15.158 -0.0485  0.4095 -0.0095
 9026TIP3   OH248568   5.780   5.614   4.249 -0.2968 -0.1051 -0.2948
 9026TIP3    H148569   5.710   5.561   4.288  0.1985 -1.8222 -1.6015
 9026TIP3    H248570   5.839   5.550   4.208  1.1939  1.3866 -0.6072
 9027TIP3   OH248571   3.099   0.526  14.086  0.4777  0.0795  0.1962
 9027TIP3    H148572   3.128   0.506  14.175  2.4762  1.1892 -0.1436
 9027TIP3    H248573   3.120   0.619  14.074 -2.5204  0.7808 -0.4582
 9028TIP3   OH248574   6.555   2.535   5.620  0.2025 -0.7774  0.0488
 9028TIP3    H148575   6.557   2.629   5.603 -1.7535 -0.9018 -1.2044
 9028TIP3    H248576   6.566   2.527   5.714  0.0855  0.7496  0.2121
 9029TIP3   OH248577   6.628   3.251  13.239 -0.3851 -0.3244  0.1902
 9029TIP3    H148578   6.635   3.343  13.263 -0.0022 -0.1245 -0.6300
 9029TIP3    H248579   6.615   3.252  13.144  0.5566 -1.1310  0.0309
 9030TIP3   OH248580   6.745   6.377   4.672 -0.3285  0.4389 -0.3353
 9030TIP3    H148581   6.738   6.444   4.603 -1.0461 -0.4081 -1.0997
 9030TIP3    H248582   6.717   6.296   4.630  2.0733 -0.6950  0.0977
 9031TIP3   OH248583   1.811   1.925  14.765  0.4382 -0.1861 -0.0293
 9031TIP3    H148584   1.783   2.013  14.790  1.9759 -0.3840  2.7996
 9031TIP3    H248585   1.906   1.930  14.758  0.5185 -1.5213 -0.3028
 9032TIP3   OH248586   1.954   2.666   5.430  0.3786  0.2207  0.1507
 9032TIP3    H148587   1.911   2.651   5.514  1.7653  1.1784  1.0688
 9032TIP3    H248588   2.045   2.642   5.445  0.7047  0.6654 -1.0074
 9033TIP3   OH248589   6.619   6.494   2.174  0.1890 -0.1815 -0.1590
 9033TIP3    H148590   6.699   6.451   2.144  0.8908 -2.0436  3.7369
 9033TIP3    H248591   6.561   6.422   2.198 -2.0929  1.1516 -1.3862
 9034TIP3   OH248592   5.428   2.675   4.863 -0.5515  0.0138 -0.0326
 9034TIP3    H148593   5.487   2.615   4.908 -0.1208  0.7280  0.3572
 9034TIP3    H248594   5.463   2.681   4.774 -0.1687  0.2576  0.1335
 9035TIP3   OH248595   0.789   6.286  16.037  0.6305  0.2008  0.4639
 9035TIP3    H148596   0.817   6.196  16.026 -1.4009 -0.4140 -0.0400
 9035TIP3    H248597   0.815   6.309  16.127 -0.2454 -1.4161  1.1575
 9036TIP3   OH248598   0.413   0.775  13.245 -0.0048 -0.1296 -0.1076
 9036TIP3    H148599   0.437   0.785  13.153 -0.4091 -0.2703 -0.2289
 9036TIP3    H248600   0.497   0.761  13.290  0.1001 -1.1109 -0.5923
 9037TIP3   OH248601   4.561   4.178  15.649  0.0718  0.2198 -0.3437
 9037TIP3    H148602   4.571   4.156  15.742  2.6054 -0.7228 -0.7629
 9037TIP3    H248603   4.597   4.266  15.641  2.0241 -0.5670 -0.7466
 9038TIP3   OH248604   2.070   3.181   1.254  0.4237 -0.4732 -0.1825
 9038TIP3    H148605   2.082   3.100   1.206 -0.5954  1.0147 -3.1899
 9038TIP3    H248606   1.991   3.221   1.216  0.7042  1.7918  1.3722
 9039TIP3   OH248607   0.753   1.309   3.770  0.0502 -0.1864  0.4436
 9039TIP3    H148608   0.747   1.301   3.675  1.0243  3.6487 -0.1039
 9039TIP3    H248609   0.838   1.350   3.786  0.0222 -0.9343  3.0292
 9040TIP3   OH248610   2.970   4.436  13.384 -0.2688  0.0336 -0.8745
 9040TIP3    H148611   3.064   4.419  13.382 -0.1706  0.5593 -1.0691
 9040TIP3    H248612   2.939   4.395  13.465  0.0471 -0.5256 -1.0345
 9041TIP3   OH248613   4.885   3.785  14.409 -0.4435 -0.1374  0.3139
 9041TIP3    H148614   4.856   3.734  14.485  0.4635 -2.2926 -0.7039
 9041TIP3    H248615   4.828   3.757  14.338  0.0530  0.2863 -0.2635
 9042TIP3   OH248616   6.777   3.754  14.253 -0.0521  0.3251  0.0272
 9042TIP3    H148617   6.820   3.814  14.193 -0.8326  0.6573 -0.2235
 9042TIP3    H248618   6.740   3.686  14.196  1.3233 -0.7442  0.3509
 9043TIP3   OH248619   4.091   5.207   1.405  0.0526 -0.0008 -0.6671
 9043TIP3    H148620   4.076   5.300   1.392 -0.8240 -0.0664 -0.1784
 9043TIP3    H248621   4.094   5.170   1.316 -1.9712  0.1450 -0.8377
 9044TIP3   OH248622   0.308   6.074   3.954  0.0452 -0.5950  0.1825
 9044TIP3    H148623   0.275   5.992   3.917  0.9666 -0.3452 -1.2785
 9044TIP3    H248624   0.309   6.059   4.048  0.8195 -2.5205 -0.0863
 9045TIP3   OH248625   4.463   5.850   4.085  0.4939 -0.0956  0.3010
 9045TIP3    H148626   4.502   5.763   4.094  0.8679 -0.2424 -2.1420
 9045TIP3    H248627   4.538   5.910   4.089  0.4584 -0.0320 -0.0043
 9046TIP3   OH248628   0.574   1.878  17.053  0.2046 -0.3347 -0.2144
 9046TIP3    H148629   0.576   1.808  17.118 -1.3977  0.0258  0.2716
 9046TIP3    H248630   0.481   1.896  17.039  0.5607  1.3631 -0.6901
 9047TIP3   OH248631   1.817   4.270   0.140  0.9074 -0.3573 -0.3831
 9047TIP3    H148632   1.767   4.204   0.187 -0.7484  1.1403  0.0746
 9047TIP3    H248633   1.794   4.257   0.048  1.4449 -1.0828 -0.4261
 9048TIP3   OH248634   2.285   6.261  12.806  0.1169 -0.3191  0.0136
 9048TIP3    H148635   2.376   6.238  12.822  0.3232  0.3890 -0.0968
 9048TIP3    H248636   2.288   6.320  12.730 -0.6343 -1.9412 -1.3506
 9049TIP3   OH248637   5.324   6.429  11.749 -0.5654  0.0499 -0.4931
 9049TIP3    H148638   5.330   6.355  11.809 -0.3791 -0.4986 -1.1713
 9049TIP3    H248639   5.280   6.498  11.799  1.9026  0.5455  1.1665
 9050TIP3   OH248640   1.021   2.412  14.785 -0.0411 -0.2379 -0.0612
 9050TIP3    H148641   0.965   2.420  14.862 -0.6461 -2.3332 -0.2114
 9050TIP3    H248642   1.083   2.343  14.807  0.8627  0.2948 -0.8500
 9051TIP3   OH248643   0.286   6.075  12.421  0.0505  0.1898 -0.5424
 9051TIP3    H148644   0.225   6.144  12.446 -0.5662 -0.4446 -0.2553
 9051TIP3    H248645   0.305   6.092  12.329  1.5066  1.9266  0.0129
 9052TIP3   OH248646   3.774   6.364   2.831  0.0612  0.4836 -0.3639
 9052TIP3    H148647   3.854   6.348   2.781  0.2675 -1.3587  0.4765
 9052TIP3    H248648   3.713   6.399   2.767  0.9140 -0.0006 -1.4795
 9053TIP3   OH248649   3.520   0.725   3.340  0.0707  0.0620  0.3858
 9053TIP3    H148650   3.549   0.645   3.295 -0.0648 -0.1831  0.7334
 9053TIP3    H248651   3.562   0.796   3.291  0.3327 -0.2302  0.1799
 9054TIP3   OH248652   0.134   3.437  13.165 -0.2813  1.0806 -0.1374
 9054TIP3    H148653   0.054   3.437  13.111  0.4796  1.1175 -1.2939
 9054TIP3    H248654   0.123   3.513  13.223 -1.4086  0.6586  0.2369
 9055TIP3   OH248655   1.064   0.187   0.617  0.0486  0.0646 -0.0114
 9055TIP3    H148656   1.129   0.138   0.568  1.3894  1.4881  0.2536
 9055TIP3    H248657   1.003   0.220   0.551  0.7283  0.3546 -0.5060
 9056TIP3   OH248658   1.161   6.630   5.928 -0.2235 -0.1491  0.2782
 9056TIP3    H148659   1.229   6.578   5.971 -0.6846 -0.9263  0.0903
 9056TIP3    H248660   1.102   6.656   5.999 -0.0428  0.0477  0.3583
 9057TIP3   OH248661   1.806   4.613  14.421 -0.3359 -0.7476  0.4851
 9057TIP3    H148662   1.887   4.637  14.376 -1.0837 -0.4269 -0.7481
 9057TIP3    H248663   1.830   4.542  14.480  0.6181 -1.3962 -0.6685
 9058TIP3   OH248664   0.914   1.165  10.500 -0.6709  0.1797  0.4331
 9058TIP3    H148665   0.856   1.168  10.424 -1.2363 -2.4864  0.6499
 9058TIP3    H248666   0.863   1.206  10.570 -1.5283 -0.3960  0.1625
 9059TIP3   OH248667   4.474   0.748  16.412 -0.2218 -0.2014  0.2864
 9059TIP3    H148668   4.415   0.675  16.394  0.8751 -0.6875 -1.5413
 9059TIP3    H248669   4.531   0.752  16.335 -0.3732  2.7111  0.2438
 9060TIP3   OH248670   1.036   4.743   2.249 -0.0125  0.0291  0.6547
 9060TIP3    H148671   0.959   4.687   2.254  0.4359 -0.6321  0.4125
 9060TIP3    H248672   1.107   4.683   2.226  0.3180  0.8453 -0.5830
 9061TIP3   OH248673   5.547   0.334   1.082  0.5179  0.7137  0.7264
 9061TIP3    H148674   5.624   0.328   1.139  0.7166  0.3385  0.4282
 9061TIP3    H248675   5.584   0.328   0.993  0.0821 -0.1237  0.5982
 9062TIP3   OH248676   1.226   1.171   5.157 -0.3111  0.0508  0.1359
 9062TIP3    H148677   1.243   1.225   5.234  1.2218  0.5722 -0.5419
 9062TIP3    H248678   1.262   1.220   5.084 -1.5976 -0.5103 -0.9273
 9063TIP3   OH248679   2.039   4.439  16.240 -0.0465  0.0356 -0.3177
 9063TIP3    H148680   2.064   4.530  16.256  2.1292 -0.8771  2.4442
 9063TIP3    H248681   2.081   4.417  16.157  0.9438  1.0709 -0.1193
 9064TIP3   OH248682   3.957   4.967   1.371 -0.2840  0.0985  0.3236
 9064TIP3    H148683   3.947   4.986   1.277  2.1645 -0.5168 -0.1210
 9064TIP3    H248684   4.003   5.043   1.406 -0.9380  0.1989  0.9779
 9065TIP3   OH248685   1.736   6.107   1.106 -0.2997 -0.4274 -0.0078
 9065TIP3    H148686   1.651   6.133   1.142 -1.0783 -1.4948 -1.0091
 9065TIP3    H248687   1.784   6.072   1.181 -0.7911  0.0578  0.5437
 9066TIP3   OH248688   3.480   2.494   5.737 -0.1665 -0.0371  0.2102
 9066TIP3    H148689   3.509   2.425   5.797 -0.4147 -0.7792 -0.4990
 9066TIP3    H248690   3.427   2.553   5.791 -0.2870 -0.6210  0.7399
 9067TIP3   OH248691   1.229   3.247  15.868 -0.2674  0.7811  0.4504
 9067TIP3    H148692   1.217   3.250  15.773 -1.7223  0.4894  0.6097
 9067TIP3    H248693   1.142   3.264  15.905 -0.0208 -0.4448  1.7132
 9068TIP3   OH248694   4.099   5.477  15.746 -0.1398 -0.1743 -0.5156
 9068TIP3    H148695   4.062   5.517  15.666 -1.6817  0.2511  0.3760
 9068TIP3    H248696   4.052   5.520  15.817  2.1243  0.4046  0.7109
 9069TIP3   OH248697   2.774   0.444   3.848 -0.3593 -0.1728 -0.7930
 9069TIP3    H148698   2.772   0.348   3.851  0.5457 -0.2157  2.6187
 9069TIP3    H248699   2.686   0.470   3.876 -0.4857 -0.0237 -1.3376
 9070TIP3   OH248700   6.192   4.840   5.209  1.1778  0.4227 -0.5160
 9070TIP3    H148701   6.200   4.758   5.160  1.2965  1.0861 -1.6601
 9070TIP3    H248702   6.110   4.832   5.257  2.8029 -1.7656  2.1636
 9071TIP3   OH248703   6.164   4.146   3.806  0.3733 -0.9063  0.5132
 9071TIP3    H148704   6.099   4.153   3.877 -1.2846 -0.1061 -0.9978
 9071TIP3    H248705   6.217   4.070   3.830 -1.7998 -2.2899  1.3124
 9072TIP3   OH248706   3.468   5.716   1.393  0.1692 -0.0190  0.1844
 9072TIP3    H148707   3.403   5.685   1.331 -0.1215  0.4025  0.2748
 9072TIP3    H248708   3.435   5.687   1.479 -0.3874  0.9935  0.3265
 9073TIP3   OH248709   1.393   1.868   3.012  0.1601  0.3812 -0.3159
 9073TIP3    H148710   1.385   1.815   2.933 -0.0785 -0.4669  0.2702
 9073TIP3    H248711   1.405   1.958   2.979 -1.3880  0.2597 -1.2993
 9074TIP3   OH248712   2.811   5.459  13.034  0.7338 -0.0760 -0.4402
 9074TIP3    H148713   2.730   5.427  12.993  0.7354  1.3096 -1.5932
 9074TIP3    H248714   2.782   5.530  13.092  0.7347 -1.9621  2.0562
 9075TIP3   OH248715   4.161   1.109  11.289  0.0610  0.3338  0.6929
 9075TIP3    H148716   4.203   1.190  11.319 -0.4009 -0.0501  2.5141
 9075TIP3    H248717   4.164   1.114  11.193  0.4164  2.3118  0.7635
 9076TIP3   OH248718   6.357   3.111  10.087  0.0478 -0.0028 -0.0431
 9076TIP3    H148719   6.355   3.143  10.177 -1.8719 -3.6986  1.4505
 9076TIP3    H248720   6.297   3.169  10.040  3.1675  3.7412  0.1562
 9077TIP3   OH248721   3.881   5.323   0.157  0.8403  0.1672  0.2259
 9077TIP3    H148722   3.926   5.408   0.153  0.7557  0.2555  1.0138
 9077TIP3    H248723   3.891   5.286   0.069 -0.5316  1.7207 -0.6420
 9078TIP3   OH248724   4.457   4.874  12.490  0.7253  0.0772 -0.2483
 9078TIP3    H148725   4.449   4.872  12.586 -0.0263 -1.5312 -0.3193
 9078TIP3    H248726   4.409   4.953  12.464 -1.2915 -0.8284  0.5393
 9079TIP3   OH248727   5.943   0.216   0.232  0.1543 -0.0734 -0.1402
 9079TIP3    H148728   5.916   0.125   0.245 -0.1019 -0.3028 -1.9969
 9079TIP3    H248729   5.861   0.264   0.219  0.3853  0.0854 -1.0384
 9080TIP3   OH248730   4.351   5.057   1.381  0.9078  0.4570 -0.1448
 9080TIP3    H148731   4.289   5.085   1.448  0.3290 -0.6515 -0.1900
 9080TIP3    H248732   4.300   5.051   1.301  1.6986  2.2198 -0.8213
 9081TIP3   OH248733   2.356   3.409   2.548  0.1835 -0.2155  0.4595
 9081TIP3    H148734   2.283   3.355   2.518 -0.2250  1.2161 -1.2708
 9081TIP3    H248735   2.315   3.480   2.597  0.4184  0.4181 -0.2434
 9082TIP3   OH248736   2.927   5.797  17.155 -0.0365  0.0973 -0.1623
 9082TIP3    H148737   2.855   5.789  17.093  0.3554 -0.1211 -0.5970
 9082TIP3    H248738   2.955   5.707  17.172 -1.1130  0.0230  1.5189
 9083TIP3   OH248739   5.572   1.355   0.157  0.0597 -0.3839  0.0650
 9083TIP3    H148740   5.560   1.340   0.251 -0.1116  0.0732  0.1168
 9083TIP3    H248741   5.565   1.450   0.146 -0.1563 -0.4518 -0.4404
 9084TIP3   OH248742   0.434   5.595  14.399 -0.3141 -0.0773  0.0328
 9084TIP3    H148743   0.351   5.577  14.354 -0.6283  1.9158 -0.2737
 9084TIP3    H248744   0.468   5.674  14.357  0.5308  0.5413  1.7664
 9085TIP3   OH248745   0.165   6.301   3.860  0.1908 -0.0548  0.2028
 9085TIP3    H148746   0.210   6.371   3.814 -0.9938 -1.2253 -3.0592
 9085TIP3    H248747   0.228   6.229   3.862 -0.0437 -0.2752 -0.3500
 9086TIP3   OH248748   2.209   1.118   3.349 -0.5648  0.1229 -0.2728
 9086TIP3    H148749   2.222   1.196   3.403  0.9446 -0.1865 -0.1537
 9086TIP3    H248750   2.188   1.049   3.411  0.5894 -0.1014 -0.1033
 9087TIP3   OH248751   1.132   4.529  13.268 -0.5648 -0.6310  0.8039
 9087TIP3    H148752   1.192   4.570  13.330 -1.7124  0.2165  1.3888
 9087TIP3    H248753   1.097   4.453  13.316 -2.2072  0.5899  1.6166
 9088TIP3   OH248754   2.998   4.781   6.689 -0.2296 -0.1919 -0.2553
 9088TIP3    H148755   2.963   4.709   6.636 -0.0853  0.6003 -1.4489
 9088TIP3    H248756   3.046   4.836   6.628 -0.8124  1.2473  0.5137
 9089TIP3   OH248757   4.162   5.150  12.068  1.3427 -0.3433 -0.1912
 9089TIP3    H148758   4.129   5.204  11.996  1.3914 -0.9007 -0.6383
 9089TIP3    H248759   4.136   5.061  12.045 -0.8167 -0.3055  1.6661
 9090TIP3   OH248760   5.761   6.032  14.818 -0.8438 -0.1058  0.2359
 9090TIP3    H148761   5.827   6.039  14.887  0.4634 -3.0741 -0.5691
 9090TIP3    H248762   5.757   6.120  14.779  1.3283  0.6005  1.4601
 9091TIP3   OH248763   2.076   4.712  14.566 -0.6423 -0.0953  0.1524
 9091TIP3    H148764   2.089   4.700  14.472 -0.6149  0.3219  0.1029
 9091TIP3    H248765   2.151   4.764  14.594 -1.1058  0.5464  0.2394
 9092TIP3   OH248766   3.362   4.984   5.340 -0.0539  0.9466  0.1441
 9092TIP3    H148767   3.457   4.973   5.339 -0.2256 -0.8883 -0.8187
 9092TIP3    H248768   3.333   4.932   5.415 -0.3875  0.2177 -0.4711
 9093TIP3   OH248769   4.880   2.633   4.209 -0.2491 -0.0096  0.0515
 9093TIP3    H148770   4.957   2.577   4.203 -0.3599  0.0033 -1.7461
 9093TIP3    H248771   4.914   2.715   4.245  0.4518 -0.2331 -0.0800
 9094TIP3   OH248772   6.292   4.937  15.983 -0.4067 -0.2850 -0.2717
 9094TIP3    H148773   6.306   5.022  16.026 -0.0764  0.3045 -1.5071
 9094TIP3    H248774   6.347   4.940  15.905 -0.6773 -1.5021 -0.5253
 9095TIP3   OH248775   1.883   4.786  13.283  0.1156  0.1398 -0.3418
 9095TIP3    H148776   1.945   4.858  13.268  0.6004 -0.3100 -0.5533
 9095TIP3    H248777   1.936   4.707  13.271 -0.2774 -0.2520  0.4308
 9096TIP3   OH248778   3.008   6.334  14.998 -0.3938  0.4064 -0.0260
 9096TIP3    H148779   2.935   6.351  15.057  0.7796 -1.2218  2.0012
 9096TIP3    H248780   3.020   6.416  14.950 -3.0204  0.9480  0.1161
 9097TIP3   OH248781   6.143   5.978  14.769  1.0948 -0.3625 -0.4778
 9097TIP3    H148782   6.162   5.933  14.851 -3.0959 -0.5910  0.5794
 9097TIP3    H248783   6.177   6.067  14.782  2.1928 -0.9224  0.6861
 9098TIP3   OH248784   3.349   4.393  10.569  0.4690  0.1031  0.2505
 9098TIP3    H148785   3.344   4.348  10.653 -1.7851 -0.3114 -0.0439
 9098TIP3    H248786   3.326   4.483  10.588  0.6891  0.1733  0.1873
 9099TIP3   OH248787   6.783   4.892   2.064 -0.4662  0.0098 -0.2196
 9099TIP3    H148788   6.721   4.892   2.137 -0.7907 -0.9183 -0.4825
 9099TIP3    H248789   6.847   4.960   2.087  0.4248 -1.3886  1.7805
 9100TIP3   OH248790   0.970   3.671  16.640 -0.5128 -0.4050 -0.2371
 9100TIP3    H148791   1.060   3.702  16.653 -0.4263 -1.0257  0.7677
 9100TIP3    H248792   0.964   3.654  16.547  0.4928 -0.5882 -0.2839
 9101TIP3   OH248793   4.453   3.140   5.150  0.3776  0.2461 -0.0775
 9101TIP3    H148794   4.542   3.109   5.134  0.1759 -0.5496  0.2917
 9101TIP3    H248795   4.404   3.113   5.072  0.4301  0.5745 -0.2254
 9102TIP3   OH248796   4.440   4.326   3.478 -0.1229 -0.6660 -0.2439
 9102TIP3    H148797   4.518   4.323   3.532 -1.0241  1.7896  1.3830
 9102TIP3    H248798   4.457   4.396   3.414  0.0590 -2.0441 -1.7863
 9103TIP3   OH248799   1.540   0.714   1.684  0.2059 -0.1736  0.0019
 9103TIP3    H148800   1.512   0.700   1.774 -1.5710 -0.9378 -0.6100
 9103TIP3    H248801   1.463   0.753   1.642  0.8727 -0.1722 -1.2641
 9104TIP3   OH248802   5.056   0.446   3.938  0.1225 -0.2037 -0.0493
 9104TIP3    H148803   4.974   0.496   3.940 -0.3811 -0.9733  2.4757
 9104TIP3    H248804   5.031   0.358   3.965  1.7771 -0.4106  0.9721
 9105TIP3   OH248805   4.256   4.258   4.021 -0.8240 -0.9242 -0.0658
 9105TIP3    H148806   4.200   4.310   3.964  2.9465  3.3971 -0.4267
 9105TIP3    H248807   4.322   4.222   3.961  0.7397  0.0967  0.9800
 9106TIP3   OH248808   0.375   0.109   2.408  0.0413 -0.1810 -0.1671
 9106TIP3    H148809   0.458   0.065   2.388  0.2551  0.6026 -1.0206
 9106TIP3    H248810   0.392   0.201   2.391 -1.3069 -0.1319 -1.3936
 9107TIP3   OH248811   6.354   1.576   5.708  0.1612 -0.1457 -0.0183
 9107TIP3    H148812   6.318   1.664   5.714 -1.8250 -0.9601  0.8322
 9107TIP3    H248813   6.360   1.546   5.798  0.3502 -1.0548 -0.3212
 9108TIP3   OH248814   6.611   4.511  14.172 -0.0766  0.1703  0.2957
 9108TIP3    H148815   6.670   4.546  14.105  1.3618  1.4541  2.1558
 9108TIP3    H248816   6.526   4.550  14.151  0.2174  0.1106 -1.0933
 9109TIP3   OH248817   3.719   1.242  15.292 -0.4380  0.7852 -0.2064
 9109TIP3    H148818   3.690   1.153  15.314 -0.9508  1.2676  1.1837
 9109TIP3    H248819   3.765   1.232  15.209 -0.4907 -0.7845 -0.0818
 9110TIP3   OH248820   0.268   3.149   1.540  0.3271 -0.0878  0.7880
 9110TIP3    H148821   0.296   3.231   1.499  2.0875 -1.2685 -0.5420
 9110TIP3    H248822   0.205   3.112   1.479 -0.0131 -0.0058  1.0903
 9111TIP3   OH248823   0.243   4.797  13.799 -0.4421  0.2501  0.0898
 9111TIP3    H148824   0.255   4.783  13.705  0.8082  1.9365 -0.0526
 9111TIP3    H248825   0.314   4.749  13.840 -0.3199  0.4364  0.0962
 9112TIP3   OH248826   6.553   4.115   3.804  0.6045  0.3681  0.3929
 9112TIP3    H148827   6.629   4.139   3.752  0.3324 -2.2454 -1.3483
 9112TIP3    H248828   6.491   4.079   3.742 -1.0791  0.1115  2.1258
 9113TIP3   OH248829   1.722   3.467   0.900  0.1515 -0.0097  0.6293
 9113TIP3    H148830   1.720   3.560   0.879  1.5705 -0.4901 -2.0677
 9113TIP3    H248831   1.803   3.455   0.950  0.1839  0.1352  0.6116
 9114TIP3   OH248832   5.771   4.422   2.549 -0.4798  0.3454  0.4610
 9114TIP3    H148833   5.711   4.477   2.600 -1.4662  1.4065 -1.7201
 9114TIP3    H248834   5.781   4.468   2.466  1.2935 -1.1651 -0.2193
 9115TIP3   OH248835   0.403   5.116   4.079  0.1191  0.2528  0.0403
 9115TIP3    H148836   0.456   5.057   4.131  0.1598  0.7529  0.5748
 9115TIP3    H248837   0.466   5.167   4.027  0.0566 -0.6420 -0.9553
 9116TIP3   OH248838   1.396   5.326   2.782 -0.0325  0.2084 -0.2040
 9116TIP3    H148839   1.410   5.235   2.756  0.9308  0.3446 -0.2230
 9116TIP3    H248840   1.305   5.344   2.761 -0.0330 -0.5364 -0.8690
 9117TIP3   OH248841   2.381   3.974   2.983 -0.1176  0.1526  0.1690
 9117TIP3    H148842   2.327   4.051   2.968  0.5401  0.1213 -3.2268
 9117TIP3    H248843   2.323   3.900   2.968 -0.0947  0.0219  0.6949
 9118TIP3   OH248844   5.351   4.453  15.482 -0.3976 -0.1311 -0.0353
 9118TIP3    H148845   5.296   4.438  15.558  0.5099  0.8177  0.8377
 9118TIP3    H248846   5.375   4.365  15.452 -1.9954 -0.5382 -0.1665
 9119TIP3   OH248847   6.718   4.930  12.743 -0.3042  0.0414  0.1150
 9119TIP3    H148848   6.675   5.014  12.762 -0.6258 -0.0580 -0.1728
 9119TIP3    H248849   6.662   4.864  12.784 -0.7753 -0.1399 -0.7938
 9120TIP3   OH248850   2.994   4.768  12.863 -0.0711 -0.0910  0.4130
 9120TIP3    H148851   3.007   4.863  12.872  0.0135  0.0089 -0.6577
 9120TIP3    H248852   2.901   4.755  12.878  0.2100 -0.0805  2.3709
 9121TIP3   OH248853   6.518   6.773  11.846  0.3985 -0.3306 -0.3026
 9121TIP3    H148854   6.611   6.793  11.838  0.8696 -1.7404  1.1486
 9121TIP3    H248855   6.512   6.679  11.827 -0.9279 -0.0379 -1.5555
 9122TIP3   OH248856   1.698   4.023   3.212  0.0139 -0.2273  0.0494
 9122TIP3    H148857   1.686   3.939   3.169 -1.2640 -0.2180  0.3661
 9122TIP3    H248858   1.743   4.002   3.294  0.3405 -0.5127 -0.2010
 9123TIP3   OH248859   0.292   2.567  11.499 -0.4898 -0.5835 -0.0733
 9123TIP3    H148860   0.383   2.560  11.468 -0.4100  1.0779 -0.3233
 9123TIP3    H248861   0.240   2.572  11.419 -0.7954 -1.3660  0.0711
 9124TIP3   OH248862   5.192   4.078  14.292 -0.2941  0.0160 -0.0296
 9124TIP3    H148863   5.286   4.085  14.309 -0.3783 -0.0363  0.4585
 9124TIP3    H248864   5.161   4.010  14.352 -0.3678 -1.0815 -1.2593
 9125TIP3   OH248865   6.806   0.954   0.185  0.2587  0.3424  0.2073
 9125TIP3    H148866   6.760   1.037   0.170 -0.1045  0.0714 -0.1764
 9125TIP3    H248867   6.741   0.898   0.228 -1.1032 -1.3677 -3.6940
 9126TIP3   OH248868   2.573   4.260  12.421  0.1624 -0.0415 -0.1160
 9126TIP3    H148869   2.643   4.260  12.356  1.3011  0.3202  1.0799
 9126TIP3    H248870   2.612   4.299  12.499 -1.7041  1.2358  0.2424
 9127TIP3   OH248871   6.248   4.526  16.715  0.5389  0.5318 -0.1905
 9127TIP3    H148872   6.196   4.561  16.643  0.3482  0.3390 -0.1494
 9127TIP3    H248873   6.184   4.506  16.783  0.3281 -1.9459 -1.0062
 9128TIP3   OH248874   3.120   6.826   3.013 -0.1869  0.3210  0.0700
 9128TIP3    H148875   3.059   6.788   2.951  1.4276 -0.7696 -0.9402
 9128TIP3    H248876   3.202   6.835   2.964  0.5812  1.4016  1.4532
 9129TIP3   OH248877   6.418   0.983   0.950  0.1541 -0.0938  0.1477
 9129TIP3    H148878   6.511   1.005   0.954  0.2551 -0.1483 -1.3720
 9129TIP3    H248879   6.406   0.921   1.022  1.4398 -0.5702 -0.0101
 9130TIP3   OH248880   5.619   4.679  15.550 -0.3438  0.1870 -0.3497
 9130TIP3    H148881   5.559   4.749  15.575  1.7255  2.3560 -1.0297
 9130TIP3    H248882   5.653   4.706  15.464  0.4035 -1.7715 -0.7401
 9131TIP3   OH248883   5.850   0.854  12.411 -0.4060  0.8312 -0.2322
 9131TIP3    H148884   5.939   0.891  12.410  0.1815 -0.4520  1.0032
 9131TIP3    H248885   5.834   0.827  12.321  1.0269 -0.1733 -0.2131
 9132TIP3   OH248886   2.680   0.093   0.296 -0.0165  0.0340 -0.3360
 9132TIP3    H148887   2.599   0.061   0.255  0.1336  0.1368 -0.7175
 9132TIP3    H248888   2.650   0.135   0.377 -0.4078  0.5403 -0.7318
 9133TIP3   OH248889   6.199   6.747  15.306  0.0204 -0.1341  0.2141
 9133TIP3    H148890   6.221   6.823  15.360  1.7987 -2.0647  2.4430
 9133TIP3    H248891   6.274   6.689  15.314 -1.7489 -2.6817 -0.3275
 9134TIP3   OH248892   6.165   4.826   3.153 -0.4406  0.1375 -0.1069
 9134TIP3    H148893   6.152   4.736   3.184 -1.2104  0.0444 -0.6776
 9134TIP3    H248894   6.222   4.866   3.219 -0.8435 -0.4927  0.6340
 9135TIP3   OH248895   6.498   2.284   4.793  0.1237 -0.5427  0.2463
 9135TIP3    H148896   6.554   2.362   4.789 -3.1883  1.9977 -0.6941
 9135TIP3    H248897   6.514   2.240   4.710 -1.2255  1.7267 -1.3213
 9136TIP3   OH248898   2.201   6.676  12.758 -0.1675  0.0278  0.0581
 9136TIP3    H148899   2.265   6.741  12.729  0.2827 -0.0660  0.7884
 9136TIP3    H248900   2.248   6.592  12.752 -0.6343 -0.1990 -0.5662
 9137TIP3   OH248901   0.403   5.320   1.234  0.4083  0.2690 -0.2475
 9137TIP3    H148902   0.333   5.307   1.298 -1.5456 -1.0829 -2.4972
 9137TIP3    H248903   0.455   5.239   1.239  0.4742  0.3176 -0.1354
 9138TIP3   OH248904   1.083   1.835  13.195  0.4026 -0.5479  0.1431
 9138TIP3    H148905   1.128   1.751  13.187  0.5619 -0.5027  0.5337
 9138TIP3    H248906   1.149   1.895  13.228  0.7805  0.1741 -1.7729
 9139TIP3   OH248907   0.343   4.280   3.136  0.3605 -0.3654 -0.8596
 9139TIP3    H148908   0.278   4.211   3.151  2.3306 -2.5601 -1.8256
 9139TIP3    H248909   0.297   4.361   3.159 -1.1840 -2.1319  3.2225
 9140TIP3   OH248910   2.312   5.842  16.630 -0.0853  0.0051 -0.3156
 9140TIP3    H148911   2.223   5.844  16.596 -0.1098  0.8249 -0.2395
 9140TIP3    H248912   2.367   5.830  16.553 -0.1665  1.4246 -0.6302
 9141TIP3   OH248913   1.286   4.961   0.979  0.3731  0.6559 -0.2186
 9141TIP3    H148914   1.306   5.053   0.960  2.3356  0.5222  0.8834
 9141TIP3    H248915   1.335   4.912   0.913  0.5164  0.3902  0.0806
 9142TIP3   OH248916   6.338   1.975   0.365 -0.3043 -0.4721  0.3784
 9142TIP3    H148917   6.367   1.887   0.388 -2.7336 -1.5990 -0.4849
 9142TIP3    H248918   6.368   1.987   0.275  0.1536 -0.3595  0.5462
 9143TIP3   OH248919   3.103   1.897   1.249  0.4201  0.1152 -0.2541
 9143TIP3    H148920   3.081   1.975   1.199  1.0393 -0.5294 -1.5865
 9143TIP3    H248921   3.196   1.907   1.268  0.5349 -0.3476 -0.5503
 9144TIP3   OH248922   4.905   1.389  14.419 -0.3317  0.8270  0.4971
 9144TIP3    H148923   4.935   1.364  14.506 -1.2595  0.1304  0.6367
 9144TIP3    H248924   4.969   1.453  14.388  1.4931 -0.8318  0.6329
 9145TIP3   OH248925   1.189   1.004  12.595 -0.1885  0.8872 -0.0431
 9145TIP3    H148926   1.122   1.023  12.661 -0.5636 -3.6934  1.2929
 9145TIP3    H248927   1.263   1.059  12.619 -1.6120  2.1007  1.8460
 9146TIP3   OH248928   6.648   2.759  11.966  0.2017  0.0573 -0.3543
 9146TIP3    H148929   6.571   2.715  12.003  0.7703  0.4869  1.4432
 9146TIP3    H248930   6.612   2.831  11.914 -0.6409  0.8884  1.2975
 9147TIP3   OH248931   2.803   2.036   4.268  0.1500  0.0879 -0.0512
 9147TIP3    H148932   2.775   2.006   4.181 -2.1739  2.8882 -0.4440
 9147TIP3    H248933   2.761   1.976   4.328 -0.9584  0.0201 -0.8528
 9148TIP3   OH248934   5.050   2.330  16.004 -0.3198 -0.9769 -0.7894
 9148TIP3    H148935   5.029   2.313  15.912  0.6948  1.0566 -1.4532
 9148TIP3    H248936   4.968   2.359  16.043 -1.0720 -3.1004 -0.6676
 9149TIP3   OH248937   5.798   0.854   0.961  0.7718 -0.3920  0.2648
 9149TIP3    H148938   5.822   0.813   0.878  1.1298 -3.3557  1.6834
 9149TIP3    H248939   5.704   0.838   0.970  0.7518 -0.1688  0.4655
 9150TIP3   OH248940   0.870   4.759   5.365  0.5065  0.1012  0.9111
 9150TIP3    H148941   0.915   4.818   5.426  0.6205  1.2957 -0.2733
 9150TIP3    H248942   0.932   4.746   5.293  0.0370 -0.5498  0.6099
 9151TIP3   OH248943   1.517   5.089   1.613 -0.0766  0.0065  0.4053
 9151TIP3    H148944   1.536   5.097   1.520 -0.9416 -0.6937  0.1601
 9151TIP3    H248945   1.568   5.160   1.654  2.0056 -0.9811 -0.3462
 9152TIP3   OH248946   1.131   3.198   4.791 -0.1810  0.1944 -0.9890
 9152TIP3    H148947   1.194   3.266   4.813 -0.6782  0.4700 -0.4084
 9152TIP3    H248948   1.168   3.156   4.713 -0.1073  1.4406 -1.6550
 9153TIP3   OH248949   5.353   4.135   0.703 -0.6764  0.5251  0.2360
 9153TIP3    H148950   5.384   4.180   0.781  1.8108  0.7304 -0.7741
 9153TIP3    H248951   5.328   4.205   0.642 -1.6768  0.3805  0.4509
 9154TIP3   OH248952   2.949   6.418   0.557  0.3568  0.0446  0.3024
 9154TIP3    H148953   2.983   6.490   0.505  1.1518 -0.5631 -0.0370
 9154TIP3    H248954   2.864   6.449   0.589 -0.7310 -0.0102 -2.3179
 9155TIP3   OH248955   5.076   4.059  16.847  0.2335  0.1081 -0.1684
 9155TIP3    H148956   5.138   4.129  16.829 -0.2002  0.7228  0.6715
 9155TIP3    H248957   4.999   4.104  16.883  0.1605 -0.8445  0.9049
 9156TIP3   OH248958   5.584   3.436   2.689  0.5238  0.2191 -0.2137
 9156TIP3    H148959   5.503   3.392   2.712 -0.7935  1.6532 -1.8139
 9156TIP3    H248960   5.576   3.454   2.596  1.5176  2.6607  0.0948
 9157TIP3   OH248961   1.029   2.267   5.074  0.2585 -0.0743  0.1794
 9157TIP3    H148962   1.026   2.174   5.094  0.8078 -0.4794 -1.4645
 9157TIP3    H248963   0.959   2.306   5.128 -0.4135 -1.5199  0.3929
 9158TIP3   OH248964   2.026   5.445   0.038  0.3170  0.0103 -0.0183
 9158TIP3    H148965   2.012   5.392   0.117 -1.7138  0.0375 -0.3020
 9158TIP3    H248966   1.980   5.527   0.056  2.5391  1.3401 -0.0132
 9159TIP3   OH248967   6.790   4.801   3.511  0.6567 -0.1859  0.1685
 9159TIP3    H148968   6.779   4.711   3.541 -1.5699  0.1236  0.4406
 9159TIP3    H248969   6.811   4.850   3.590  1.0834 -0.3252  0.1470
 9160TIP3   OH248970   1.126   3.397   0.071  0.2648 -0.0773 -0.7033
 9160TIP3    H148971   1.071   3.377  -0.005 -0.4685  1.0888 -0.4974
 9160TIP3    H248972   1.106   3.328   0.134 -1.1888  0.4836 -0.5246
 9161TIP3   OH248973   4.821   6.749  11.196  0.2126 -0.0447  0.3490
 9161TIP3    H148974   4.823   6.658  11.169 -1.2788 -0.2913  0.9526
 9161TIP3    H248975   4.789   6.797  11.120 -2.1053 -0.4871  0.9503
 9162TIP3   OH248976   2.251   2.636   5.421 -0.5537  0.1683  0.4775
 9162TIP3    H148977   2.236   2.642   5.515 -0.0217  0.4011  0.5485
 9162TIP3    H248978   2.331   2.584   5.413 -0.0220  1.0183  0.1894
 9163TIP3   OH248979   2.482   1.512  15.828 -0.0305 -0.1589 -0.1551
 9163TIP3    H148980   2.454   1.470  15.747 -1.0490  0.2984 -0.0568
 9163TIP3    H248981   2.425   1.589  15.837  1.7609  1.2754 -0.3359
 9164TIP3   OH248982   4.040   3.877   0.340  0.3834 -0.3133 -0.0773
 9164TIP3    H148983   3.996   3.858   0.423  1.4804 -1.5214  0.2526
 9164TIP3    H248984   4.094   3.800   0.323 -0.7620 -0.6813 -2.5651
 9165TIP3   OH248985   1.206   1.514   4.960  0.3372  0.2197  0.1337
 9165TIP3    H148986   1.295   1.477   4.958  0.3438  0.2704 -1.2978
 9165TIP3    H248987   1.199   1.565   4.880 -0.5597  1.2716  0.8549
 9166TIP3   OH248988   5.602   0.179   2.026  0.4626 -0.0320  1.1714
 9166TIP3    H148989   5.601   0.090   2.060 -1.1128  0.6601  3.1678
 9166TIP3    H248990   5.530   0.223   2.072 -1.4666  1.2393 -2.6713
 9167TIP3   OH248991   1.059   1.597  11.591  0.5785  0.2792  0.3058
 9167TIP3    H148992   1.042   1.602  11.497  1.1309 -0.7639  0.1422
 9167TIP3    H248993   1.136   1.541  11.600  1.7900  1.9821  1.2735
 9168TIP3   OH248994   4.156   0.055  10.559 -0.0374  0.2006 -0.2611
 9168TIP3    H148995   4.068   0.032  10.530 -1.6254  2.1714  2.4516
 9168TIP3    H248996   4.208  -0.024  10.547 -1.6738 -0.5206 -3.5382
 9169TIP3   OH248997   5.379   5.823  12.675 -0.3010 -0.5550 -0.0483
 9169TIP3    H148998   5.367   5.763  12.602  1.1242  0.9747 -1.6181
 9169TIP3    H248999   5.474   5.831  12.686 -0.4708 -0.0091  1.3414
 9170TIP3   OH249000   4.935   1.501   3.509 -0.2974 -0.2790  0.7062
 9170TIP3    H149001   4.941   1.553   3.589 -0.2923  0.4170  0.2633
 9170TIP3    H249002   5.027   1.485   3.485 -0.1961 -3.4704  2.6940
 9171TIP3   OH249003   6.602   3.852   2.991 -0.2564  0.3415 -0.5213
 9171TIP3    H149004   6.627   3.789   2.924 -0.9760  0.0158 -0.4917
 9171TIP3    H249005   6.570   3.799   3.064 -1.5453  0.7416 -0.7626
 9172TIP3   OH249006   5.386   1.080   5.929 -0.1713  0.5276 -0.0436
 9172TIP3    H149007   5.459   1.054   5.986  0.2515  2.4163  0.3553
 9172TIP3    H249008   5.322   1.118   5.989 -0.8341  0.2309 -0.5630
 9173TIP3   OH249009   5.303   1.735  15.837 -0.2537  0.7555 -0.4342
 9173TIP3    H149010   5.373   1.696  15.784  0.0550  1.0558 -0.2533
 9173TIP3    H249011   5.242   1.771  15.774 -1.8472 -2.1272 -0.7419
 9174TIP3   OH249012   5.866   3.746  15.585 -0.2140 -0.0100  0.2146
 9174TIP3    H149013   5.787   3.694  15.598 -0.2748 -0.1266 -0.5696
 9174TIP3    H249014   5.836   3.822  15.535  0.3589 -0.6384 -1.1379
 9175TIP3   OH249015   5.752   2.841  16.176  0.0476 -0.3396 -0.4323
 9175TIP3    H149016   5.711   2.911  16.127  1.2788  0.6239 -0.1410
 9175TIP3    H249017   5.785   2.781  16.110 -1.6093 -1.0469 -0.6713
 9176TIP3   OH249018   0.149   2.037   0.574 -0.0896  0.3007 -0.0676
 9176TIP3    H149019   0.152   1.941   0.585 -0.3599 -0.0665 -2.6491
 9176TIP3    H249020   0.063   2.062   0.606 -1.7206 -0.9726 -3.0850
 9177TIP3   OH249021   2.940   4.721  13.654 -0.0253  0.8271  0.0620
 9177TIP3    H149022   2.877   4.790  13.632  0.0386  0.5367 -1.0953
 9177TIP3    H249023   2.932   4.711  13.749 -0.1085  2.3472  0.2439
 9178TIP3   OH249024   5.093   2.243  12.447  0.3867  0.2331 -0.1721
 9178TIP3    H149025   5.030   2.293  12.498 -0.2923  2.5589 -3.0044
 9178TIP3    H249026   5.068   2.151  12.460 -0.8768  0.8350  2.0669
 9179TIP3   OH249027   0.695   3.739   0.466  0.0191  0.6739  0.3135
 9179TIP3    H149028   0.745   3.820   0.472  2.2800 -0.7080  1.3330
 9179TIP3    H249029   0.761   3.670   0.464 -1.8332 -1.3255  2.3429
 9180TIP3   OH249030   6.550   2.567  16.631  0.1192 -0.6378 -0.0944
 9180TIP3    H149031   6.507   2.483  16.616  0.0328 -0.6758  0.3583
 9180TIP3    H249032   6.641   2.552  16.606 -0.0643 -0.6353 -0.7864
 9181TIP3   OH249033   1.163   1.055  10.566  0.2609 -0.5004  0.8634
 9181TIP3    H149034   1.074   1.089  10.556  0.7427  0.3076 -1.2159
 9181TIP3    H249035   1.218   1.133  10.567  1.2148 -1.0342 -1.7367
 9182TIP3   OH249036   3.028   6.395  15.353  0.5547  0.0287 -0.1214
 9182TIP3    H149037   2.977   6.409  15.433  0.6261  1.1548 -0.2661
 9182TIP3    H249038   3.044   6.483  15.318  1.1403 -0.4082 -0.9930
 9183TIP3   OH249039   4.366   2.500   2.992  0.3866  0.2904  0.6122
 9183TIP3    H149040   4.392   2.533   2.905  1.6941  2.0246  1.5998
 9183TIP3    H249041   4.446   2.464   3.029  0.4086  1.6203  1.9599
 9184TIP3   OH249042   2.239   2.729  13.594  0.4674  0.1445 -1.1331
 9184TIP3    H149043   2.319   2.679  13.612 -0.2553 -1.1583 -1.4028
 9184TIP3    H249044   2.246   2.753  13.501  0.0579 -0.9335 -1.4596
 9185TIP3   OH249045   3.345   2.897   4.244  0.1278 -0.6152 -0.6763
 9185TIP3    H149046   3.398   2.820   4.263 -1.5956 -1.7514 -0.3177
 9185TIP3    H249047   3.292   2.873   4.169  0.2396  0.5779 -1.1644
 9186TIP3   OH249048   0.468   6.666  13.866 -0.2941 -0.2377 -0.3385
 9186TIP3    H149049   0.457   6.757  13.892 -1.2022 -0.6594  0.8822
 9186TIP3    H249050   0.503   6.623  13.944 -1.1294 -1.1708 -0.4606
 9187TIP3   OH249051   6.505   3.900  14.100 -0.7273  0.0250  0.1348
 9187TIP3    H149052   6.523   3.826  14.042 -1.0514  1.1463 -1.4487
 9187TIP3    H249053   6.572   3.893  14.168  0.0665 -0.9706 -0.7056
 9188TIP3   OH249054   5.719   4.639  14.950  0.4273  0.0312 -0.2849
 9188TIP3    H149055   5.791   4.617  15.009 -0.5238 -1.5166  0.3805
 9188TIP3    H249056   5.735   4.730  14.925  0.9324  0.7254  2.2764
 9189TIP3   OH249057   6.679   3.998  14.998  0.5760 -0.0611  0.1393
 9189TIP3    H149058   6.758   4.053  14.997  0.4628  0.1288  1.0472
 9189TIP3    H249059   6.608   4.058  15.016  0.1518 -0.1646 -1.1339
 9190TIP3   OH249060   5.661   4.006   5.404 -0.1700  0.1061 -0.0634
 9190TIP3    H149061   5.741   3.962   5.375  0.4984 -0.6471  2.6293
 9190TIP3    H249062   5.590   3.947   5.377  0.3372 -0.2250 -0.6960
 9191TIP3   OH249063   4.874   4.237   6.145  0.1787 -0.2472 -0.3944
 9191TIP3    H149064   4.931   4.181   6.093 -0.1315 -0.4853 -0.4817
 9191TIP3    H249065   4.788   4.196   6.139  0.3471 -0.9348  1.2459
 9192TIP3   OH249066   3.833   4.827   1.995  0.1560 -0.8520 -0.0247
 9192TIP3    H149067   3.887   4.755   1.963 -1.1703 -1.8332 -0.1322
 9192TIP3    H249068   3.803   4.871   1.915  1.1548  0.0002  0.0444
 9193TIP3   OH249069   6.110   3.427  13.277  0.2242  0.5181  0.0703
 9193TIP3    H149070   6.064   3.439  13.194  0.1543 -0.5110 -0.0514
 9193TIP3    H249071   6.129   3.333  13.281  0.3112  0.5689  1.1755
 9194TIP3   OH249072   2.588   6.520  12.558  0.7958  0.1188  0.0911
 9194TIP3    H149073   2.630   6.562  12.483  0.7423 -0.8280 -0.4756
 9194TIP3    H249074   2.652   6.457  12.590  0.2769 -0.4652 -0.0147
 9195TIP3   OH249075   5.871   6.788   0.273 -0.0502  0.0711 -0.0246
 9195TIP3    H149076   5.818   6.807   0.350 -1.0365 -0.7352 -0.4711
 9195TIP3    H249077   5.952   6.751   0.307  0.1070  1.0294  0.6665
 9196TIP3   OH249078   4.187   5.610   2.727 -0.0770 -0.7801 -0.1318
 9196TIP3    H149079   4.118   5.577   2.669 -1.6155  3.4681 -1.1227
 9196TIP3    H249080   4.260   5.630   2.668 -0.6204  0.9550 -0.2906
 9197TIP3   OH249081   6.683   0.677   2.953  0.2437  0.6148 -0.5092
 9197TIP3    H149082   6.640   0.755   2.918  0.4929 -0.0353 -2.3752
 9197TIP3    H249083   6.611   0.625   2.991 -0.0556  1.2928 -0.1347
 9198TIP3   OH249084   1.445   2.119  11.614 -0.4137 -0.2662  0.1047
 9198TIP3    H149085   1.384   2.100  11.686  0.0550 -0.2281  0.5208
 9198TIP3    H249086   1.501   2.189  11.648  0.5554 -1.0398  0.1485
 9199TIP3   OH249087   4.510   3.560  15.979  0.8275 -0.4255 -0.7356
 9199TIP3    H149088   4.542   3.572  16.068  0.9270 -2.0032 -0.5360
 9199TIP3    H249089   4.481   3.469  15.975 -4.3935  0.9377 -0.6648
 9200TIP3   OH249090   3.902   5.083  11.008 -0.3766 -0.2323  0.0269
 9200TIP3    H149091   3.862   5.000  10.980 -1.0911 -0.3510  1.3415
 9200TIP3    H249092   3.880   5.144  10.938  1.5552 -1.4855 -1.7954
 9201TIP3   OH249093   2.395   5.561  13.064  0.1151  0.6605 -0.3834
 9201TIP3    H149094   2.408   5.509  13.144 -1.9006  0.2478 -0.2676
 9201TIP3    H249095   2.482   5.596  13.044  1.1322 -1.0632  0.7113
 9202TIP3   OH249096   1.565   1.269   4.171 -0.6525 -0.2726 -0.1492
 9202TIP3    H149097   1.612   1.187   4.186 -0.0388 -0.0410 -0.7259
 9202TIP3    H249098   1.633   1.330   4.142 -0.5909  1.2479  2.8343
 9203TIP3   OH249099   5.364   4.485   4.493  0.4298  0.2748 -0.0666
 9203TIP3    H149100   5.288   4.533   4.525  1.4823  0.8690  1.6940
 9203TIP3    H249101   5.382   4.421   4.562  2.3721  1.1162  0.2635
 9204TIP3   OH249102   1.693   3.753  12.419 -0.1275  0.2594 -0.5466
 9204TIP3    H149103   1.757   3.779  12.353  1.4174 -0.2002  0.7172
 9204TIP3    H249104   1.653   3.835  12.448  0.9245  0.7114 -0.3355
 9205TIP3   OH249105   0.937   0.088  13.763  0.3642 -0.3584 -0.9531
 9205TIP3    H149106   0.908   0.030  13.693  1.1953 -0.6818 -1.0400
 9205TIP3    H249107   1.017   0.128  13.730  0.6854 -0.4030 -0.2534
 9206TIP3   OH249108   3.349   2.711   1.560  0.0656  0.2660 -0.0728
 9206TIP3    H149109   3.274   2.754   1.601  0.0404 -0.4270  0.6502
 9206TIP3    H249110   3.332   2.716   1.466  0.3368  2.2986 -0.0620
 9207TIP3   OH249111   2.546   3.554   1.919 -0.4449 -0.0613  0.2548
 9207TIP3    H149112   2.600   3.495   1.868  0.9277  0.4397  1.0719
 9207TIP3    H249113   2.577   3.641   1.897 -0.7721  0.2272  0.8905
 9208TIP3   OH249114   2.094   3.832   1.197 -0.1341  0.0248 -0.5256
 9208TIP3    H149115   2.165   3.831   1.261  2.1210 -3.4624 -2.7297
 9208TIP3    H249116   2.026   3.776   1.235  0.2571 -0.3033 -0.3074
 9209TIP3   OH249117   2.541   3.667   3.270 -0.3946 -0.2054  0.0369
 9209TIP3    H149118   2.533   3.755   3.231  0.9874 -0.4649 -0.8843
 9209TIP3    H249119   2.473   3.616   3.225 -0.2907  0.0549 -0.4274
 9210TIP3   OH249120   0.213   3.989  10.446  0.1645  0.6172 -0.2028
 9210TIP3    H149121   0.170   4.074  10.432 -0.8389  0.1884  0.1485
 9210TIP3    H249122   0.171   3.931  10.383  1.5109  0.5821 -1.0852
 9211TIP3   OH249123   0.831   3.595   0.784 -0.1100 -0.4039  0.2978
 9211TIP3    H149124   0.849   3.677   0.831 -1.1121  0.7410 -1.2161
 9211TIP3    H249125   0.851   3.527   0.848  0.5048  1.0116  1.7113
 9212TIP3   OH249126   2.382   5.923  14.336 -0.5356  0.5260  0.2471
 9212TIP3    H149127   2.446   5.919  14.407  0.0052 -0.3332 -0.2788
 9212TIP3    H249128   2.433   5.948  14.259 -1.0917  1.2779  0.1116
 9213TIP3   OH249129   5.158   5.927  12.412 -0.4785  0.3503  0.1731
 9213TIP3    H149130   5.110   5.925  12.494 -0.3707  2.0161  0.3104
 9213TIP3    H249131   5.179   6.020  12.398  0.7126 -0.0557 -1.0248
 9214TIP3   OH249132   2.906   0.077  13.685 -0.3623  0.4662  0.1264
 9214TIP3    H149133   2.958   0.046  13.759 -1.7553 -1.6829  0.3025
 9214TIP3    H249134   2.816   0.076  13.717 -0.8089  1.2369 -1.0556
 9215TIP3   OH249135   3.817   1.010   1.467 -0.3247  0.0209 -0.0157
 9215TIP3    H149136   3.895   1.045   1.509 -0.0040 -0.1819 -0.4338
 9215TIP3    H249137   3.760   1.086   1.456  1.2901  0.9671 -3.0174
 9216TIP3   OH249138   2.724   3.549  16.065  0.0150 -0.4817  0.2438
 9216TIP3    H149139   2.754   3.480  16.125 -1.5494 -1.2217  0.2217
 9216TIP3    H249140   2.686   3.616  16.122  0.7358 -0.0438  0.2140
 9217TIP3   OH249141   6.702   0.284   4.533  0.3787  0.1314 -0.5154
 9217TIP3    H149142   6.733   0.222   4.598  2.3578 -0.0823 -1.5932
 9217TIP3    H249143   6.731   0.370   4.565 -1.0989  0.3797  0.2474
 9218TIP3   OH249144   2.404   6.762   0.293 -0.1060 -0.3194  0.4434
 9218TIP3    H149145   2.345   6.687   0.305 -0.6067 -0.1461 -0.7856
 9218TIP3    H249146   2.412   6.771   0.198  0.0793  1.0861  0.5717
 9219TIP3   OH249147   0.121   6.121  14.094  0.0218 -0.8434 -0.0181
 9219TIP3    H149148   0.178   6.198  14.091 -0.1877 -0.7032 -0.4991
 9219TIP3    H249149   0.146   6.070  14.017 -0.0730 -1.0925  0.1154
 9220TIP3   OH249150   1.702   4.001  14.515 -0.4027  0.0203  0.5133
 9220TIP3    H149151   1.788   4.007  14.557 -0.2325 -0.7241  0.2815
 9220TIP3    H249152   1.646   4.058  14.568  0.4228  1.2208  0.1368
 9221TIP3   OH249153   3.671   4.934   1.728 -0.6867 -0.4574 -0.2826
 9221TIP3    H149154   3.583   4.966   1.750 -1.6093 -2.3961 -0.9448
 9221TIP3    H249155   3.700   4.993   1.658 -0.6489  1.3506  1.1876
 9222TIP3   OH249156   1.352   3.402   4.761 -0.3585 -0.8560  0.1592
 9222TIP3    H149157   1.280   3.423   4.702  0.3349  0.6528 -0.2176
 9222TIP3    H249158   1.378   3.314   4.737 -1.1311 -0.8721 -0.6922
 9223TIP3   OH249159   4.008   4.979  15.935 -0.4807 -0.2349  0.3517
 9223TIP3    H149160   4.027   5.012  15.847  1.7544  0.1827  0.9322
 9223TIP3    H249161   3.991   5.057  15.987 -0.5472 -0.3859  0.5597
 9224TIP3   OH249162   0.633   1.037   2.002  0.3257 -0.1255 -0.2458
 9224TIP3    H149163   0.538   1.029   1.999  0.1239  2.0823 -0.9266
 9224TIP3    H249164   0.661   0.963   2.056 -1.8972  0.1399  1.3979
 9225TIP3   OH249165   2.329   2.261   4.536 -0.3263 -0.0384  0.0220
 9225TIP3    H149166   2.298   2.344   4.499 -0.4480  0.0988  0.4149
 9225TIP3    H249167   2.414   2.246   4.496 -1.3173 -0.9550 -1.8980
 9226TIP3   OH249168   0.399   4.399   4.921 -0.1115 -0.3591  0.1696
 9226TIP3    H149169   0.475   4.397   4.864 -1.8463 -2.3967 -2.3410
 9226TIP3    H249170   0.355   4.481   4.900  0.0403 -0.4011 -0.3218
 9227TIP3   OH249171   5.018   0.409  14.483 -0.0706  0.3991  0.0428
 9227TIP3    H149172   4.972   0.420  14.400 -1.6952 -0.4921  0.7683
 9227TIP3    H249173   5.088   0.474  14.481  0.0308  0.2819 -2.0719
 9228TIP3   OH249174   4.760   5.417  13.257  0.0092  0.4643 -0.0104
 9228TIP3    H149175   4.830   5.453  13.202  1.1518  0.8711  1.6334
 9228TIP3    H249176   4.698   5.489  13.268 -0.2739  0.3549 -0.7949
 9229TIP3   OH249177   0.098   2.134  14.500 -0.1098 -0.6624 -0.1071
 9229TIP3    H149178   0.067   2.091  14.421 -2.1129 -0.6734  0.6239
 9229TIP3    H249179   0.120   2.223  14.473  0.5014 -1.0490 -0.9103
 9230TIP3   OH249180   5.001   2.200  11.967 -0.0424 -0.4944  0.1466
 9230TIP3    H149181   5.077   2.259  11.963 -0.2868 -0.1982 -0.2651
 9230TIP3    H249182   5.008   2.147  11.887 -0.0659 -0.7173  0.2943
 9231TIP3   OH249183   1.439   3.162  15.354  0.1347 -0.1249 -0.2943
 9231TIP3    H149184   1.445   3.224  15.282 -1.2861 -0.9818 -1.1936
 9231TIP3    H249185   1.417   3.078  15.312 -1.8086 -0.4320  1.1782
 9232TIP3   OH249186   5.142   5.976  16.836  0.5284  0.1191  0.5175
 9232TIP3    H149187   5.058   5.974  16.883  0.1676  1.5950 -0.0207
 9232TIP3    H249188   5.156   5.885  16.809  0.0274 -0.5070  2.1906
 9233TIP3   OH249189   3.767   4.300   0.398 -0.3160 -0.6530 -0.2182
 9233TIP3    H149190   3.744   4.375   0.344  0.1972 -1.0379 -1.0013
 9233TIP3    H249191   3.846   4.265   0.357  0.3123 -0.7358  1.0146
 9234TIP3   OH249192   5.583   5.335  15.039 -0.0153 -0.6862 -0.0992
 9234TIP3    H149193   5.545   5.347  15.126 -0.6727 -1.6877 -0.2180
 9234TIP3    H249194   5.563   5.416  14.992 -0.8303 -0.6645  0.2716
 9235TIP3   OH249195   6.491   4.872  14.703  0.1347 -0.3988 -0.9330
 9235TIP3    H149196   6.501   4.962  14.670  1.3286 -0.0408  0.3129
 9235TIP3    H249197   6.580   4.839  14.710 -0.2601 -1.4324 -0.7028
 9236TIP3   OH249198   1.791   5.247  14.217  0.2069  0.0358  0.3128
 9236TIP3    H149199   1.699   5.233  14.196 -0.1007 -0.4679  1.8567
 9236TIP3    H249200   1.792   5.328  14.269  0.2344 -1.2551  2.4752
 9237TIP3   OH249201   3.125   4.601   0.537  0.4043 -0.4641 -0.2212
 9237TIP3    H149202   3.152   4.587   0.628  0.6930 -0.2046 -0.2639
 9237TIP3    H249203   3.082   4.687   0.538  2.4039  0.5887 -0.7355
 9238TIP3   OH249204   2.782   0.015   2.041 -0.4510  0.2706  0.1258
 9238TIP3    H149205   2.763  -0.077   2.021 -0.6078  0.0383  1.2727
 9238TIP3    H249206   2.721   0.064   1.986 -0.3394 -0.3056 -0.5319
 9239TIP3   OH249207   1.598   4.344  13.153  0.2685 -0.1565  0.5242
 9239TIP3    H149208   1.626   4.309  13.069 -0.5996 -1.2844  0.6763
 9239TIP3    H249209   1.558   4.269  13.198  0.5629  0.4711  1.8672
 9240TIP3   OH249210   4.682   2.036   4.268 -0.3835 -0.7528 -0.8228
 9240TIP3    H149211   4.681   1.987   4.351  0.8875  2.0040  0.9865
 9240TIP3    H249212   4.759   2.005   4.222  2.4590  1.6360  1.8697
 9241TIP3   OH249213   6.781   6.403  14.532  0.7964 -0.1783 -0.6028
 9241TIP3    H149214   6.769   6.403  14.438  2.9404 -0.2138 -0.9364
 9241TIP3    H249215   6.853   6.341  14.547 -0.5839 -1.4322  1.2316
 9242TIP3   OH249216   4.191   5.792  11.033  0.1944  0.3057  0.1266
 9242TIP3    H149217   4.257   5.789  11.102 -0.0646  0.9668  0.4123
 9242TIP3    H249218   4.199   5.880  10.997  0.3617 -0.0527 -0.7291
 9243TIP3   OH249219   4.578   1.683   2.326  0.1135  0.4126  0.0605
 9243TIP3    H149220   4.568   1.590   2.301 -2.1185  0.3633  0.8958
 9243TIP3    H249221   4.543   1.731   2.251  0.7825  0.5749 -0.1525
 9244TIP3   OH249222   0.951   1.968   5.326  0.1816  0.1420  0.2931
 9244TIP3    H149223   0.961   1.896   5.264  0.5690  1.2562 -0.9794
 9244TIP3    H249224   0.860   1.995   5.317  0.1340  0.0497  0.4976
 9245TIP3   OH249225   0.614   0.660   3.137 -0.6843 -0.0372  0.1555
 9245TIP3    H149226   0.533   0.711   3.132 -1.2628 -0.9206  0.2839
 9245TIP3    H249227   0.590   0.582   3.187 -0.0824 -0.9394 -0.9126
 9246TIP3   OH249228   3.600   0.638   5.616 -0.6879 -0.2980 -0.2508
 9246TIP3    H149229   3.625   0.690   5.693 -0.3968 -1.4539  0.4764
 9246TIP3    H249230   3.522   0.591   5.644 -1.5072  0.4628 -1.2299
 9247TIP3   OH249231   4.807   1.603  11.793  0.3834 -0.0032  0.3619
 9247TIP3    H149232   4.898   1.626  11.809  0.1459  1.8236 -0.6338
 9247TIP3    H249233   4.767   1.684  11.761 -1.3808 -0.9898 -0.0639
 9248TIP3   OH249234   4.027   1.604   6.071 -0.4133  0.0612  0.5685
 9248TIP3    H149235   4.024   1.546   6.147 -1.2481 -0.1229  0.4089
 9248TIP3    H249236   4.115   1.641   6.072 -0.2253 -0.3877  1.2878
 9249TIP3   OH249237   6.149   0.382   2.268  0.3564  0.0822 -0.3512
 9249TIP3    H149238   6.142   0.287   2.269  3.7865 -0.3260  1.9497
 9249TIP3    H249239   6.206   0.402   2.193 -1.3706  0.5669 -1.6205
 9250TIP3   OH249240   3.813   3.189  11.880  0.5051  0.2993  0.7245
 9250TIP3    H149241   3.848   3.140  11.954 -1.1765 -0.9117  0.7892
 9250TIP3    H249242   3.733   3.229  11.913  0.4374  0.8681 -0.0861
 9251TIP3   OH249243   2.955   6.478   4.369  0.4102 -0.6210 -0.2359
 9251TIP3    H149244   2.925   6.568   4.371 -0.5297 -0.8799 -1.3660
 9251TIP3    H249245   3.043   6.483   4.332  0.1419 -0.2080 -0.8356
 9252TIP3   OH249246   3.292   1.206   0.133  0.0085  0.8050 -0.8755
 9252TIP3    H149247   3.227   1.167   0.191  0.9599 -1.7063 -1.3793
 9252TIP3    H249248   3.376   1.189   0.176  0.5959  0.3733 -2.1532
 9253TIP3   OH249249   6.740   4.562   3.664 -0.2458 -0.1039 -0.4032
 9253TIP3    H149250   6.769   4.480   3.622  0.9517  0.6548 -1.1207
 9253TIP3    H249251   6.646   4.566   3.645 -0.2124 -1.0285 -0.8530
 9254TIP3   OH249252   5.442   5.625  13.497 -0.1972  0.3721  0.3400
 9254TIP3    H149253   5.413   5.542  13.461 -0.0866 -0.9407  3.0561
 9254TIP3    H249254   5.424   5.619  13.591  1.8111  2.5221  0.9798
 9255TIP3   OH249255   3.306   4.089  13.614 -0.0374  0.4248  0.6206
 9255TIP3    H149256   3.353   4.162  13.653  0.4878  0.2921  0.2359
 9255TIP3    H249257   3.341   4.011  13.658  2.1542  0.0598 -1.5913
 9256TIP3   OH249258   2.376   4.070  14.990  0.1457  0.0240 -0.7548
 9256TIP3    H149259   2.283   4.066  14.965  0.0515 -0.1901 -0.3648
 9256TIP3    H249260   2.396   4.164  14.987 -0.0793  0.0723 -0.8468
 9257TIP3   OH249261   5.719   6.783  11.614 -0.6366  1.2548  0.1894
 9257TIP3    H149262   5.717   6.873  11.582  1.1240  0.4379 -2.5955
 9257TIP3    H249263   5.639   6.744  11.579  0.4666  0.8114 -2.0050
 9258TIP3   OH249264   4.724   3.201  15.293  0.4941  0.1638  0.5714
 9258TIP3    H149265   4.731   3.120  15.345 -2.1618 -0.6182 -0.1349
 9258TIP3    H249266   4.782   3.186  15.218 -0.4134 -1.4167  0.1229
 9259TIP3   OH249267   4.758   1.288  13.868 -0.0199 -0.3172 -0.1888
 9259TIP3    H149268   4.840   1.263  13.827 -0.2655 -0.1605 -0.7909
 9259TIP3    H249269   4.750   1.382  13.851  0.4081 -0.0144  1.1786
 9260TIP3   OH249270   1.052   1.086   0.397  0.4739  0.2980  0.2012
 9260TIP3    H149271   1.101   1.116   0.474 -0.1819 -0.5454  0.9823
 9260TIP3    H249272   0.963   1.116   0.413  0.2664 -0.1702 -0.0634
 9261TIP3   OH249273   4.093   0.386  13.829 -0.3583  0.2347  0.7366
 9261TIP3    H149274   4.077   0.464  13.881 -1.3893  0.1328  0.6095
 9261TIP3    H249275   4.071   0.412  13.739  2.6031  0.7756  0.0943
 9262TIP3   OH249276   4.956   3.422  14.100  0.0229 -0.0919  0.5555
 9262TIP3    H149277   4.942   3.449  14.191  1.9078 -1.1222  1.1982
 9262TIP3    H249278   4.877   3.373  14.078 -0.4252  0.0798  1.6798
 9263TIP3   OH249279   0.660   5.503  13.373 -0.4665  0.2481 -0.0352
 9263TIP3    H149280   0.712   5.481  13.450  0.4849  2.1057 -0.0805
 9263TIP3    H249281   0.707   5.460  13.300 -1.0891 -1.0919  0.3163
 9264TIP3   OH249282   4.422   6.383  16.773 -0.7886 -0.4972  0.3683
 9264TIP3    H149283   4.452   6.400  16.683 -1.4148 -0.1579  0.2153
 9264TIP3    H249284   4.327   6.381  16.766 -0.9659  1.6768  1.3765
 9265TIP3   OH249285   5.580   6.327   5.373  0.0135  0.9926 -0.1334
 9265TIP3    H149286   5.525   6.372   5.437 -1.9087 -0.5144 -0.6328
 9265TIP3    H249287   5.539   6.345   5.288 -0.2085 -0.8161 -0.4412
 9266TIP3   OH249288   4.623   6.354  13.135  0.2556 -0.2602  0.1900
 9266TIP3    H149289   4.538   6.398  13.136  0.9358  1.1317  1.7544
 9266TIP3    H249290   4.647   6.350  13.042 -0.5894  1.1993 -0.1259
 9267TIP3   OH249291   6.301   2.023  16.200  0.2912  0.4413  0.1408
 9267TIP3    H149292   6.309   1.937  16.239 -2.3068 -0.0820 -0.2642
 9267TIP3    H249293   6.284   2.006  16.107 -0.2542  1.3734  0.0522
 9268TIP3   OH249294   4.217   5.810   1.428 -0.2928  0.7150  0.4235
 9268TIP3    H149295   4.281   5.867   1.385  0.5245 -0.6046 -0.1710
 9268TIP3    H249296   4.242   5.811   1.520 -0.3982  1.4425  0.4509
 9269TIP3   OH249297   0.165   5.389  10.922 -0.2002  0.0819 -0.2630
 9269TIP3    H149298   0.202   5.301  10.916 -1.4244 -0.3465 -2.6047
 9269TIP3    H249299   0.165   5.422  10.832 -1.2802  1.8466  0.3277
 9270TIP3   OH249300   1.363   1.500   0.911  0.2073  0.2284  0.1608
 9270TIP3    H149301   1.339   1.566   0.846  0.6992 -0.1306 -0.3903
 9270TIP3    H249302   1.450   1.524   0.940 -0.0643  0.4674  0.8018
 9271TIP3   OH249303   4.031   6.515   0.820 -0.6602  0.2953  0.0671
 9271TIP3    H149304   4.004   6.423   0.822  1.3788 -0.3783 -0.9479
 9271TIP3    H249305   4.083   6.523   0.741  1.8005  1.5218  1.6858
 9272TIP3   OH249306   4.550   2.255  16.315 -0.4071 -0.1886  0.1971
 9272TIP3    H149307   4.619   2.191  16.329 -0.9834 -1.3448 -1.8044
 9272TIP3    H249308   4.596   2.338  16.303  0.2909  0.1334  4.0468
 9273TIP3   OH249309   6.700   0.774   2.587  0.2343  0.7281  0.3130
 9273TIP3    H149310   6.656   0.734   2.512  0.0637  0.9284  0.3049
 9273TIP3    H249311   6.690   0.711   2.658 -0.2532  0.8683  0.3703
 9274TIP3   OH249312   2.928   5.674   4.174  0.5017  0.0658  0.0899
 9274TIP3    H149313   2.939   5.755   4.123 -0.2108  1.0654  1.4732
 9274TIP3    H249314   2.978   5.609   4.125 -0.6242  0.8197 -2.2166
 9275TIP3   OH249315   1.925   3.343   0.339 -0.3895 -0.4234 -0.6172
 9275TIP3    H149316   1.924   3.261   0.290 -1.9312 -0.5736 -0.3686
 9275TIP3    H249317   1.835   3.356   0.367  0.0764  0.7023  0.4558
 9276TIP3   OH249318   4.408   0.892   1.122 -0.1331 -0.1123 -0.0392
 9276TIP3    H149319   4.468   0.966   1.116 -0.1161 -0.1980 -1.0077
 9276TIP3    H249320   4.331   0.919   1.074 -0.2901 -0.5723 -0.0500
 9277TIP3   OH249321   0.120   3.430   2.709  0.2143  0.3021  0.3992
 9277TIP3    H149322   0.123   3.512   2.661  0.6020  1.5146  2.4097
 9277TIP3    H249323   0.187   3.438   2.776  0.7826 -1.9771  0.2132
 9278TIP3   OH249324   2.160   5.581   1.635  0.0915 -0.0744  0.6304
 9278TIP3    H149325   2.226   5.648   1.653  1.0640 -0.9380  0.3534
 9278TIP3    H249326   2.091   5.628   1.587  0.4235  0.8687  1.0524
 9279TIP3   OH249327   2.092   0.708  14.054  0.4475 -0.2875  0.0118
 9279TIP3    H149328   2.053   0.794  14.038 -1.2028 -1.2904 -1.7846
 9279TIP3    H249329   2.172   0.709  14.002 -0.5373 -0.4641 -1.5735
 9280TIP3   OH249330   0.852   4.447   1.970 -0.5920 -0.9878  0.4353
 9280TIP3    H149331   0.922   4.424   2.032 -0.6259 -2.5911 -0.0610
 9280TIP3    H249332   0.859   4.542   1.960  1.5950 -1.0889  0.3323
 9281TIP3   OH249333   6.219   1.698   1.375 -0.0857 -0.4313  0.4649
 9281TIP3    H149334   6.263   1.624   1.335 -0.3731 -0.0946 -0.4896
 9281TIP3    H249335   6.149   1.721   1.314  1.9217  2.6477 -0.9220
 9282TIP3   OH249336   3.701   0.885  14.306  0.0958  0.3033 -0.6708
 9282TIP3    H149337   3.777   0.839  14.342  1.5024  1.9033 -1.4593
 9282TIP3    H249338   3.717   0.888  14.212 -0.7846  0.9441 -0.8108
 9283TIP3   OH249339   3.461   6.016  16.367 -0.4207  0.2111 -0.2367
 9283TIP3    H149340   3.433   6.105  16.349 -1.6252  0.1418  1.1309
 9283TIP3    H249341   3.442   6.002  16.460 -1.0330 -1.7250 -0.5908
 9284TIP3   OH249342   6.014   5.093  16.755  0.6377  0.0285 -0.5197
 9284TIP3    H149343   5.954   5.020  16.769 -0.1207  0.9036  1.1115
 9284TIP3    H249344   6.041   5.086  16.664 -1.9644 -0.3818 -1.3219
 9285TIP3   OH249345   6.425   0.099  16.017 -0.7882  0.1308  0.1421
 9285TIP3    H149346   6.501   0.088  15.959 -1.1889 -1.4002 -0.1225
 9285TIP3    H249347   6.399   0.010  16.040 -0.9496  0.6774  2.3182
 9286TIP3   OH249348   2.755   0.120  16.298 -0.1871 -0.5398  0.2597
 9286TIP3    H149349   2.670   0.133  16.338 -1.3100 -2.9843 -1.0559
 9286TIP3    H249350   2.783   0.033  16.329  2.2471  0.5038  1.2766
 9287TIP3   OH249351   4.475   1.413   3.322  0.2959 -0.0182 -0.2857
 9287TIP3    H149352   4.418   1.463   3.265 -1.3772  0.4337  1.6707
 9287TIP3    H249353   4.530   1.479   3.365 -0.4687 -0.0355  0.7491
 9288TIP3   OH249354   6.073   1.764  14.613 -0.6923  0.1054 -0.2531
 9288TIP3    H149355   6.135   1.691  14.618  0.4759  1.0038 -1.0906
 9288TIP3    H249356   6.074   1.803  14.701 -0.6599 -0.3490 -0.0485
 9289TIP3   OH249357   6.665   3.379  12.336  0.3616  0.4802 -0.0428
 9289TIP3    H149358   6.656   3.329  12.255  0.7730 -0.3663  0.4226
 9289TIP3    H249359   6.575   3.401  12.361  0.2971  2.2922 -1.6472
 9290TIP3   OH249360   5.747   5.120   0.280  0.0403 -0.3972 -0.2687
 9290TIP3    H149361   5.829   5.144   0.322 -0.1161  0.5573 -0.4856
 9290TIP3    H249362   5.694   5.080   0.350 -0.4745  1.7544  0.6517
 9291TIP3   OH249363   6.119   2.456   0.979 -0.2503  0.0423 -0.0587
 9291TIP3    H149364   6.153   2.444   1.068 -0.0065 -1.2446 -0.3038
 9291TIP3    H249365   6.184   2.511   0.936  0.1850 -0.2295  0.2449
 9292TIP3   OH249366   4.651   2.252  14.777  0.7849 -0.3669  0.1122
 9292TIP3    H149367   4.744   2.267  14.763  0.6751 -0.1792 -0.4070
 9292TIP3    H249368   4.646   2.159  14.801  0.9911 -0.6852 -0.9998
 9293TIP3   OH249369   5.727   6.513   6.502  0.0857 -0.2608 -0.5900
 9293TIP3    H149370   5.770   6.474   6.578 -1.5096 -0.7849  0.1026
 9293TIP3    H249371   5.765   6.468   6.427 -0.0233 -1.4819  0.0641
 9294TIP3   OH249372   1.208   0.268  14.135 -0.2177 -0.1644  0.0493
 9294TIP3    H149373   1.193   0.356  14.099 -0.3909  0.1953  0.9822
 9294TIP3    H249374   1.290   0.240  14.094 -1.1236 -0.3838 -1.7444
 9295TIP3   OH249375   4.282   0.655   5.917 -0.0694  0.2763 -0.0811
 9295TIP3    H149376   4.330   0.609   5.985  1.2023 -0.1286 -1.1991
 9295TIP3    H249377   4.191   0.628   5.929  0.5872 -2.4286 -0.5445
 9296TIP3   OH249378   1.501   1.716  16.821 -0.0165  0.1430 -0.0517
 9296TIP3    H149379   1.586   1.759  16.818 -0.5341  1.1559 -1.3625
 9296TIP3    H249380   1.473   1.712  16.729 -0.2872 -2.4559  0.0778
 9297TIP3   OH249381   6.292   3.852   3.731  0.2212 -0.1509 -0.2465
 9297TIP3    H149382   6.336   3.927   3.690 -0.9329  1.3996  1.1800
 9297TIP3    H249383   6.339   3.839   3.813  0.0538 -0.6004 -0.2214
 9298TIP3   OH249384   1.446   2.378   3.243  0.5200 -0.3332  0.1697
 9298TIP3    H149385   1.392   2.408   3.316  1.4702  2.1644 -0.0596
 9298TIP3    H249386   1.398   2.407   3.165  1.3367  0.4498 -0.0648
 9299TIP3   OH249387   4.977   5.825   2.373 -0.8999  0.5018 -0.1429
 9299TIP3    H149388   4.996   5.745   2.422 -3.6556 -0.3153 -0.2476
 9299TIP3    H249389   4.935   5.795   2.292 -2.1460  2.0297 -0.1167
 9300TIP3   OH249390   5.906   3.799   1.001  0.1604 -0.0160 -0.3069
 9300TIP3    H149391   5.825   3.785   0.953  0.2550  0.1305 -0.5066
 9300TIP3    H249392   5.956   3.718   0.987 -0.9140 -1.1347  1.7370
 9301TIP3   OH249393   4.842   2.224  10.812  0.1223 -0.1891 -0.0114
 9301TIP3    H149394   4.819   2.287  10.744 -0.7127 -0.6442 -0.1640
 9301TIP3    H249395   4.933   2.243  10.833 -0.2916  1.5286  0.4321
 9302TIP3   OH249396   3.642   0.281  15.618 -0.1625 -0.2243 -0.9634
 9302TIP3    H149397   3.551   0.300  15.595 -0.0471 -0.9971 -2.1636
 9302TIP3    H249398   3.649   0.186  15.610  0.8523 -0.1318 -1.2785
 9303TIP3   OH249399   1.559   6.079   4.683 -0.0461  0.6518 -0.0660
 9303TIP3    H149400   1.651   6.065   4.705 -0.4807 -1.5562  0.5526
 9303TIP3    H249401   1.544   6.172   4.701  2.4242  1.4825 -1.7004
 9304TIP3   OH249402   0.021   2.588   1.058  0.6263 -0.5205  0.0374
 9304TIP3    H149403   0.002   2.494   1.064  1.2337 -0.7161 -0.8064
 9304TIP3    H249404  -0.025   2.627   1.132  1.5286 -1.6678  1.2742
 9305TIP3   OH249405   6.250   1.557   0.908 -0.5362  0.3631  0.6974
 9305TIP3    H149406   6.245   1.639   0.956  2.6601  0.9779  0.1849
 9305TIP3    H249407   6.265   1.583   0.817  2.5141 -0.6598  0.8053
 9306TIP3   OH249408   1.681   4.834   5.610  0.3146 -0.4204 -0.6816
 9306TIP3    H149409   1.645   4.867   5.692  1.3885 -2.1727  0.5782
 9306TIP3    H249410   1.620   4.765   5.584  0.4210 -0.4283 -0.9112
 9307TIP3   OH249411   4.832   1.926  12.781  0.6278 -0.1144 -0.1919
 9307TIP3    H149412   4.875   1.978  12.713 -2.9863  1.4732 -1.4819
 9307TIP3    H249413   4.863   1.964  12.864  1.1041  1.4454 -1.0566
 9308TIP3   OH249414   6.155   3.637   0.279  0.0991  0.1381 -0.0644
 9308TIP3    H149415   6.083   3.696   0.253 -1.5958 -0.5940  2.6590
 9308TIP3    H249416   6.163   3.577   0.205 -1.1669  1.0536 -1.0116
 9309TIP3   OH249417   2.194   1.377   5.576 -0.2549 -0.2464 -1.0300
 9309TIP3    H149418   2.222   1.318   5.506  1.2893  0.7430 -1.2875
 9309TIP3    H249419   2.144   1.321   5.635  1.4916 -1.9420 -1.0453
 9310TIP3   OH249420   3.094   6.218   3.307 -0.6004 -0.6285  0.3724
 9310TIP3    H149421   3.041   6.158   3.254  0.1066 -1.5716  0.6953
 9310TIP3    H249422   3.181   6.178   3.308 -0.3738 -0.1422  1.4795
 9311TIP3   OH249423   6.803   1.319  13.685 -0.3192  0.2923  0.2938
 9311TIP3    H149424   6.828   1.358  13.769 -1.1089  0.6971  0.3455
 9311TIP3    H249425   6.783   1.394  13.629 -3.3331  0.0183  0.8351
 9312TIP3   OH249426   2.885   1.325   1.944 -0.3410  0.0389 -0.1289
 9312TIP3    H149427   2.907   1.394   2.007  0.1899  1.1854 -1.5140
 9312TIP3    H249428   2.830   1.369   1.879 -1.1223 -1.1866 -0.3321
 9313TIP3   OH249429   3.810   6.410  13.557  0.3208  0.0985  0.1141
 9313TIP3    H149430   3.807   6.334  13.499  1.8299  1.5500 -2.0175
 9313TIP3    H249431   3.881   6.391  13.618  1.9349  0.4594 -1.5534
 9314TIP3   OH249432   0.780   5.877  11.134  0.1671  0.1980  0.4167
 9314TIP3    H149433   0.838   5.862  11.209  0.3692 -0.4544  0.1370
 9314TIP3    H249434   0.737   5.793  11.120  0.4917  0.1831 -0.5046
 9315TIP3   OH249435   3.395   0.798   6.125 -0.3504 -0.4655  0.5785
 9315TIP3    H149436   3.461   0.767   6.188 -2.4645  0.4081  3.4485
 9315TIP3    H249437   3.390   0.893   6.141  0.1036  0.1029 -2.1228
 9316TIP3   OH249438   6.062   4.166  15.184  0.2907 -0.0363 -0.0570
 9316TIP3    H149439   6.020   4.086  15.152 -0.0125  0.1216 -0.0614
 9316TIP3    H249440   6.051   4.229  15.113  0.4931  0.0224 -0.0373
 9317TIP3   OH249441   5.591   6.334  15.525 -1.1110 -1.0330  0.0509
 9317TIP3    H149442   5.623   6.253  15.566  0.2846  0.1002  1.2924
 9317TIP3    H249443   5.618   6.404  15.584 -1.6756  0.4299 -1.3365
 9318TIP3   OH249444   1.363   4.562   1.468 -0.4045 -0.1286 -0.2744
 9318TIP3    H149445   1.339   4.655   1.465 -0.4335 -0.1206  0.2331
 9318TIP3    H249446   1.334   4.532   1.554 -2.3268 -1.1471 -1.2230
 9319TIP3   OH249447   3.847   2.702   1.748  0.1764 -0.2301 -0.5940
 9319TIP3    H149448   3.775   2.762   1.732 -1.7487 -1.6841  1.8398
 9319TIP3    H249449   3.805   2.616   1.756  2.2513 -1.2390  0.3230
 9320TIP3   OH249450   2.081   1.366  11.913 -0.1160 -0.1802 -0.2618
 9320TIP3    H149451   2.171   1.356  11.882 -0.6429 -1.2898 -1.5388
 9320TIP3    H249452   2.084   1.439  11.974  1.8996 -1.0298  0.7236
 9321TIP3   OH249453   0.271   5.742  12.095  0.2462 -0.2051 -0.3491
 9321TIP3    H149454   0.354   5.777  12.130 -0.2917  1.6553 -0.8020
 9321TIP3    H249455   0.247   5.804  12.026 -0.7620 -1.5880 -1.2728
 9322TIP3   OH249456   6.786   5.472   2.367  0.3583  0.1268 -0.2759
 9322TIP3    H149457   6.878   5.446   2.361 -0.4120 -2.8611 -0.7619
 9322TIP3    H249458   6.780   5.550   2.312  2.3361 -0.3659 -1.3061
 9323TIP3   OH249459   6.176   5.331  16.702 -0.0309  0.4015 -0.1800
 9323TIP3    H149460   6.094   5.380  16.695 -0.8993 -1.0692 -0.7753
 9323TIP3    H249461   6.150   5.239  16.703  1.6618 -0.1704 -1.5801
 9324TIP3   OH249462   1.772   5.295  16.642 -0.3178  0.2287  0.4811
 9324TIP3    H149463   1.804   5.209  16.614 -0.3819  0.2817  0.2372
 9324TIP3    H249464   1.851   5.346  16.656 -0.2634  0.8586 -1.6859
 9325TIP3   OH249465   2.124   6.698   3.362 -0.1125 -0.3942  0.2789
 9325TIP3    H149466   2.117   6.687   3.267  1.2153  0.5127  0.0434
 9325TIP3    H249467   2.218   6.703   3.378 -0.3541  1.2726  1.3991
 9326TIP3   OH249468   0.677   5.016  11.235 -0.0693  0.3979  0.7729
 9326TIP3    H149469   0.632   4.993  11.154 -0.5714  0.9431  0.8887
 9326TIP3    H249470   0.711   5.105  11.219 -0.3823  0.6059  1.2448
 9327TIP3   OH249471   5.684   5.929   5.374 -0.3371  0.0470 -0.0863
 9327TIP3    H149472   5.612   5.988   5.394 -1.6341 -1.4787 -0.0218
 9327TIP3    H249473   5.709   5.951   5.284  0.3024  1.7276  0.4684
 9328TIP3   OH249474   1.772   3.212   2.718 -0.1365 -0.8352  0.0361
 9328TIP3    H149475   1.760   3.276   2.788 -1.1634 -1.7118  0.7032
 9328TIP3    H249476   1.858   3.174   2.735  0.9248  1.0107 -0.9492
 9329TIP3   OH249477   2.564   5.770  11.042  0.2976  0.6586 -0.0067
 9329TIP3    H149478   2.637   5.803  10.990  1.0390  2.2816  1.9317
 9329TIP3    H249479   2.486   5.795  10.992  0.9843  1.9758 -0.4717
 9330TIP3   OH249480   6.376   5.650   3.920  0.2051 -0.4084  0.2051
 9330TIP3    H149481   6.366   5.734   3.964 -2.4992 -1.6468  2.2548
 9330TIP3    H249482   6.456   5.612   3.957  0.8838  0.7700  0.0043
 9331TIP3   OH249483   2.753   4.548   1.358  0.0063 -0.3040 -0.1384
 9331TIP3    H149484   2.726   4.456   1.354 -3.7549  0.6916 -2.4282
 9331TIP3    H249485   2.804   4.562   1.278  1.6572 -0.6043  0.8225
 9332TIP3   OH249486   5.219   6.629  11.892  0.1822 -0.4615 -0.5916
 9332TIP3    H149487   5.247   6.673  11.972  0.4890 -0.8842 -0.4612
 9332TIP3    H249488   5.199   6.700  11.831  1.5146 -0.1307 -0.6766
 9333TIP3   OH249489   1.855   5.992   5.337  0.1158 -0.1629  0.5546
 9333TIP3    H149490   1.834   5.902   5.312 -1.5007  0.8538 -2.0874
 9333TIP3    H249491   1.859   6.040   5.255  0.5555  2.2933  1.9044
 9334TIP3   OH249492   0.268   2.162   2.056 -0.1871  0.2031  0.2997
 9334TIP3    H149493   0.311   2.179   1.972 -2.9686 -1.3838 -1.6248
 9334TIP3    H249494   0.289   2.071   2.076 -0.1906  0.3315  0.9051
 9335TIP3   OH249495   1.894   3.024   4.984  0.1984  0.5715  0.1947
 9335TIP3    H149496   1.877   3.006   5.076  2.0679  1.5113  0.7587
 9335TIP3    H249497   1.943   3.106   4.984 -1.8455  1.9220 -1.8045
 9336TIP3   OH249498   5.850   0.509  11.293  0.1195  0.3903 -0.1828
 9336TIP3    H149499   5.921   0.505  11.229  0.1268  1.0113 -0.2239
 9336TIP3    H249500   5.824   0.418  11.307  0.2726  0.2361 -0.8947
 9337TIP3   OH249501   5.442   3.380  14.984 -0.0443 -0.1403  0.2149
 9337TIP3    H149502   5.416   3.289  14.995  0.4710 -0.3822 -0.4825
 9337TIP3    H249503   5.359   3.428  14.978 -0.3497 -0.8052 -1.2461
 9338TIP3   OH249504   6.606   5.467  10.716  0.0824  0.1545 -0.0192
 9338TIP3    H149505   6.581   5.529  10.784  1.5730  1.0749 -0.2646
 9338TIP3    H249506   6.561   5.386  10.739 -1.0053  1.0042  0.9381
 9339TIP3   OH249507   2.869   1.138   5.141  0.1266 -0.4542  0.1240
 9339TIP3    H149508   2.883   1.149   5.235 -2.6848  1.7373  0.3967
 9339TIP3    H249509   2.948   1.173   5.101  0.2739  1.0921  1.6417
 9340TIP3   OH249510   2.297   0.748  13.447  0.3382  0.1039 -0.1929
 9340TIP3    H149511   2.249   0.799  13.513 -0.2813 -1.6980  0.8127
 9340TIP3    H249512   2.237   0.677  13.423  0.4927  0.7511 -2.8429
 9341TIP3   OH249513   1.431   4.769   1.620 -0.2155 -0.4006  0.1120
 9341TIP3    H149514   1.462   4.841   1.565  0.8815 -0.7559  0.2549
 9341TIP3    H249515   1.503   4.707   1.623 -0.2838 -0.4451  1.8587
 9342TIP3   OH249516   6.391   6.456   5.349 -0.4227  0.2036  0.0081
 9342TIP3    H149517   6.428   6.404   5.421 -0.2321  0.2867 -0.0288
 9342TIP3    H249518   6.433   6.542   5.357 -2.3112  1.0451  1.3611
 9343TIP3   OH249519   1.129   4.972  11.121 -0.0888 -0.4346 -0.0784
 9343TIP3    H149520   1.068   4.899  11.132  1.9882 -2.2242  0.3580
 9343TIP3    H249521   1.122   4.997  11.029 -0.0760 -1.9654 -0.5229
 9344TIP3   OH249522   4.707   5.975   4.107 -0.3787  0.3775 -0.4897
 9344TIP3    H149523   4.779   5.915   4.088 -2.2697 -1.9278 -0.9384
 9344TIP3    H249524   4.748   6.051   4.148  2.3075 -0.6443 -1.1090
 9345TIP3   OH249525   6.533   4.608   1.464  0.1611 -0.4331 -0.3987
 9345TIP3    H149526   6.438   4.606   1.473  0.1594 -1.2109 -0.4950
 9345TIP3    H249527   6.549   4.656   1.383 -0.0083  2.3171  1.0688
 9346TIP3   OH249528   4.855   3.247  12.270  0.4609  1.4990  0.2523
 9346TIP3    H149529   4.819   3.248  12.358  0.8317 -0.9391  0.5112
 9346TIP3    H249530   4.946   3.275  12.281  0.7754  0.3110  0.8250
 9347TIP3   OH249531   4.311   1.289  14.973  0.3336  0.2724  0.0584
 9347TIP3    H149532   4.395   1.329  14.994 -0.4070  1.1411  1.4856
 9347TIP3    H249533   4.248   1.332  15.031 -1.2212  0.1142 -1.4293
 9348TIP3   OH249534   3.509   2.534   5.476 -0.1330 -0.6328  0.0819
 9348TIP3    H149535   3.530   2.627   5.469  0.1835 -0.7119 -0.0818
 9348TIP3    H249536   3.515   2.514   5.569  0.3478 -0.6091  0.0591
 9349TIP3   OH249537   3.017   3.148  11.393  0.2250 -0.4475 -0.7205
 9349TIP3    H149538   2.963   3.080  11.351 -0.3143  0.2388 -1.1717
 9349TIP3    H249539   2.956   3.219  11.412  0.4895 -0.6748  1.1399
 9350TIP3   OH249540   3.626   4.887  11.149 -0.1344 -0.3928 -0.4959
 9350TIP3    H149541   3.639   4.922  11.061  1.1182 -1.5110 -0.7997
 9350TIP3    H249542   3.713   4.857  11.175 -0.1385  1.2989  1.7723
 9351TIP3   OH249543   5.479   2.231  13.577  0.5780  0.1049  0.2136
 9351TIP3    H149544   5.523   2.183  13.507  0.8221 -0.7261  0.9127
 9351TIP3    H249545   5.534   2.307  13.593 -0.4718  1.3669 -1.7795
 9352TIP3   OH249546   3.808   0.332  13.601 -0.2736 -0.5057 -0.0667
 9352TIP3    H149547   3.758   0.400  13.556 -0.6312 -0.7084  0.0187
 9352TIP3    H249548   3.898   0.346  13.573 -0.6618 -1.5167 -2.0215
 9353TIP3   OH249549   1.253   5.960   1.606 -0.7282 -0.4646 -0.3030
 9353TIP3    H149550   1.196   6.033   1.581  1.1428  1.2937  0.3248
 9353TIP3    H249551   1.284   5.925   1.522 -1.9022 -0.8014 -0.6215
 9354TIP3   OH249552   4.731   3.159   1.975 -0.0341 -0.4937 -0.5292
 9354TIP3    H149553   4.819   3.128   1.996 -0.6196 -1.4809  0.5887
 9354TIP3    H249554   4.710   3.118   1.891  0.9981  0.7001 -1.4179
 9355TIP3   OH249555   5.663   2.851  13.849 -0.4487  0.7718 -0.2024
 9355TIP3    H149556   5.704   2.769  13.821 -1.8902  0.3628 -1.2650
 9355TIP3    H249557   5.675   2.911  13.776 -0.6237  1.0525 -0.0039
 9356TIP3   OH249558   4.886   3.953   3.480  0.2256  0.0281 -0.1391
 9356TIP3    H149559   4.849   3.902   3.552  1.8965  0.4713  1.1195
 9356TIP3    H249560   4.918   4.034   3.522  1.7046  0.0854 -1.2639
 9357TIP3   OH249561   4.894   5.524  13.902  0.3299  0.0363 -0.2192
 9357TIP3    H149562   4.873   5.611  13.935 -0.4134 -0.5168  0.8445
 9357TIP3    H249563   4.916   5.537  13.810  0.8125  1.4161  0.0780
 9358TIP3   OH249564   0.837   5.158   3.387 -0.2213  0.0883  0.5659
 9358TIP3    H149565   0.769   5.208   3.432 -0.3613  0.1344  0.3054
 9358TIP3    H249566   0.860   5.212   3.311 -1.5394 -0.9749 -0.6380
 9359TIP3   OH249567   3.035   2.676  17.032  0.5641 -0.5010 -0.4078
 9359TIP3    H149568   2.967   2.738  17.059  0.6447 -0.5435 -0.1075
 9359TIP3    H249569   3.038   2.611  17.102  0.0419 -1.1977 -1.0182
 9360TIP3   OH249570   4.606   0.732  14.147  0.3194 -0.0341 -0.5696
 9360TIP3    H149571   4.626   0.783  14.225 -1.5449  1.9149 -1.2702
 9360TIP3    H249572   4.691   0.701  14.116  1.3650  1.3238  0.7791
 9361TIP3   OH249573   5.166   2.766  11.850  0.3579  0.7934 -0.3869
 9361TIP3    H149574   5.119   2.689  11.819  3.0557 -1.2847  0.2905
 9361TIP3    H249575   5.147   2.770  11.943 -0.6856  1.7015 -0.6154
 9362TIP3   OH249576   4.764   4.904   1.568 -0.0868  0.4100 -0.1894
 9362TIP3    H149577   4.782   4.990   1.530  0.7551  0.2381 -0.1934
 9362TIP3    H249578   4.727   4.853   1.496  0.0805  0.5465 -0.3714
 9363TIP3   OH249579   1.752   1.351  16.742  0.5441 -0.0665  0.8220
 9363TIP3    H149580   1.830   1.355  16.687 -0.4594  0.1547 -0.6571
 9363TIP3    H249581   1.785   1.345  16.831  2.2770 -3.2574  0.0993
 9364TIP3   OH249582   4.248   5.105   4.937 -0.6695 -0.7301 -0.2372
 9364TIP3    H149583   4.184   5.094   4.867 -2.3444 -1.3395  1.3286
 9364TIP3    H249584   4.219   5.184   4.983  0.0106 -0.7354  0.2087
 9365TIP3   OH249585   5.356   3.037   1.892  0.3063  0.2124  0.2488
 9365TIP3    H149586   5.276   3.088   1.903  0.8635  1.6526 -1.8479
 9365TIP3    H249587   5.386   3.020   1.981 -0.7479  2.1832  1.0318
 9366TIP3   OH249588   5.916   4.997  12.855  0.7479 -0.0835  0.0122
 9366TIP3    H149589   5.906   5.046  12.773  0.1010  2.0385  1.2771
 9366TIP3    H249590   5.826   4.978  12.883  0.9266  0.1672  0.7715
 9367TIP3   OH249591   5.286   0.389   5.398 -0.2675  0.4124 -0.2935
 9367TIP3    H149592   5.281   0.294   5.409 -1.6307  0.5218  0.2487
 9367TIP3    H249593   5.289   0.401   5.303 -1.4490 -0.1526 -0.4293
 9368TIP3   OH249594   3.900   0.465   3.067 -0.0999  0.3573  0.0033
 9368TIP3    H149595   3.856   0.394   3.113  1.0357 -1.6193 -1.8099
 9368TIP3    H249596   3.834   0.500   3.008 -0.2572 -0.2011 -0.1569
 9369TIP3   OH249597   2.084   0.309   6.074 -0.2107  0.0336  0.5966
 9369TIP3    H149598   2.051   0.339   5.989 -0.0962 -2.0509 -0.2278
 9369TIP3    H249599   2.165   0.357   6.086  0.3255 -0.3974 -1.0037
 9370TIP3   OH249600   1.887   2.300  16.512 -0.5729  0.1669  0.2060
 9370TIP3    H149601   1.979   2.325  16.502 -0.9496  2.7979  2.2002
 9370TIP3    H249602   1.842   2.344  16.441 -0.3711 -0.9318 -0.6312
 9371TIP3   OH249603   2.856   4.975   1.967  0.3913  0.0155 -0.1361
 9371TIP3    H149604   2.880   4.897   2.016  0.6317 -0.2900 -0.7412
 9371TIP3    H249605   2.862   5.046   2.031  2.1274 -0.1588 -0.0752
 9372TIP3   OH249606   6.643   2.433  11.576 -0.4252  0.2363 -0.0498
 9372TIP3    H149607   6.560   2.408  11.615 -0.3582 -1.1135 -0.6812
 9372TIP3    H249608   6.650   2.527  11.591 -1.3420  0.1103  1.3340
 9373TIP3   OH249609   2.321   0.834  14.954 -0.1891 -0.2684 -0.4867
 9373TIP3    H149610   2.240   0.783  14.962 -0.4095  0.2476  0.7807
 9373TIP3    H249611   2.391   0.769  14.967 -0.4765 -0.2233  1.5853
 9374TIP3   OH249612   3.624   2.146  13.851 -0.1046 -0.0249 -0.5796
 9374TIP3    H149613   3.661   2.181  13.932  0.6093  0.5231 -1.1281
 9374TIP3    H249614   3.563   2.078  13.880  2.3956 -2.0546  0.3467
 9375TIP3   OH249615   4.601   3.032   0.827 -0.4983 -0.2153  0.1025
 9375TIP3    H149616   4.552   3.019   0.745  0.5712 -0.0743 -0.5848
 9375TIP3    H249617   4.681   2.981   0.814 -0.1146  0.1864  0.8793
 9376TIP3   OH249618   1.061   3.790  12.624 -0.2537 -0.0606  0.3230
 9376TIP3    H149619   1.031   3.722  12.564 -0.2908  0.7615 -0.6059
 9376TIP3    H249620   0.982   3.836  12.651 -0.0684  0.7195 -0.4245
 9377TIP3   OH249621   4.305   0.421   3.366  0.3398  0.1090  0.1801
 9377TIP3    H149622   4.342   0.337   3.394  1.0098 -0.3796 -2.0027
 9377TIP3    H249623   4.246   0.445   3.438  1.8782 -1.0434  1.9408
 9378TIP3   OH249624   4.431   2.539   2.248  0.2387 -0.2359  0.1081
 9378TIP3    H149625   4.476   2.606   2.299  0.2100 -0.9536  1.0968
 9378TIP3    H249626   4.443   2.566   2.157  2.0824 -0.0517  0.3769
 9379TIP3   OH249627   6.086   2.175   2.179 -0.0889 -0.2172  0.1447
 9379TIP3    H149628   6.000   2.168   2.139 -0.8964 -0.7042  1.8760
 9379TIP3    H249629   6.147   2.165   2.106 -1.4499  2.1145 -1.4378
 9380TIP3   OH249630   0.435   0.445   3.873 -0.2890  0.2901  0.2365
 9380TIP3    H149631   0.519   0.477   3.906 -0.2768 -0.8743  1.4006
 9380TIP3    H249632   0.370   0.500   3.916 -0.1650  1.8769 -1.4270
 9381TIP3   OH249633   3.753   2.433   1.059  0.1386  0.2065 -0.1664
 9381TIP3    H149634   3.771   2.367   0.992  0.0698  1.5467 -1.5672
 9381TIP3    H249635   3.798   2.401   1.137 -0.2835 -1.7093 -0.6504
 9382TIP3   OH249636   3.810   6.753  12.455  0.1462  0.4802 -0.3989
 9382TIP3    H149637   3.728   6.764  12.407  1.4807  2.2114 -2.4870
 9382TIP3    H249638   3.846   6.841  12.464  2.9375 -0.3707 -1.8450
 9383TIP3   OH249639   2.748   2.451   0.124  0.5827  0.3214 -0.2480
 9383TIP3    H149640   2.774   2.433   0.034 -0.6179  0.7848 -0.7030
 9383TIP3    H249641   2.818   2.412   0.177 -0.0524 -2.4133 -1.2574
 9384TIP3   OH249642   1.981   6.274  12.429  0.2633  0.4243 -0.0078
 9384TIP3    H149643   1.918   6.297  12.360 -0.4376 -2.4835 -0.4649
 9384TIP3    H249644   1.986   6.352  12.483 -1.2348  1.8926 -1.8185
 9385TIP3   OH249645   2.807   5.597   0.275 -0.6425 -0.5401 -0.6973
 9385TIP3    H149646   2.886   5.605   0.329 -0.4706  0.1843 -1.0397
 9385TIP3    H249647   2.840   5.590   0.185 -0.9578 -0.6804 -0.8041
 9386TIP3   OH249648   2.806   3.397  16.881 -0.0765  0.3163  0.7953
 9386TIP3    H149649   2.894   3.361  16.870  0.8327  2.1909  1.4889
 9386TIP3    H249650   2.805   3.476  16.826 -1.3620  0.2779  0.7344
 9387TIP3   OH249651   4.799   5.069   4.153  0.6007  0.0993 -0.2337
 9387TIP3    H149652   4.782   5.163   4.140  1.7198  0.8442  2.8251
 9387TIP3    H249653   4.730   5.039   4.212  1.2650 -0.5227  0.2540
 9388TIP3   OH249654   5.245   2.566   1.643  0.3925 -0.7074  0.1625
 9388TIP3    H149655   5.224   2.553   1.736  1.1569  0.7673  0.5823
 9388TIP3    H249656   5.295   2.488   1.619 -2.2302 -2.5083  0.1407
 9389TIP3   OH249657   4.551   0.674  13.251  0.1729 -0.2970 -0.7446
 9389TIP3    H149658   4.589   0.737  13.189 -0.3184  1.3720  0.5612
 9389TIP3    H249659   4.469   0.647  13.211 -0.4293  1.2211 -0.6215
 9390TIP3   OH249660   5.486   3.304   5.553  0.3265  0.0523 -0.1935
 9390TIP3    H149661   5.430   3.299   5.630  1.0530 -0.3373  0.3215
 9390TIP3    H249662   5.570   3.337   5.586  0.4038  0.6321 -0.9514
 9391TIP3   OH249663   1.268   5.983  13.341  0.2465  0.1291 -0.5224
 9391TIP3    H149664   1.355   5.953  13.312 -0.1547 -1.1245 -0.5076
 9391TIP3    H249665   1.264   5.959  13.433 -0.2647 -0.1882 -0.6239
 9392TIP3   OH249666   3.174   3.574   3.451 -0.6532 -0.4599  0.2810
 9392TIP3    H149667   3.196   3.633   3.522  0.7561  1.6250 -1.7581
 9392TIP3    H249668   3.082   3.551   3.466 -0.6463  0.6171  2.2395
 9393TIP3   OH249669   1.374   0.538  14.850 -0.4798 -0.6526 -0.0123
 9393TIP3    H149670   1.434   0.506  14.783 -0.5433 -2.0898  0.5861
 9393TIP3    H249671   1.432   0.569  14.920 -0.4255 -0.6896 -0.0402
 9394TIP3   OH249672   5.005   0.288   0.760  0.2007  0.1349  0.1270
 9394TIP3    H149673   4.949   0.219   0.796  0.6466 -0.0237  0.5203
 9394TIP3    H249674   5.091   0.272   0.798  0.8491 -0.3918 -1.4587
 9395TIP3   OH249675   3.711   5.442   3.087 -0.7270  0.0978  0.3857
 9395TIP3    H149676   3.634   5.402   3.047 -0.7480  0.9239 -0.4588
 9395TIP3    H249677   3.697   5.436   3.181 -3.2160  2.7196  0.3214
 9396TIP3   OH249678   1.735   4.245   2.704  0.0205 -0.2034  0.0657
 9396TIP3    H149679   1.720   4.296   2.625 -1.4651 -0.5513  0.0966
 9396TIP3    H249680   1.742   4.310   2.774  1.2154  0.0973 -0.3068
 9397TIP3   OH249681   1.421   1.145   1.688 -0.0140  0.1666 -0.4650
 9397TIP3    H149682   1.420   1.168   1.782 -0.6290 -0.8474 -0.2044
 9397TIP3    H249683   1.380   1.059   1.685 -0.4045  0.3827 -1.7251
 9398TIP3   OH249684   6.758   4.930   4.521  0.1318 -0.4233 -0.0699
 9398TIP3    H149685   6.694   4.995   4.492  0.7692  0.3795  0.2626
 9398TIP3    H249686   6.748   4.929   4.617  1.7616  0.9954  0.1658
 9399TIP3   OH249687   0.739   0.368   2.124  0.3340 -0.8416  0.4995
 9399TIP3    H149688   0.819   0.357   2.175  1.3676 -0.3728 -0.9562
 9399TIP3    H249689   0.679   0.416   2.183  2.5546  2.4627  0.3406
 9400TIP3   OH249690   6.620   5.787  15.460 -0.0154  0.7601  0.1703
 9400TIP3    H149691   6.561   5.793  15.534 -2.3972 -1.2913 -1.3887
 9400TIP3    H249692   6.565   5.806  15.384  1.6362  0.0837 -1.2678
 9401TIP3   OH249693   0.202   6.604  14.511 -0.1537  0.5038 -0.2332
 9401TIP3    H149694   0.264   6.586  14.440  0.5016  1.4361  0.0774
 9401TIP3    H249695   0.145   6.528  14.514 -0.2638  0.5069 -1.8377
 9402TIP3   OH249696   1.644   1.109   5.009  0.3343  0.0570 -0.3706
 9402TIP3    H149697   1.625   1.185   5.063  1.0297 -0.3036  0.4031
 9402TIP3    H249698   1.566   1.053   5.019  0.0735  0.4019 -0.4690
 9403TIP3   OH249699   0.916   2.809   3.272 -0.0201  0.3126  0.6507
 9403TIP3    H149700   0.853   2.805   3.345 -1.3007  0.6471 -0.3940
 9403TIP3    H249701   0.906   2.725   3.227  1.3064 -0.2006  1.2462
 9404TIP3   OH249702   2.355   3.214  13.337 -0.0215 -0.9391  0.1094
 9404TIP3    H149703   2.306   3.286  13.296  0.1341 -1.0594 -0.2993
 9404TIP3    H249704   2.298   3.182  13.406 -0.5420 -1.1049 -0.3912
 9405TIP3   OH249705   6.025   4.938  16.018 -0.1557 -0.3128 -0.1370
 9405TIP3    H149706   5.992   4.966  15.932 -1.3424 -0.4635  0.2433
 9405TIP3    H249707   6.116   4.915  16.003  0.2271  1.5308 -0.9470
 9406TIP3   OH249708   0.988   4.412   1.292 -0.3451 -0.3187  0.3202
 9406TIP3    H149709   0.901   4.375   1.305 -0.4488 -1.6683 -3.0630
 9406TIP3    H249710   1.044   4.335   1.277  1.0406  0.6119  0.5634
 9407TIP3   OH249711   2.006   4.157  11.699 -0.3165 -0.5506  0.1743
 9407TIP3    H149712   1.923   4.173  11.653 -0.2607 -0.7519  0.0002
 9407TIP3    H249713   2.028   4.066  11.678  0.1683 -0.3656 -0.1376
 9408TIP3   OH249714   3.515   2.329   4.682 -0.0016 -0.2534  0.3880
 9408TIP3    H149715   3.500   2.333   4.777 -0.9551  0.4774  0.2274
 9408TIP3    H249716   3.465   2.252   4.653  0.0636 -0.3179  0.4487
 9409TIP3   OH249717   0.403   3.847   4.645 -0.6255 -0.1526  0.1588
 9409TIP3    H149718   0.381   3.940   4.645  1.3645  0.3645 -0.2250
 9409TIP3    H249719   0.318   3.802   4.635 -1.6050  1.6016  0.2165
 9410TIP3   OH249720   4.046   6.034  12.123  0.2158  0.1826 -0.3375
 9410TIP3    H149721   4.037   6.107  12.184 -2.8432  0.3524 -0.8072
 9410TIP3    H249722   4.137   6.037  12.094  0.8260  2.2246  1.5647
 9411TIP3   OH249723   0.754   1.433  11.328 -0.6490  0.2625 -0.4223
 9411TIP3    H149724   0.673   1.382  11.325 -0.5298  0.0818 -0.6107
 9411TIP3    H249725   0.788   1.420  11.416  0.1563 -1.2080 -0.9138
 9412TIP3   OH249726   1.197   2.911  15.645 -0.0649 -0.2932  0.1981
 9412TIP3    H149727   1.254   2.949  15.578  0.2496  0.0213  0.6434
 9412TIP3    H249728   1.247   2.919  15.726  0.1693 -1.9788  0.2557
 9413TIP3   OH249729   4.324   2.591  11.252 -0.0333 -0.5437 -0.3673
 9413TIP3    H149730   4.231   2.573  11.243  0.0149 -0.9120 -0.1380
 9413TIP3    H249731   4.357   2.595  11.163 -0.7598  2.2793 -0.6235
 9414TIP3   OH249732   3.085   0.794  14.488 -0.1652 -0.0068  0.7561
 9414TIP3    H149733   3.047   0.728  14.429 -1.8698  0.0110  1.7626
 9414TIP3    H249734   3.131   0.742  14.554  0.3396 -0.0822  0.3579
 9415TIP3   OH249735   0.201   1.442  13.260 -0.1337 -0.0693 -0.3175
 9415TIP3    H149736   0.256   1.432  13.182 -1.8961 -1.0513 -1.4776
 9415TIP3    H249737   0.237   1.380  13.323  0.1687 -0.6144 -1.0148
 9416TIP3   OH249738   1.698   2.398  11.550  0.2686 -0.1595 -0.2512
 9416TIP3    H149739   1.672   2.345  11.625 -0.6975  0.2407 -0.2856
 9416TIP3    H249740   1.622   2.454  11.533  1.1838  1.0824 -0.3594
 9417TIP3   OH249741   5.686   2.784  10.690  0.2444  0.1686 -0.4565
 9417TIP3    H149742   5.685   2.743  10.603 -0.5507  1.2787 -1.0005
 9417TIP3    H249743   5.723   2.871  10.675 -0.2995  0.5332  0.2316
 9418TIP3   OH249744   1.098   3.513   1.500  0.2759  0.5588  0.3371
 9418TIP3    H149745   1.181   3.480   1.465  0.2671 -0.2641  1.0850
 9418TIP3    H249746   1.109   3.609   1.499  1.1502  0.4668  0.2262
 9419TIP3   OH249747   1.396   0.828  12.050 -0.0019  0.2847  0.0018
 9419TIP3    H149748   1.463   0.775  12.007 -0.4873  0.3438 -0.8363
 9419TIP3    H249749   1.345   0.765  12.101  1.5152  0.4138  1.7716
 9420TIP3   OH249750   0.523   6.368  16.022  0.0966  0.1021 -0.3120
 9420TIP3    H149751   0.501   6.275  16.022 -2.4061  0.6157 -1.8027
 9420TIP3    H249752   0.612   6.371  15.985 -1.0505 -1.5458 -3.6582
 9421TIP3   OH249753   2.511   6.042  16.707  0.0297 -0.0321  0.4863
 9421TIP3    H149754   2.430   6.093  16.707  0.3155  0.4609  1.7559
 9421TIP3    H249755   2.483   5.951  16.715 -0.4192  0.0557 -0.0436
 9422TIP3   OH249756   0.900   5.355  14.036 -0.9690  0.0014  0.0361
 9422TIP3    H149757   0.876   5.298  13.963  0.1138 -0.2385 -0.1497
 9422TIP3    H249758   0.983   5.395  14.009 -1.1260  0.7730  0.6623
 9423TIP3   OH249759   1.602   2.791  13.627  0.7902  0.1794  0.4978
 9423TIP3    H149760   1.669   2.854  13.600  0.6178  0.0484 -0.2632
 9423TIP3    H249761   1.545   2.841  13.685 -0.4907  1.3492 -1.6220
 9424TIP3   OH249762   4.309   4.561  15.306  0.3630 -0.0694  0.1701
 9424TIP3    H149763   4.259   4.542  15.386  0.1299  2.8951  0.8769
 9424TIP3    H249764   4.252   4.533  15.235 -0.5434 -0.4851  1.0320
 9425TIP3   OH249765   3.751   2.446   4.622 -0.3228 -0.5802  0.1445
 9425TIP3    H149766   3.665   2.405   4.621  0.1969 -1.7148 -0.1363
 9425TIP3    H249767   3.790   2.417   4.705 -0.6096  0.8163  0.7881
 9426TIP3   OH249768   1.083   4.385   2.123  0.2881 -0.5016  0.4338
 9426TIP3    H149769   1.149   4.433   2.173 -0.9269  0.6758  0.9695
 9426TIP3    H249770   1.072   4.303   2.171  1.2620 -0.6656  0.3971
 9427TIP3   OH249771   3.114   3.217  12.647  0.0756  0.6405 -0.3395
 9427TIP3    H149772   3.135   3.140  12.595  0.2321  0.9715 -0.7674
 9427TIP3    H249773   3.023   3.202  12.675  0.6143 -0.4743  0.9607
 9428TIP3   OH249774   6.181   3.269   3.133 -0.5661 -0.6668 -0.3371
 9428TIP3    H149775   6.250   3.244   3.196  0.3712  0.4790 -0.8676
 9428TIP3    H249776   6.214   3.238   3.049 -2.2231 -2.9925 -0.2364
 9429TIP3   OH249777   5.064   5.504  12.283 -0.3856  0.2646  0.2557
 9429TIP3    H149778   4.990   5.475  12.336  0.2969  0.4575  1.3448
 9429TIP3    H249779   5.131   5.438  12.297  0.5795  1.4430  1.4039
 9430TIP3   OH249780   1.741   1.084   3.615 -0.2106 -0.2008 -0.4904
 9430TIP3    H149781   1.654   1.044   3.615 -1.0257  1.4667 -0.5338
 9430TIP3    H249782   1.736   1.154   3.550  0.1542  1.8981  1.5708
 9431TIP3   OH249783   0.970   2.780   1.917  0.5601 -0.3449  0.0906
 9431TIP3    H149784   0.943   2.826   1.838 -0.2072 -2.1137 -0.7304
 9431TIP3    H249785   1.049   2.824   1.945  1.8320 -0.7014 -2.6332
 9432TIP3   OH249786   5.752   6.498  13.471 -0.6282  0.4803  0.3968
 9432TIP3    H149787   5.707   6.439  13.530  0.1676  1.1043  1.6617
 9432TIP3    H249788   5.699   6.497  13.391 -0.7152 -1.7810  0.4358
 9433TIP3   OH249789   2.329   6.093   1.830 -0.1321 -0.2747  0.1905
 9433TIP3    H149790   2.411   6.046   1.842  0.0426 -0.1618 -0.5102
 9433TIP3    H249791   2.355   6.185   1.821 -0.2917 -0.2763 -0.3787
 9434TIP3   OH249792   5.552   3.376  16.917 -0.4179  0.0037 -1.0182
 9434TIP3    H149793   5.636   3.336  16.895  0.6742  0.5344  1.7430
 9434TIP3    H249794   5.575   3.451  16.973 -2.7110  0.2769 -0.3453
 9435TIP3   OH249795   0.108   4.142   3.201 -0.7738  0.5058  0.1654
 9435TIP3    H149796   0.095   4.048   3.216  1.4217  0.1254  0.0153
 9435TIP3    H249797   0.128   4.177   3.287 -0.0495  0.5310 -0.0061
 9436TIP3   OH249798   5.252   0.107  13.541 -0.2371 -0.2951 -0.1621
 9436TIP3    H149799   5.297   0.025  13.520  0.6877 -0.0892  0.9326
 9436TIP3    H249800   5.305   0.146  13.610 -0.4299  1.4300 -0.9464
 9437TIP3   OH249801   0.909   0.321   1.012 -0.0365 -0.2048 -0.2326
 9437TIP3    H149802   0.950   0.328   1.098  1.7357  0.6552 -1.0844
 9437TIP3    H249803   0.964   0.257   0.965 -2.6870 -2.9556  0.1441
 9438TIP3   OH249804   1.708   5.920  11.715 -0.1016  0.1891  0.3504
 9438TIP3    H149805   1.769   5.929  11.787 -0.7612  0.9578  0.8391
 9438TIP3    H249806   1.621   5.931  11.755 -0.7127 -2.6105 -0.0215
 9439TIP3   OH249807   1.481   2.885  15.481 -0.2462 -0.3586  0.7074
 9439TIP3    H149808   1.569   2.899  15.516  0.4432 -0.6780 -0.8193
 9439TIP3    H249809   1.490   2.899  15.387 -1.9184 -0.0397  0.5613
 9440TIP3   OH249810   4.371   6.237   5.628  0.0347  0.6670  0.7128
 9440TIP3    H149811   4.329   6.273   5.706  2.4663  2.0148  1.5428
 9440TIP3    H249812   4.305   6.243   5.559 -2.2017 -0.5657  2.6082
 9441TIP3   OH249813   0.794   3.450  16.334 -0.0242  0.1341 -0.1929
 9441TIP3    H149814   0.717   3.498  16.302  0.1501  1.1915  0.9080
 9441TIP3    H249815   0.820   3.395  16.260 -1.2090  0.5396 -0.9387
 9442TIP3   OH249816   4.571   0.633  15.707 -0.1403 -0.2394 -0.5149
 9442TIP3    H149817   4.549   0.718  15.746 -1.5780 -0.8964  0.1933
 9442TIP3    H249818   4.640   0.652  15.644 -1.2951  1.6606 -1.2790
 9443TIP3   OH249819   5.401   0.087  11.333  0.1016  0.0172 -0.4942
 9443TIP3    H149820   5.369   0.146  11.401 -1.6991  2.1599 -3.0178
 9443TIP3    H249821   5.469   0.137  11.287 -0.0565 -0.6116 -1.4580
 9444TIP3   OH249822   3.136   1.348   3.957 -0.0865  0.3377  0.0141
 9444TIP3    H149823   3.211   1.405   3.971 -0.6991  1.3995 -0.8759
 9444TIP3    H249824   3.132   1.336   3.862  0.4076 -1.7475  0.1944
 9445TIP3   OH249825   2.936   1.519   2.596  0.7873 -0.2812 -0.9477
 9445TIP3    H149826   2.894   1.486   2.516 -0.9094 -0.8563  0.1029
 9445TIP3    H249827   2.869   1.506   2.664  2.4792 -0.6210  0.7280
 9446TIP3   OH249828   6.718   3.832   1.971 -0.6279 -0.6834  0.2842
 9446TIP3    H149829   6.766   3.824   2.053 -0.7568 -0.1995  0.4102
 9446TIP3    H249830   6.760   3.769   1.912 -0.5420 -1.0370  0.7207
 9447TIP3   OH249831   2.262   2.181  17.129  0.6151 -0.0981  0.5552
 9447TIP3    H149832   2.275   2.266  17.088 -0.4064  0.1991  0.8248
 9447TIP3    H249833   2.208   2.132  17.067  2.9839 -1.3887 -0.6412
 9448TIP3   OH249834   0.654   6.036   6.474  0.3749 -0.2843  0.5942
 9448TIP3    H149835   0.576   6.008   6.426 -1.4494  2.5576  1.6540
 9448TIP3    H249836   0.662   5.974   6.546 -1.6701  0.0045  1.1365
 9449TIP3   OH249837   2.582   2.804  13.322  0.1709 -0.1311 -0.2525
 9449TIP3    H149838   2.555   2.892  13.296 -1.2409 -0.5742 -0.3442
 9449TIP3    H249839   2.503   2.764  13.358  0.6716 -1.5401 -0.6610
 9450TIP3   OH249840   6.685   0.101   2.840  0.2692 -0.0368  0.2193
 9450TIP3    H149841   6.735   0.027   2.804 -1.7261 -1.6866  0.6620
 9450TIP3    H249842   6.621   0.122   2.771  0.1586  0.6096  0.5135
 9451TIP3   OH249843   6.249   5.851   4.634  0.2236 -0.1122  0.4898
 9451TIP3    H149844   6.238   5.832   4.727 -0.5488 -1.8640  0.0896
 9451TIP3    H249845   6.228   5.944   4.625 -0.3224 -0.0773  1.9649
 9452TIP3   OH249846   3.668   0.656  12.860 -0.1220  0.3443 -0.6576
 9452TIP3    H149847   3.581   0.688  12.884 -1.0867 -1.1026 -1.9853
 9452TIP3    H249848   3.728   0.724  12.890 -1.7919  1.8852 -0.6330
 9453TIP3   OH249849   6.110   5.887  13.459  0.2481  0.5529 -0.3727
 9453TIP3    H149850   6.157   5.803  13.451  0.3620  0.5131  0.6757
 9453TIP3    H249851   6.106   5.920  13.369  0.4874 -0.4217 -0.7541
 9454TIP3   OH249852   0.443   2.410   2.456  0.1457 -0.1528  0.7417
 9454TIP3    H149853   0.391   2.417   2.536 -2.1086  0.2676 -0.6724
 9454TIP3    H249854   0.439   2.497   2.417  0.2962 -0.6305 -0.3623
 9455TIP3   OH249855   2.465   5.700   4.966 -0.0961 -0.3480  0.0891
 9455TIP3    H149856   2.546   5.725   5.011 -0.3905  0.0000  0.4405
 9455TIP3    H249857   2.488   5.621   4.917  0.5590 -0.0185 -0.1441
 9456TIP3   OH249858   4.574   3.712   4.021 -0.2398  0.5894 -0.4062
 9456TIP3    H149859   4.548   3.738   3.933  1.0695  0.6918 -0.7881
 9456TIP3    H249860   4.649   3.654   4.008 -1.0601 -0.7382  0.5760
 9457TIP3   OH249861   4.504   6.301  11.888  0.0477  0.5403 -0.8929
 9457TIP3    H149862   4.437   6.268  11.948 -1.2491  2.6552 -1.1112
 9457TIP3    H249863   4.552   6.222  11.860 -0.9520 -0.7733  0.9088
 9458TIP3   OH249864   0.323   0.284   4.895  0.2667 -0.4735 -0.2993
 9458TIP3    H149865   0.361   0.358   4.849 -0.2043 -0.3049 -0.4283
 9458TIP3    H249866   0.311   0.314   4.985  1.8058 -1.0258  0.1165
 9459TIP3   OH249867   5.365   1.583   4.852  0.0711  0.7221  0.0403
 9459TIP3    H149868   5.385   1.665   4.896  0.7034  1.4113 -1.4759
 9459TIP3    H249869   5.400   1.593   4.764  0.5368 -1.3305 -0.0641
 9460TIP3   OH249870   5.410   5.110   5.539  0.6964  0.1283  0.8989
 9460TIP3    H149871   5.476   5.045   5.517  1.8844  2.1040 -1.9021
 9460TIP3    H249872   5.326   5.067   5.521  1.4788 -0.0575 -3.2636
 9461TIP3   OH249873   4.126   1.439  12.501 -0.0302  0.4256 -0.0300
 9461TIP3    H149874   4.113   1.441  12.406  0.2708 -0.2525 -0.0952
 9461TIP3    H249875   4.053   1.490  12.536 -0.3449  0.3892 -0.6134
 9462TIP3   OH249876   2.509   1.733   3.950  0.5597 -0.3272  0.2678
 9462TIP3    H149877   2.581   1.762   4.006 -0.6092  0.9334  1.1923
 9462TIP3    H249878   2.437   1.793   3.971 -1.6242 -3.1108  1.3624
 9463TIP3   OH249879   6.645   4.137  14.373 -0.2337 -0.1660  0.2908
 9463TIP3    H149880   6.601   4.207  14.324  0.6040 -0.8432 -1.5388
 9463TIP3    H249881   6.665   4.176  14.458 -1.1217  1.3157 -0.1351
 9464TIP3   OH249882   2.861   3.112  12.665  0.3822 -0.5231 -0.0022
 9464TIP3    H149883   2.776   3.145  12.636  0.4487  0.2133  0.5971
 9464TIP3    H249884   2.842   3.062  12.744  0.4672 -0.6349 -0.0528
 9465TIP3   OH249885   3.977   2.458  12.121  0.1958  0.1971 -0.4018
 9465TIP3    H149886   3.900   2.515  12.121  0.6112  0.7778 -1.3924
 9465TIP3    H249887   4.032   2.491  12.050  1.0130 -0.6856 -0.2051
 9466TIP3   OH249888   2.967   5.295  10.587 -0.2007  0.0204 -0.5746
 9466TIP3    H149889   2.918   5.286  10.506 -0.6533 -0.3305 -0.2692
 9466TIP3    H249890   2.955   5.212  10.632  0.2327  0.1274 -0.2484
 9467TIP3   OH249891   3.948   5.200  14.973 -0.3765 -0.4305  0.0999
 9467TIP3    H149892   3.925   5.256  14.899 -0.2969 -1.5557 -0.7989
 9467TIP3    H249893   3.864   5.165  15.003 -0.3462 -0.4599  0.1507
 9468TIP3   OH249894   0.722   0.401  14.344 -0.0314 -0.7171  0.3133
 9468TIP3    H149895   0.715   0.489  14.306 -1.5134 -1.0558 -0.2419
 9468TIP3    H249896   0.633   0.380  14.373  0.3453 -1.9565  0.6312
 9469TIP3   OH249897   6.792   2.592   3.102 -0.1796 -0.0048  0.8880
 9469TIP3    H149898   6.811   2.614   3.193  0.2804 -1.0521  1.0572
 9469TIP3    H249899   6.878   2.573   3.063 -0.1979  1.8267 -0.1732
 9470TIP3   OH249900   3.131   1.459  10.917  0.1231  0.2803  0.0444
 9470TIP3    H149901   3.121   1.532  10.979  0.2063 -0.7332  1.2834
 9470TIP3    H249902   3.042   1.441  10.887  0.3053  2.3621 -2.1025
 9471TIP3   OH249903   0.678   3.184  15.493 -0.0692  0.4112  0.0422
 9471TIP3    H149904   0.635   3.199  15.578 -2.0009  1.8041 -1.1144
 9471TIP3    H249905   0.613   3.138  15.441  1.2131 -0.7022 -0.6512
 9472TIP3   OH249906   6.031   5.662   0.731 -0.4483 -0.6560 -0.0033
 9472TIP3    H149907   6.077   5.583   0.756 -0.8434 -0.5827  0.9913
 9472TIP3    H249908   6.100   5.724   0.708  0.0690 -0.0957  2.7778
 9473TIP3   OH249909   5.579   2.239   6.227 -0.0617 -0.3405  0.0958
 9473TIP3    H149910   5.614   2.163   6.273 -2.8135 -1.3369  0.7369
 9473TIP3    H249911   5.574   2.308   6.293 -0.5407 -0.6118  0.3449
 9474TIP3   OH249912   5.735   0.460   5.926 -0.4033  0.3171  0.1819
 9474TIP3    H149913   5.666   0.448   5.991 -0.3995  1.1240  0.3413
 9474TIP3    H249914   5.814   0.427   5.968 -0.3347  1.1591  0.7278
 9475TIP3   OH249915   4.964   5.262   1.078  0.0931 -0.4973  0.0138
 9475TIP3    H149916   4.981   5.173   1.109 -1.6925 -1.2379 -0.9481
 9475TIP3    H249917   5.008   5.319   1.142 -0.7598 -2.0056  2.0642
 9476TIP3   OH249918   4.952   1.741   2.278  0.5934 -0.2686  0.5623
 9476TIP3    H149919   4.922   1.771   2.364 -1.5513 -0.1001 -0.1790
 9476TIP3    H249920   4.894   1.786   2.216  0.7238 -1.9870 -0.8688
 9477TIP3   OH249921   3.428   3.306   2.879  0.2120 -0.2959 -0.3166
 9477TIP3    H149922   3.403   3.222   2.916  0.9109  0.1205  1.1623
 9477TIP3    H249923   3.513   3.326   2.919 -0.2442  1.4039 -0.1442
 9478TIP3   OH249924   2.686   6.711   1.464 -0.6301 -0.2001 -0.3680
 9478TIP3    H149925   2.718   6.698   1.553  0.5525  1.0460 -0.5764
 9478TIP3    H249926   2.593   6.690   1.468 -0.0436 -2.8988  0.5041
 9479TIP3   OH249927   3.499   4.509  12.420 -0.4203 -0.2519  0.2638
 9479TIP3    H149928   3.566   4.576  12.412 -0.1521 -0.6330 -0.8677
 9479TIP3    H249929   3.457   4.505  12.334 -1.8296 -0.1083  0.9014
 9480TIP3   OH249930   2.060   6.540  16.906 -0.5675  0.3325 -0.1085
 9480TIP3    H149931   2.062   6.614  16.845 -0.7838 -0.4036 -1.0457
 9480TIP3    H249932   1.967   6.531  16.930 -0.2530  1.7702  1.8257
 9481TIP3   OH249933   2.099   6.185  13.204  0.7765  0.2071  0.0853
 9481TIP3    H149934   2.013   6.154  13.178  0.8532 -0.4466  0.5858
 9481TIP3    H249935   2.161   6.130  13.156  0.9097  0.2601  0.1927
 9482TIP3   OH249936   3.347   4.008   2.196  0.3541 -0.0028 -0.4997
 9482TIP3    H149937   3.312   4.056   2.270 -0.4677  0.0694 -0.9276
 9482TIP3    H249938   3.274   3.954   2.165  0.5897  0.2003 -1.4451
 9483TIP3   OH249939   6.406   4.196   1.480  0.6044  0.2102 -0.2364
 9483TIP3    H149940   6.455   4.173   1.559 -0.1485 -1.3835 -0.1916
 9483TIP3    H249941   6.472   4.201   1.411  0.9127 -1.7346 -0.1431
 9484TIP3   OH249942   5.620   6.033   1.616 -0.4689 -0.0570  0.2618
 9484TIP3    H149943   5.531   6.061   1.638  0.4257  2.8847  0.6459
 9484TIP3    H249944   5.677   6.099   1.656  1.7716 -0.3429 -2.1240
 9485TIP3   OH249945   0.766   4.340   5.878 -0.3332 -0.1160  0.1620
 9485TIP3    H149946   0.690   4.383   5.839  1.6878  2.3064 -1.4176
 9485TIP3    H249947   0.787   4.394   5.954 -0.0448 -0.6144  0.4398
 9486TIP3   OH249948   4.329   2.900  12.642  0.2947  0.1286  0.2861
 9486TIP3    H149949   4.299   2.957  12.712 -0.0956  1.7189 -1.1332
 9486TIP3    H249950   4.304   2.812  12.671 -2.2288  0.9837  0.9492
 9487TIP3   OH249951   5.173   3.981   0.150 -0.1242 -0.5240 -0.7084
 9487TIP3    H149952   5.107   4.042   0.184  1.2392 -0.4971  2.1760
 9487TIP3    H249953   5.126   3.899   0.138 -0.7472 -0.5557  1.4621
 9488TIP3   OH249954   0.622   5.395   5.534  0.4181 -0.2513  0.3013
 9488TIP3    H149955   0.710   5.359   5.536  1.4122  2.0085  1.5241
 9488TIP3    H249956   0.593   5.393   5.626  0.1939  1.2233  0.2872
 9489TIP3   OH249957   0.003   3.593  12.277 -0.2219  0.4582  0.6996
 9489TIP3    H149958  -0.081   3.569  12.314 -1.2506 -1.4755 -2.5146
 9489TIP3    H249959   0.066   3.576  12.347 -1.9565 -3.1466  1.5917
 9490TIP3   OH249960   2.383   4.183   1.822 -0.6427  0.0409  0.5656
 9490TIP3    H149961   2.368   4.204   1.730  0.9563  0.4134  0.3516
 9490TIP3    H249962   2.342   4.098   1.835 -1.2539  0.1797 -0.3723
 9491TIP3   OH249963   2.403   2.128   2.620  0.2251 -0.3168  0.1676
 9491TIP3    H149964   2.480   2.113   2.676  0.5448 -1.3476 -0.5141
 9491TIP3    H249965   2.358   2.043   2.619 -0.3704  0.0021 -0.2544
 9492TIP3   OH249966   4.459   5.349   2.300 -0.3721 -0.3441 -0.4707
 9492TIP3    H149967   4.380   5.342   2.355 -1.0823  1.1300 -1.2188
 9492TIP3    H249968   4.425   5.355   2.211  0.7107 -1.5127 -0.9838
 9493TIP3   OH249969   6.834   3.858   0.130 -0.3286 -0.3743 -0.0182
 9493TIP3    H149970   6.811   3.768   0.106  2.2878 -1.5320  1.3827
 9493TIP3    H249971   6.828   3.859   0.225 -0.1466  0.9011 -0.0102
 9494TIP3   OH249972   0.513   1.604   4.128  0.1314 -0.4182 -0.6347
 9494TIP3    H149973   0.536   1.525   4.176  1.2365 -0.2962 -0.9398
 9494TIP3    H249974   0.418   1.602   4.122 -0.0032 -0.6598  1.1704
 9495TIP3   OH249975   4.498   3.371  16.234 -0.3741 -0.3922  0.3004
 9495TIP3    H149976   4.553   3.447  16.252 -1.4636  0.5300 -0.0867
 9495TIP3    H249977   4.525   3.305  16.297 -1.5220  1.3965  2.8181
 9496TIP3   OH249978   2.458   2.756  16.736  0.0147  0.0775 -0.2109
 9496TIP3    H149979   2.543   2.727  16.769  1.1145  3.5712  0.3353
 9496TIP3    H249980   2.463   2.746  16.641  1.0925  0.3650 -0.1901
 9497TIP3   OH249981   4.744   3.260  13.973 -0.1812 -0.2539 -0.5688
 9497TIP3    H149982   4.718   3.198  14.041  0.1368 -0.2274 -0.4205
 9497TIP3    H249983   4.661   3.294  13.939 -0.3876  1.4990  1.4106
 9498TIP3   OH249984   0.296   6.629  11.586  0.1923 -0.5285 -0.4400
 9498TIP3    H149985   0.236   6.555  11.591 -3.6376  2.4086  3.4398
 9498TIP3    H249986   0.248   6.697  11.538  1.3956  1.1377  0.5789
 9499TIP3   OH249987   0.553   1.721   0.510  0.5714 -0.9370  0.6761
 9499TIP3    H149988   0.642   1.699   0.538  0.6660 -0.0158  1.1572
 9499TIP3    H249989   0.517   1.772   0.583  0.5725  0.9472 -0.5643
 9500TIP3   OH249990   1.188   0.564   5.905 -0.1861 -0.2757  0.5737
 9500TIP3    H149991   1.220   0.497   5.844  0.3713  1.5726 -1.2772
 9500TIP3    H249992   1.094   0.550   5.909 -0.4023  0.1686 -1.6009
 9501TIP3   OH249993   2.451   6.296   0.265 -0.1590 -0.0131 -0.0441
 9501TIP3    H149994   2.534   6.332   0.295 -0.8045  0.2207  1.5440
 9501TIP3    H249995   2.430   6.346   0.186 -0.1998  1.9448  1.1499
 9502TIP3   OH249996   1.136   4.283  14.241 -0.5381  0.2576 -0.3380
 9502TIP3    H149997   1.077   4.336  14.295 -0.3228  1.2297 -1.0283
 9502TIP3    H249998   1.078   4.221  14.197 -0.7059 -0.6201  1.0561
 9503TIP3   OH249999   3.451   3.743   0.457  0.0869 -0.2701  0.1011
 9503TIP3    H150000   3.391   3.673   0.434 -1.7814  1.7401 -1.5724
 9503TIP3    H250001   3.515   3.745   0.386  0.3752 -0.5217  0.3522
 9504TIP3   OH250002   3.088   4.103  14.802  0.4933 -0.0774 -0.0862
 9504TIP3    H150003   3.001   4.100  14.841  0.0512 -2.3043 -1.0514
 9504TIP3    H250004   3.148   4.105  14.876 -0.3566  0.4363  0.6060
 9505TIP3   OH250005   3.970   6.095   6.054 -0.0706 -0.9829 -0.0441
 9505TIP3    H150006   3.876   6.080   6.057 -0.2552  0.0595 -0.2205
 9505TIP3    H250007   3.980   6.189   6.072  0.6647 -0.2992 -3.4429
 9506TIP3   OH250008   5.417   4.322   4.695  0.1216 -0.2974  0.6649
 9506TIP3    H150009   5.357   4.255   4.727  0.1378  0.2282  1.8590
 9506TIP3    H250010   5.470   4.346   4.771  1.9568 -0.8291 -0.3843
 9507TIP3   OH250011   2.102   5.359   5.457  0.1546  0.0492  0.4588
 9507TIP3    H150012   2.024   5.306   5.443  0.2743  0.4698 -2.3779
 9507TIP3    H250013   2.127   5.342   5.548 -2.1617 -1.4926  0.8868
 9508TIP3   OH250014   0.660   4.322  11.819  0.3328 -0.0079  0.1394
 9508TIP3    H150015   0.722   4.374  11.769 -0.4475  0.3333 -0.4934
 9508TIP3    H250016   0.583   4.379  11.829  1.0784  0.6293  3.2489
 9509TIP3   OH250017   3.209   2.716   2.693  1.2983 -0.1990  0.1621
 9509TIP3    H150018   3.151   2.684   2.623 -0.3997  0.9398  0.9911
 9509TIP3    H250019   3.296   2.685   2.667  0.3314 -2.1551 -1.0334
 9510TIP3   OH250020   1.016   3.833   3.536 -0.0796  0.4720 -0.3034
 9510TIP3    H150021   1.051   3.847   3.448  1.0343  1.4393  0.2735
 9510TIP3    H250022   1.082   3.869   3.594 -1.7045  1.7515  0.8662
 9511TIP3   OH250023   6.201   2.565   3.740  0.1501 -0.8139  0.4000
 9511TIP3    H150024   6.137   2.628   3.707 -0.5113 -1.6029  0.1341
 9511TIP3    H250025   6.282   2.616   3.750  0.0714 -0.2917 -1.3400
 9512TIP3   OH250026   6.489   6.527   4.051  0.1636 -0.3550 -0.0899
 9512TIP3    H150027   6.565   6.469   4.046  0.0148 -0.5170 -0.4726
 9512TIP3    H250028   6.499   6.585   3.975 -0.1048 -0.3842 -0.1465
 9513TIP3   OH250029   2.095   5.542   2.007  0.1671 -0.2606 -0.7526
 9513TIP3    H150030   2.043   5.492   1.944  0.1648 -0.7002 -0.4126
 9513TIP3    H250031   2.030   5.584   2.063  0.1693  0.1053 -1.0236
 9514TIP3   OH250032   6.674   0.099  15.838  0.4550 -0.7405 -0.0496
 9514TIP3    H150033   6.691   0.028  15.899 -2.8199 -0.4350  1.4763
 9514TIP3    H250034   6.690   0.179  15.889  1.7627 -0.3973 -0.9692
 9515TIP3   OH250035   2.750   2.522   0.673 -0.7721  0.3328 -0.1901
 9515TIP3    H150036   2.812   2.504   0.602 -1.1010  0.7046 -0.5807
 9515TIP3    H250037   2.799   2.579   0.733 -1.0461  1.4925 -1.0210
 9516TIP3   OH250038   2.361   3.236  16.119  0.4775 -0.6762 -0.2494
 9516TIP3    H150039   2.321   3.322  16.123  0.0763 -0.7387 -1.9803
 9516TIP3    H250040   2.287   3.175  16.110  0.8263 -1.0167 -0.9048
 9517TIP3   OH250041   1.864   2.709  12.584  0.3458 -0.2264 -0.0738
 9517TIP3    H150042   1.808   2.638  12.552  2.6366 -2.6664  1.0103
 9517TIP3    H250043   1.840   2.719  12.676  0.9817 -0.5926  0.1372
 9518TIP3   OH250044   3.596   6.390   1.952 -0.4772 -0.1111 -0.3060
 9518TIP3    H150045   3.551   6.316   1.911  2.4821 -2.5499  0.4601
 9518TIP3    H250046   3.661   6.418   1.887  0.6180 -0.4119  0.6233
 9519TIP3   OH250047   2.179   2.455   1.930  0.2628  0.0276 -0.2103
 9519TIP3    H150048   2.166   2.482   1.840  1.6274  0.0031 -0.4335
 9519TIP3    H250049   2.262   2.495   1.956  0.7248 -1.3088  0.4845
 9520TIP3   OH250050   1.339   5.266   5.526 -0.1278  0.3434  0.0709
 9520TIP3    H150051   1.415   5.207   5.530 -0.5896 -0.6713 -3.1116
 9520TIP3    H250052   1.377   5.354   5.519  0.6463  0.1153  1.0922
 9521TIP3   OH250053   1.786   1.109  11.142 -0.2139  0.2299 -0.1439
 9521TIP3    H150054   1.867   1.132  11.188 -1.3010 -0.2998  2.1784
 9521TIP3    H250055   1.720   1.166  11.180 -0.9402  0.8381 -2.2009
 9522TIP3   OH250056   6.618   1.308  11.427 -1.0445  1.2695  0.2548
 9522TIP3    H150057   6.560   1.234  11.410  0.4762 -0.2104  1.1419
 9522TIP3    H250058   6.560   1.383  11.439 -2.8796 -0.3500  2.3646
 9523TIP3   OH250059   5.936   4.993   0.534  0.2686  0.0313  0.4396
 9523TIP3    H150060   5.973   4.910   0.562 -1.0834 -0.6833  0.1854
 9523TIP3    H250061   5.973   5.009   0.448 -1.6741 -1.8321 -0.8321
 9524TIP3   OH250062   6.442   2.022  11.416 -0.2262 -0.1001 -0.1461
 9524TIP3    H150063   6.480   2.064  11.339 -1.3023  1.2592  0.0199
 9524TIP3    H250064   6.348   2.041  11.409 -0.5205 -1.1595  0.7718
 9525TIP3   OH250065   0.501   4.364  15.213  0.4315  0.2716 -0.6104
 9525TIP3    H150066   0.502   4.447  15.166 -1.2560  0.0385 -1.1292
 9525TIP3    H250067   0.533   4.385  15.300 -1.0280  1.7067 -0.3888
 9526TIP3   OH250068   6.063   1.302  11.398  0.0078  0.4484  0.0145
 9526TIP3    H150069   6.016   1.235  11.447 -0.0443  1.3292  1.2048
 9526TIP3    H250070   6.109   1.353  11.465  2.2872 -0.0665 -1.0476
 9527TIP3   OH250071   0.419   6.270  10.512  0.2130  0.1239  0.1573
 9527TIP3    H150072   0.327   6.288  10.528 -0.1125 -1.2881 -0.0391
 9527TIP3    H250073   0.424   6.175  10.503  1.4954  0.2676 -1.0154
 9528TIP3   OH250074   1.043   5.387  13.237 -0.0105 -0.9393 -0.0974
 9528TIP3    H150075   1.106   5.360  13.171 -0.2341 -1.6515 -0.0259
 9528TIP3    H250076   1.048   5.320  13.304 -0.5443 -0.7787  0.1079
 9529TIP3   OH250077   5.899   3.071  10.779  0.1073 -0.0549 -0.5377
 9529TIP3    H150078   5.814   3.069  10.824  0.6415  0.4661  0.5343
 9529TIP3    H250079   5.929   2.981  10.781 -0.1088 -0.1231 -0.3180
 9530TIP3   OH250080   3.579   0.942   0.412 -0.4932 -0.6406 -0.1332
 9530TIP3    H150081   3.612   1.029   0.391 -0.9258 -0.9346 -2.2422
 9530TIP3    H250082   3.606   0.887   0.339 -2.6408 -1.6409 -0.2528
 9531TIP3   OH250083   0.507   0.616   1.602 -0.0519  0.0656 -0.2501
 9531TIP3    H150084   0.530   0.699   1.643 -0.1530 -0.0576  0.0568
 9531TIP3    H250085   0.567   0.552   1.640  0.0378 -0.0004 -0.4991
 9532TIP3   OH250086   3.529   4.824   4.533 -0.1492  0.3661  0.6022
 9532TIP3    H150087   3.493   4.912   4.520  0.8171  0.6931  0.0406
 9532TIP3    H250088   3.608   4.838   4.585 -0.7256 -0.3283  1.7181
 9533TIP3   OH250089   5.647   5.552   1.740  0.3805  0.0101 -0.0560
 9533TIP3    H150090   5.578   5.500   1.698 -0.0659 -0.4334  1.1748
 9533TIP3    H250091   5.641   5.528   1.833  5.4636 -4.0033 -0.3528
 9534TIP3   OH250092   1.210   4.815  14.056  0.1403 -0.4439  0.3381
 9534TIP3    H150093   1.224   4.892  14.001 -1.5809  0.4309  1.0354
 9534TIP3    H250094   1.159   4.848  14.130 -0.9248 -2.3159  0.4958
 9535TIP3   OH250095   5.974   1.698  11.192  0.6494  0.2809  0.5975
 9535TIP3    H150096   6.054   1.684  11.142  1.2664  0.8649  1.3951
 9535TIP3    H250097   5.992   1.661  11.278 -0.4997 -0.9726  0.3445
 9536TIP3   OH250098   6.627   0.337   5.948  0.5195  1.0666  0.2322
 9536TIP3    H150099   6.578   0.396   6.004  0.2064  1.0080  0.0219
 9536TIP3    H250100   6.560   0.287   5.901  0.7640 -0.4271  1.4019
 9537TIP3   OH250101   5.310   3.297  10.070 -0.1924  0.7594  0.3243
 9537TIP3    H150102   5.259   3.329  10.144 -0.9166  0.2494  0.0564
 9537TIP3    H250103   5.336   3.209  10.095 -1.8702 -0.0713 -0.6867
 9538TIP3   OH250104   4.742   0.257   4.252  0.0526 -0.5259 -0.4402
 9538TIP3    H150105   4.759   0.181   4.307  0.1085 -0.8824 -0.9397
 9538TIP3    H250106   4.699   0.320   4.310 -1.0714 -1.3855 -0.3048
 9539TIP3   OH250107   1.240   5.256   1.641  0.0083 -0.3233  0.3801
 9539TIP3    H150108   1.233   5.271   1.736  2.0403 -0.4331  0.5964
 9539TIP3    H250109   1.247   5.161   1.632  2.6388 -0.2123  0.4379
 9540TIP3   OH250110   2.111   0.012  15.842 -0.6243 -0.2446  0.1198
 9540TIP3    H150111   2.133   0.087  15.786 -0.5734 -0.7363 -0.5323
 9540TIP3    H250112   2.192  -0.007  15.889 -0.1557 -0.8847 -0.9019
 9541TIP3   OH250113   5.873   3.068   1.940 -0.4282  0.2431  0.9294
 9541TIP3    H150114   5.845   3.128   2.010 -2.5130  0.2897  0.1436
 9541TIP3    H250115   5.819   2.990   1.953  0.7751 -0.6561  0.6884
 9542TIP3   OH250116   6.586   0.847  14.670 -1.3200 -0.1222 -0.9851
 9542TIP3    H150117   6.627   0.932  14.658 -2.2057  0.5007  0.2005
 9542TIP3    H250118   6.607   0.823  14.760 -2.7069 -0.2388 -0.6683
 9543TIP3   OH250119   4.016   2.074   4.153 -0.0053 -0.0985  0.8627
 9543TIP3    H150120   3.959   2.065   4.230  0.8671  0.6001  1.6187
 9543TIP3    H250121   4.082   2.138   4.180  0.1217  0.4197 -0.5986
 9544TIP3   OH250122   3.693   0.214   6.069 -0.8397  0.2322  0.3863
 9544TIP3    H150123   3.695   0.308   6.048 -2.9195  0.6215  1.7020
 9544TIP3    H250124   3.777   0.198   6.111  0.2154  1.1113 -1.2554
 9545TIP3   OH250125   1.519   5.217  15.679  0.0351 -0.4852  0.3074
 9545TIP3    H150126   1.573   5.296  15.687  0.2234 -0.7767  2.2561
 9545TIP3    H250127   1.582   5.145  15.681 -0.3022 -0.7674  0.8902
 9546TIP3   OH250128   0.730   3.788  16.569 -0.0264 -0.2475  0.4242
 9546TIP3    H150129   0.662   3.752  16.625  0.9349  0.3882  2.0583
 9546TIP3    H250130   0.809   3.740  16.592  0.8280  1.4082  1.1279
 9547TIP3   OH250131   1.100   3.632   0.467  0.4727  0.1024 -0.3381
 9547TIP3    H150132   1.157   3.616   0.542 -0.6584  1.2211  0.8180
 9547TIP3    H250133   1.053   3.550   0.455  1.3335 -0.3873 -0.4365
 9548TIP3   OH250134   5.332   5.934  12.967  0.2188 -0.1897 -0.0000
 9548TIP3    H150135   5.268   5.888  12.913  0.0132  0.9942 -0.7988
 9548TIP3    H250136   5.411   5.880  12.963 -0.3269 -1.0009 -0.0512
 9549TIP3   OH250137   2.799   5.898   1.441  0.7299  0.1645 -0.0965
 9549TIP3    H150138   2.728   5.952   1.475 -0.3216 -1.2626  0.0548
 9549TIP3    H250139   2.812   5.929   1.351  0.1366  0.6292 -0.0247
 9550TIP3   OH250140   4.024   5.592  10.776 -0.3961  0.2734  0.0322
 9550TIP3    H150141   3.991   5.678  10.751  0.4549  0.7428  0.4664
 9550TIP3    H250142   4.084   5.567  10.705  0.6189  0.7909  0.6820
 9551TIP3   OH250143   3.552   5.775   5.148  1.0618  0.3141 -0.2635
 9551TIP3    H150144   3.593   5.737   5.226  1.8057  0.9455 -0.3476
 9551TIP3    H250145   3.580   5.718   5.076  0.5980 -0.1066 -0.1209
 9552TIP3   OH250146   1.532   6.701  13.720 -0.4952  0.2774  0.7271
 9552TIP3    H150147   1.571   6.682  13.805  3.2276  2.7953 -0.1827
 9552TIP3    H250148   1.539   6.796  13.711 -1.1991  0.1580 -2.1978
 9553TIP3   OH250149   5.483   4.929  11.024  0.2127  0.0112  0.0193
 9553TIP3    H150150   5.446   5.011  10.990  1.3800 -0.0880 -1.6450
 9553TIP3    H250151   5.422   4.861  10.996  0.4669  0.0874 -0.7658
 9554TIP3   OH250152   4.197   3.010  11.452 -0.5779  0.7315 -0.5223
 9554TIP3    H150153   4.115   3.060  11.445 -1.1215  0.2322  1.5092
 9554TIP3    H250154   4.195   2.951  11.377 -2.6590  0.0015  0.0142
 9555TIP3   OH250155   6.700   1.095   5.600  0.0940  0.0702  0.2283
 9555TIP3    H150156   6.724   1.059   5.515 -0.7163 -0.3529  0.1654
 9555TIP3    H250157   6.771   1.071   5.659  1.0667  1.0797 -0.5001
 9556TIP3   OH250158   1.375   1.941  14.553  0.1395 -0.4422  0.6080
 9556TIP3    H150159   1.379   1.888  14.632 -0.1732 -2.7799 -0.8536
 9556TIP3    H250160   1.417   1.888  14.485 -0.7648  0.8987 -1.1028
 9557TIP3   OH250161   1.282   3.719   2.251  0.4818 -0.6506  0.1369
 9557TIP3    H150162   1.373   3.739   2.269  0.2528 -0.7292  1.4670
 9557TIP3    H250163   1.235   3.743   2.331 -0.4002 -2.4039  0.2076
 9558TIP3   OH250164   1.400   0.365   1.767 -0.8483  0.9375  0.2689
 9558TIP3    H150165   1.356   0.282   1.749  1.6175 -0.5782  0.7052
 9558TIP3    H250166   1.356   0.399   1.845 -3.4079  1.2965 -1.2097
 9559TIP3   OH250167   3.966   1.873   1.204 -0.2420  0.6583 -0.0708
 9559TIP3    H150168   3.937   1.954   1.246 -1.9337  0.8699 -1.5149
 9559TIP3    H250169   3.887   1.819   1.199  0.5516 -0.5152 -0.4007
 9560TIP3   OH250170   6.117   4.744  11.569 -0.3882  0.2174 -0.2626
 9560TIP3    H150171   6.100   4.822  11.516 -0.5465 -0.3861 -1.1210
 9560TIP3    H250172   6.081   4.672  11.517 -0.9942 -0.3375  0.8981
 9561TIP3   OH250173   4.425   1.932  14.293  0.1769 -0.1350 -0.2556
 9561TIP3    H150174   4.477   1.938  14.213  0.8856  0.6298  0.2515
 9561TIP3    H250175   4.358   2.000  14.282 -0.7944 -1.1741 -0.9452
 9562TIP3   OH250176   5.767   0.192   4.574 -0.1347 -0.5906  0.1046
 9562TIP3    H150177   5.767   0.288   4.577  1.0893 -0.5311 -0.8050
 9562TIP3    H250178   5.700   0.170   4.509 -1.4772 -0.4421  1.3929
 9563TIP3   OH250179   6.569   1.971   2.674 -0.3633 -0.1170 -0.2220
 9563TIP3    H150180   6.538   1.905   2.612 -0.0210 -0.3140 -0.1902
 9563TIP3    H250181   6.663   1.976   2.658 -0.2076 -0.4595  0.5533
 9564TIP3   OH250182   5.356   2.640   2.624  0.1587 -0.0300  0.1599
 9564TIP3    H150183   5.422   2.586   2.667 -0.9762 -2.9217 -1.4185
 9564TIP3    H250184   5.394   2.660   2.538 -0.8965 -1.7235 -0.7618
 9565TIP3   OH250185   4.913   3.426  11.307 -0.0545 -0.3552 -0.2628
 9565TIP3    H150186   5.006   3.425  11.330 -0.3718  1.1438  1.2277
 9565TIP3    H250187   4.871   3.473  11.378 -1.9186 -0.6110 -1.1374
 9566TIP3   OH250188   1.734   4.441   2.505  0.4052  0.1074 -0.1604
 9566TIP3    H150189   1.801   4.497   2.467  1.2664 -1.0725 -0.4389
 9566TIP3    H250190   1.677   4.418   2.432  0.7294 -0.3115 -0.2843
 9567TIP3   OH250191   0.449   4.235   3.593  0.0092  0.4072  0.3002
 9567TIP3    H150192   0.457   4.330   3.607  0.4707  0.2865  0.9179
 9567TIP3    H250193   0.539   4.205   3.583 -0.1895  0.1736 -0.9507
 9568TIP3   OH250194   5.164   6.699  17.068  0.0754 -0.2713  0.5135
 9568TIP3    H150195   5.170   6.605  17.089 -0.8352 -0.7067 -1.0284
 9568TIP3    H250196   5.073   6.710  17.039  0.3660  0.9600  0.0553
 9569TIP3   OH250197   1.920   2.588  10.833 -0.7577 -0.0895 -0.2055
 9569TIP3    H150198   1.934   2.571  10.740 -0.1478 -0.0888 -0.1174
 9569TIP3    H250199   1.995   2.641  10.860  1.9399 -4.2587  1.4601
 9570TIP3   OH250200   5.998   5.979   5.420  0.3537  0.1353  0.1434
 9570TIP3    H150201   5.919   6.029   5.397  0.6875  0.5575 -0.0978
 9570TIP3    H250202   5.986   5.895   5.376 -0.4676 -0.2178  0.9918
 9571TIP3   OH250203   2.080   4.939   4.368 -0.0825  0.0228 -0.2533
 9571TIP3    H150204   2.145   4.930   4.298  0.6319  0.6450  0.3120
 9571TIP3    H250205   1.996   4.923   4.325  0.3917 -0.2145 -1.1203
 9572TIP3   OH250206   3.111   0.362   1.504  0.3225  0.2815 -0.5219
 9572TIP3    H150207   3.056   0.439   1.485  0.2886  0.1220 -1.1056
 9572TIP3    H250208   3.188   0.374   1.449  0.2640 -0.1613 -0.7025
 9573TIP3   OH250209   4.682   3.495   5.159 -0.5758  0.2457 -0.1588
 9573TIP3    H150210   4.746   3.428   5.184 -1.3809 -0.0763  1.1235
 9573TIP3    H250211   4.735   3.562   5.115  0.8608  0.4627  1.7358
 9574TIP3   OH250212   2.049   6.003   4.903  0.0983  0.4911 -0.3500
 9574TIP3    H150213   2.081   5.972   4.988  0.6926  0.0105 -0.7348
 9574TIP3    H250214   2.125   6.045   4.862  0.3125 -0.7676 -1.3246
 9575TIP3   OH250215   0.466   3.235  13.648  0.5991  0.1598  0.1214
 9575TIP3    H150216   0.425   3.159  13.690  1.0410  1.0208  2.2158
 9575TIP3    H250217   0.546   3.199  13.608  1.0952 -0.4252  1.5701
 9576TIP3   OH250218   0.877   0.483  11.957 -0.2316  0.2716 -0.3457
 9576TIP3    H150219   0.885   0.506  11.865 -0.9607  0.6124 -0.3361
 9576TIP3    H250220   0.805   0.420  11.960 -0.0645  0.0904 -0.0346
 9577TIP3   OH250221   2.969   4.011   4.679 -0.2413 -0.4022 -0.1707
 9577TIP3    H150222   2.944   4.102   4.661 -0.9698 -0.9777 -2.4089
 9577TIP3    H250223   2.888   3.970   4.710 -0.3177 -0.6293 -0.6575
 9578TIP3   OH250224   1.980   0.703  16.354 -0.2630  0.5436  0.5741
 9578TIP3    H150225   1.963   0.641  16.424  1.0303 -1.3247 -0.6935
 9578TIP3    H250226   1.893   0.721  16.317 -0.7534  0.2184  1.5319
 9579TIP3   OH250227   6.363   5.420  15.591 -0.5345 -0.5123 -0.4646
 9579TIP3    H150228   6.360   5.462  15.505 -1.7940  0.9876  0.2693
 9579TIP3    H250229   6.438   5.461  15.635 -2.2043  1.7246  0.5327
 9580TIP3   OH250230   0.647   2.678   5.017  0.1789  0.1978  0.2489
 9580TIP3    H150231   0.638   2.587   4.988  0.5071 -0.0545  0.9163
 9580TIP3    H250232   0.742   2.690   5.025  0.1289  0.5556  0.2990
 9581TIP3   OH250233   3.735   4.683   3.804  0.8287  0.2138  0.1540
 9581TIP3    H150234   3.735   4.774   3.835 -0.8227  0.6251 -0.9451
 9581TIP3    H250235   3.677   4.683   3.728  0.4892 -1.8543  0.3504
 9582TIP3   OH250236   5.163   4.776   3.463  0.0361 -0.3097  0.3429
 9582TIP3    H150237   5.210   4.792   3.381 -0.9508  1.4380  0.0529
 9582TIP3    H250238   5.156   4.681   3.469  0.0544 -0.4881 -1.6638
 9583TIP3   OH250239   5.675   1.073  12.230  0.3645 -0.5550 -0.8238
 9583TIP3    H150240   5.663   0.982  12.257  0.6484 -0.2553  0.3468
 9583TIP3    H250241   5.768   1.080  12.210  0.9639  0.1261  1.7685
 9584TIP3   OH250242   2.858   5.114  15.919  0.9116  0.2965 -0.2708
 9584TIP3    H150243   2.862   5.042  15.856 -0.6580 -1.2454  1.2458
 9584TIP3    H250244   2.819   5.187  15.871 -0.7044 -0.9946 -1.0049
 9585TIP3   OH250245   3.186   3.049  14.429 -0.3817 -0.1626 -0.1418
 9585TIP3    H150246   3.194   3.062  14.524 -0.4279  1.1445 -0.3017
 9585TIP3    H250247   3.263   2.998  14.406  0.0480  0.1828  0.4892
 9586TIP3   OH250248   5.253   4.560   1.373  0.0482  0.2841  0.9656
 9586TIP3    H150249   5.196   4.615   1.427  0.1119  0.7306  0.5938
 9586TIP3    H250250   5.335   4.610   1.365  0.0746  0.1846  0.5446
 9587TIP3   OH250251   2.225   1.634  14.837  0.1652 -0.7519 -0.8128
 9587TIP3    H150252   2.214   1.570  14.766  1.6271 -0.3894 -1.3924
 9587TIP3    H250253   2.303   1.683  14.813 -0.8053  1.1356 -0.2596
 9588TIP3   OH250254   3.975   2.610  10.766 -0.3101 -0.1024 -0.1654
 9588TIP3    H150255   4.063   2.639  10.790 -0.2985 -0.3731  0.1175
 9588TIP3    H250256   3.949   2.550  10.836 -1.0673  0.6493  0.2220
 9589TIP3   OH250257   3.910   1.076   4.813  0.2730 -0.3870  0.5264
 9589TIP3    H150258   4.004   1.087   4.825  0.7409 -1.3233 -1.7132
 9589TIP3    H250259   3.890   1.120   4.731 -1.2995 -0.0654  1.0344
 9590TIP3   OH250260   0.168   1.061  13.263 -0.2063  0.8347 -0.1295
 9590TIP3    H150261   0.128   1.112  13.333 -2.0488 -2.6857  1.6182
 9590TIP3    H250262   0.243   1.019  13.303  1.4097  2.1489 -1.5943
 9591TIP3   OH250263   6.118   4.280   1.512  0.0766  0.3247 -0.1217
 9591TIP3    H150264   6.127   4.208   1.450 -0.3854  1.4762 -1.5703
 9591TIP3    H250265   6.198   4.331   1.503 -0.1959  0.7615 -0.1362
 9592TIP3   OH250266   4.606   3.172  11.824 -0.4433 -0.1661  0.1493
 9592TIP3    H150267   4.685   3.180  11.877  0.6037  2.1347 -1.5788
 9592TIP3    H250268   4.605   3.081  11.794  2.0336 -0.0620 -0.4495
 9593TIP3   OH250269   4.058   4.185   0.959 -0.3127 -0.0061 -0.6541
 9593TIP3    H150270   4.033   4.275   0.978  1.2604  0.3471 -0.0579
 9593TIP3    H250271   3.985   4.132   0.989 -1.5252  1.0917 -1.5649
 9594TIP3   OH250272   1.580   4.350   5.502  0.2215  0.5369 -0.1256
 9594TIP3    H150273   1.598   4.256   5.504  1.8358  0.8262  1.0677
 9594TIP3    H250274   1.510   4.359   5.438  0.3768 -1.4236 -0.6553
 9595TIP3   OH250275   0.451   3.157   2.057 -0.0494  0.6030 -0.6024
 9595TIP3    H150276   0.509   3.210   2.002  0.1811  0.7335 -0.2360
 9595TIP3    H250277   0.488   3.069   2.053 -0.4775  0.4433 -1.2750
 9596TIP3   OH250278   4.837   1.865  16.027 -0.5326 -0.1503  0.3927
 9596TIP3    H150279   4.808   1.774  16.022 -1.0756 -0.0061  0.7386
 9596TIP3    H250280   4.761   1.916  15.999  0.0463  0.1707 -0.6295
 9597TIP3   OH250281   0.423   4.272   4.244 -0.1688  0.0391 -0.2905
 9597TIP3    H150282   0.393   4.334   4.178  0.4152  0.2581 -0.3528
 9597TIP3    H250283   0.348   4.260   4.302  0.1429  1.9102  0.5644
 9598TIP3   OH250284   6.565   4.586   2.214  0.1191 -0.1646  0.7282
 9598TIP3    H150285   6.654   4.598   2.247  1.7039  1.7994 -3.4879
 9598TIP3    H250286   6.573   4.519   2.146 -1.8586 -0.6607  0.9253
 9599TIP3   OH250287   3.223   0.658  12.480 -0.3293  0.1100  0.7200
 9599TIP3    H150288   3.210   0.744  12.520  0.6661  0.0696  1.1510
 9599TIP3    H250289   3.277   0.610  12.543  1.2478  0.0333 -0.6195
 9600TIP3   OH250290   1.969   6.125   1.585 -0.4201 -0.5120  0.3044
 9600TIP3    H150291   2.043   6.065   1.592 -0.4813 -1.0168 -2.3520
 9600TIP3    H250292   1.997   6.189   1.520 -1.4861  0.6087  0.9284
 9601TIP3   OH250293   4.271   2.381  13.712  0.0675  0.0818 -0.1558
 9601TIP3    H150294   4.219   2.438  13.768  1.2531 -0.1241  1.2227
 9601TIP3    H250295   4.299   2.437  13.639 -1.2946  0.4195 -0.4417
 9602TIP3   OH250296   5.640   3.522  12.562 -0.1103 -0.5701  0.4866
 9602TIP3    H150297   5.544   3.523  12.562 -0.1119  0.7287 -0.0020
 9602TIP3    H250298   5.664   3.532  12.654 -0.4516 -0.2563  0.5460
 9603TIP3   OH250299   5.147   4.764   4.389  0.4566 -0.8968 -0.2481
 9603TIP3    H150300   5.166   4.743   4.298  1.0072 -0.7315 -0.1753
 9603TIP3    H250301   5.055   4.740   4.401  0.3272 -0.7343 -0.8968
 9604TIP3   OH250302   0.684   3.131  14.260 -0.4886 -0.1845  0.0101
 9604TIP3    H150303   0.774   3.149  14.236  0.5718 -1.0207  2.9315
 9604TIP3    H250304   0.664   3.046  14.220  0.6300 -0.7936  0.7117
 9605TIP3   OH250305   0.154   3.014  13.041 -0.0018 -0.1648  0.0941
 9605TIP3    H150306   0.092   3.052  12.979  1.2282  1.8089 -0.0128
 9605TIP3    H250307   0.176   3.086  13.100  1.4586 -1.0645  0.7002
 9606TIP3   OH250308   3.605   3.810  13.593  0.2617 -0.1987  0.0915
 9606TIP3    H150309   3.610   3.905  13.582  1.6570 -0.3090 -0.4650
 9606TIP3    H250310   3.512   3.792  13.606  0.1650  1.4339  2.1748
 9607TIP3   OH250311   4.770   2.955  12.476 -0.0158 -0.2689 -0.4173
 9607TIP3    H150312   4.747   3.044  12.504 -0.0996 -0.5164  0.3239
 9607TIP3    H250313   4.853   2.965  12.430  1.1255 -0.0740  1.5684
 9608TIP3   OH250314   6.714   0.040  17.135 -0.4748 -0.0112 -0.2557
 9608TIP3    H150315   6.724   0.051  17.040 -0.7002  0.8773 -0.1824
 9608TIP3    H250316   6.654   0.110  17.161  0.7609  0.7201  0.7698
 9609TIP3   OH250317   6.506   5.086  11.387  0.0818 -0.1820 -0.1533
 9609TIP3    H150318   6.459   5.126  11.460 -0.0696  1.2021 -0.9615
 9609TIP3    H250319   6.565   5.154  11.356  2.3462 -1.7232  0.5284
 9610TIP3   OH250320   5.057   5.019  13.232 -0.0722 -0.2325  0.2511
 9610TIP3    H150321   5.116   5.015  13.307  0.5218  1.7286 -0.0420
 9610TIP3    H250322   5.047   5.113  13.215 -1.6431 -0.5836 -1.0036
 9611TIP3   OH250323   2.325   4.778  10.693 -0.1972 -0.1603 -0.4644
 9611TIP3    H150324   2.367   4.853  10.736 -0.2763 -0.0068 -0.6533
 9611TIP3    H250325   2.236   4.809  10.675  0.3114  0.3809 -2.2588
 9612TIP3   OH250326   1.044   3.249  15.228 -0.5810 -0.0086 -0.3175
 9612TIP3    H150327   0.956   3.283  15.241 -1.0772 -1.3897  0.1590
 9612TIP3    H250328   1.041   3.160  15.264  1.1762  0.1288  0.2536
 9613TIP3   OH250329   2.077   5.305  11.795 -0.6378  0.1518  0.1142
 9613TIP3    H150330   2.088   5.240  11.726 -2.8593 -1.4354  1.1187
 9613TIP3    H250331   2.166   5.330  11.819  0.3212 -2.3397 -0.5175
 9614TIP3   OH250332   0.016   2.035   2.300 -0.1989  0.7775 -0.6446
 9614TIP3    H150333  -0.011   1.999   2.384 -1.4360 -1.8477 -2.0417
 9614TIP3    H250334  -0.007   2.128   2.305 -0.0609  0.7554  1.9247
 9615TIP3   OH250335   3.832   2.308   2.714  0.0880  0.0851  0.0720
 9615TIP3    H150336   3.866   2.258   2.788 -0.5598 -0.9153 -0.2826
 9615TIP3    H250337   3.745   2.270   2.698  1.4799 -2.0755 -3.3418
 9616TIP3   OH250338   4.759   5.174  13.971 -0.0283  1.0902 -0.1875
 9616TIP3    H150339   4.800   5.188  13.885 -0.2562 -0.5991 -0.5944
 9616TIP3    H250340   4.826   5.204  14.033  1.2154 -0.0931 -0.8864
 9617TIP3   OH250341   3.638   4.266   1.753  0.5002 -0.2913 -0.3276
 9617TIP3    H150342   3.675   4.294   1.669  0.7715  0.3191 -0.0111
 9617TIP3    H250343   3.669   4.331   1.816 -0.7960  0.0212  0.0135
 9618TIP3   OH250344   1.636   1.701  12.400  0.2009 -0.4237 -0.2776
 9618TIP3    H150345   1.562   1.671  12.453 -1.8518  1.6513 -1.7374
 9618TIP3    H250346   1.620   1.663  12.313 -0.0595  1.2294 -0.9986
 9619TIP3   OH250347   4.866   4.767   4.376  0.0014  0.6630  0.1958
 9619TIP3    H150348   4.790   4.736   4.327  1.6109  0.8946 -2.6126
 9619TIP3    H250349   4.832   4.841   4.427 -1.2719  2.3002 -2.7630
 9620TIP3   OH250350   0.869   6.765  11.981  0.2310  0.4354 -0.4182
 9620TIP3    H150351   0.925   6.726  12.047 -0.2951 -0.3807 -0.4444
 9620TIP3    H250352   0.925   6.775  11.904  0.7659  1.1208  0.0364
 9621TIP3   OH250353   0.622   1.708  14.984  0.4536 -0.0164 -0.1476
 9621TIP3    H150354   0.714   1.733  14.977  0.1909  1.0087 -0.0985
 9621TIP3    H250355   0.576   1.773  14.932 -0.5451  1.4729  2.4401
 9622TIP3   OH250356   1.010   6.391   2.866 -0.2067  0.1535  0.2993
 9622TIP3    H150357   1.097   6.411   2.832  0.6604 -1.6520  1.3315
 9622TIP3    H250358   1.002   6.445   2.944  0.1272  0.0769  0.3871
 9623TIP3   OH250359   4.510   4.411  12.246 -0.2246  0.0481 -0.5029
 9623TIP3    H150360   4.517   4.345  12.315  0.4931 -1.0902 -1.6365
 9623TIP3    H250361   4.416   4.430  12.242 -0.2826  0.1615  0.7831
 9624TIP3   OH250362   2.567   5.781   5.690  0.0714  0.3536  0.3299
 9624TIP3    H150363   2.543   5.771   5.782  0.2281 -0.8614  0.2623
 9624TIP3    H250364   2.612   5.699   5.669  1.3758  1.2301 -0.4244
 9625TIP3   OH250365   4.568   6.833   4.658  0.0689 -0.2181  0.6428
 9625TIP3    H150366   4.557   6.796   4.571  0.6330  0.6271  0.1970
 9625TIP3    H250367   4.663   6.830   4.673 -0.0272 -0.3855  1.2441
 9626TIP3   OH250368   1.860   4.579   6.074  0.4532  0.3398 -0.2319
 9626TIP3    H150369   1.847   4.667   6.109  1.4148  0.8709 -1.1739
 9626TIP3    H250370   1.800   4.573   6.000  2.8856  1.5584 -2.4387
 9627TIP3   OH250371   5.059   6.034  10.788 -0.2136 -0.4901  0.6349
 9627TIP3    H150372   5.093   6.113  10.829 -0.1621  0.2890 -0.8521
 9627TIP3    H250373   4.981   6.012  10.838 -0.8709  1.1619  0.3755
 9628TIP3   OH250374   4.777   3.404   4.912 -0.0408  0.3618 -0.2316
 9628TIP3    H150375   4.707   3.437   4.968 -0.1519  1.8976 -1.2067
 9628TIP3    H250376   4.753   3.313   4.894 -0.2918 -0.0021  1.7040
 9629TIP3   OH250377   6.357   4.722  13.136 -0.1771 -0.3523 -0.0178
 9629TIP3    H150378   6.403   4.806  13.143 -1.5521  0.4144  0.2439
 9629TIP3    H250379   6.424   4.656  13.154  0.5346  0.7640  1.7161
 9630TIP3   OH250380   5.309   0.726  16.471 -0.4699 -0.0481  0.0394
 9630TIP3    H150381   5.253   0.655  16.501 -0.1923  0.5673  2.1797
 9630TIP3    H250382   5.395   0.685  16.459 -0.3235 -0.1120  1.2069
 9631TIP3   OH250383   5.997   5.719   5.281 -0.8960 -0.2242  0.2157
 9631TIP3    H150384   5.987   5.686   5.192  1.1783  1.8174 -0.8732
 9631TIP3    H250385   6.011   5.640   5.334 -1.6080 -1.4454 -1.3238
 9632TIP3   OH250386   2.116   1.540  13.585 -0.2620 -0.3106  0.3723
 9632TIP3    H150387   2.200   1.565  13.546 -0.4206  0.6505  0.6039
 9632TIP3    H250388   2.080   1.623  13.616 -1.5181 -0.6410 -0.1535
 9633TIP3   OH250389   0.886   0.235  14.491  0.8788  0.2893 -0.3634
 9633TIP3    H150390   0.844   0.261  14.573 -0.2439 -1.7593 -0.2422
 9633TIP3    H250391   0.854   0.299  14.427  1.9171  2.0303  0.7573
 9634TIP3   OH250392   3.459   1.653   1.424  0.0170  0.1369  0.3316
 9634TIP3    H150393   3.547   1.617   1.410  0.0156  0.9231 -2.2425
 9634TIP3    H250394   3.401   1.591   1.380 -0.4449  0.9494 -0.2265
 9635TIP3   OH250395   2.214   1.008   6.364 -0.1841  0.3280  0.0378
 9635TIP3    H150396   2.260   1.076   6.314 -0.3840  0.9355  0.6640
 9635TIP3    H250397   2.189   1.051   6.445  0.0770 -0.6208  0.6428
 9636TIP3   OH250398   0.388   5.905   5.049 -0.3718  0.0966  0.1264
 9636TIP3    H150399   0.380   5.842   5.121 -0.3973  0.8422  0.7878
 9636TIP3    H250400   0.337   5.867   4.978 -0.5860 -0.5126  0.5990
 9637TIP3   OH250401   6.242   0.195  12.161  0.5817  0.1764 -0.7592
 9637TIP3    H150402   6.240   0.207  12.256 -0.1821 -1.0481 -0.5886
 9637TIP3    H250403   6.306   0.258  12.130  1.9910 -0.4321  0.7400
 9638TIP3   OH250404   5.960   0.584  13.868  0.2766 -0.2108  0.5279
 9638TIP3    H150405   5.908   0.556  13.943  0.3076 -0.7984  0.3382
 9638TIP3    H250406   5.898   0.585  13.795 -0.4190  2.9861  1.0269
 9639TIP3   OH250407   5.614   2.173  11.370  0.2497 -0.9607  0.0357
 9639TIP3    H150408   5.637   2.123  11.291  0.9817  2.3174 -2.0426
 9639TIP3    H250409   5.547   2.235  11.340  0.5332  0.3701  1.9931
 9640TIP3   OH250410   5.862   4.057  14.933 -0.2875  0.1255 -0.4344
 9640TIP3    H150411   5.771   4.028  14.926  0.2441 -1.4652 -1.3560
 9640TIP3    H250412   5.864   4.143  14.891 -1.6625  0.9585  1.0967
 9641TIP3   OH250413   4.184   0.815  12.108 -0.0321  0.3846 -0.0364
 9641TIP3    H150414   4.218   0.805  12.018  0.9524  1.0975  0.2422
 9641TIP3    H250415   4.195   0.908  12.127 -0.6280  0.3081  0.6804
 9642TIP3   OH250416   3.849   5.890  14.972 -0.4770  0.1961 -0.5744
 9642TIP3    H150417   3.878   5.812  15.019  1.1869 -0.1224 -2.0438
 9642TIP3    H250418   3.844   5.863  14.881  0.9464  1.9796 -1.2446
 9643TIP3   OH250419   0.501   5.268  12.098 -0.2269  0.5350 -0.2575
 9643TIP3    H150420   0.541   5.222  12.172  0.6054  0.1442 -0.9357
 9643TIP3    H250421   0.562   5.255  12.026 -0.8847  1.1624 -0.9439
 9644TIP3   OH250422   1.760   2.097   5.154  0.3626 -0.1664 -0.0387
 9644TIP3    H150423   1.698   2.028   5.177  0.3437 -0.2506 -0.3458
 9644TIP3    H250424   1.836   2.051   5.119  0.5731 -0.0596  0.2742
 9645TIP3   OH250425   5.005   5.545   0.729  0.3843 -0.5225  0.9095
 9645TIP3    H150426   4.919   5.522   0.766 -0.2120 -1.0267 -0.7001
 9645TIP3    H250427   4.999   5.519   0.637  0.4749  3.8652 -0.6071
 9646TIP3   OH250428   4.615   0.905   1.520 -0.3418  0.5519 -0.2543
 9646TIP3    H150429   4.671   0.879   1.447 -0.2223 -1.4620  0.4744
 9646TIP3    H250430   4.592   0.822   1.563 -0.0759  1.6589  2.2106
 9647TIP3   OH250431   4.720   0.487  12.219 -0.3970  0.3011 -0.2731
 9647TIP3    H150432   4.678   0.569  12.246 -1.2198 -0.2349  0.1247
 9647TIP3    H250433   4.647   0.428  12.201  0.1863 -0.4303 -0.2881
 9648TIP3   OH250434   0.484   6.047  11.342 -0.2029 -0.2640  0.3922
 9648TIP3    H150435   0.404   6.029  11.293 -0.0539 -2.8192  0.9539
 9648TIP3    H250436   0.555   6.022  11.282  0.1120 -0.1094  0.6979
 9649TIP3   OH250437   2.010   0.876  13.703 -0.2699  0.2716 -0.0208
 9649TIP3    H150438   1.952   0.801  13.708  0.8763 -0.6919 -0.5361
 9649TIP3    H250439   2.098   0.840  13.717  0.2042  1.7031  0.9709
 9650TIP3   OH250440   5.245   3.513  13.266  0.4858 -0.2223 -0.1736
 9650TIP3    H150441   5.300   3.528  13.344 -1.9749 -0.1957  1.6661
 9650TIP3    H250442   5.212   3.600  13.244  0.1786 -0.4202 -0.4897
 9651TIP3   OH250443   6.257   3.428   0.713 -0.0247  0.6205 -0.1481
 9651TIP3    H150444   6.273   3.523   0.717  2.6177  0.2881 -1.0503
 9651TIP3    H250445   6.337   3.389   0.747 -1.3165 -1.3362  0.7860
 9652TIP3   OH250446   1.117   5.179  13.666  0.1637 -0.3870  0.2390
 9652TIP3    H150447   1.080   5.183  13.578 -1.1294 -0.2337  0.7713
 9652TIP3    H250448   1.187   5.244  13.665 -0.7370  0.6059 -0.2736
 9653TIP3   OH250449   6.755   0.118  16.845 -0.2390  0.4513  0.1071
 9653TIP3    H150450   6.688   0.187  16.848  1.6179  2.3523  0.0656
 9653TIP3    H250451   6.833   0.161  16.811  1.3942 -1.3589  1.3194
 9654TIP3   OH250452   0.420   6.225  13.367 -0.2316 -0.0477 -0.3496
 9654TIP3    H150453   0.409   6.151  13.426  0.2177 -0.7331 -1.0989
 9654TIP3    H250454   0.514   6.241  13.366 -0.1816 -0.3585 -1.2438
 9655TIP3   OH250455   0.617   2.745  13.124  0.1793  0.4079  0.2135
 9655TIP3    H150456   0.536   2.740  13.073  0.6386 -1.0167 -0.4259
 9655TIP3    H250457   0.620   2.664  13.174 -0.2288  1.7527  2.5664
 9656TIP3   OH250458   5.351   2.367  16.287  0.5794 -0.5900 -0.4171
 9656TIP3    H150459   5.274   2.374  16.344  0.5951 -0.6064 -0.3937
 9656TIP3    H250460   5.366   2.273  16.279 -0.9918 -0.7319 -2.5871
 9657TIP3   OH250461   0.744   0.180  15.094  0.1193  0.4840  0.1560
 9657TIP3    H150462   0.732   0.099  15.044  0.3793  1.2871 -1.2467
 9657TIP3    H250463   0.666   0.232  15.076 -0.2707  0.3728  1.4353
 9658TIP3   OH250464   2.969   4.044  16.760  0.5157  0.2344 -0.1485
 9658TIP3    H150465   2.951   4.004  16.845 -0.2882  0.9861  0.0375
 9658TIP3    H250466   3.047   4.097  16.774  2.2450 -2.0166 -0.6477
 9659TIP3   OH250467   5.012   1.957   2.097  0.2088 -0.5502 -0.1006
 9659TIP3    H150468   4.920   1.935   2.111  0.4126 -1.5370 -0.2619
 9659TIP3    H250469   5.056   1.929   2.177  0.1766  1.2193  0.5738
 9660TIP3   OH250470   1.389   4.199  11.368 -0.2176 -0.2721 -0.0423
 9660TIP3    H150471   1.394   4.108  11.398 -4.3243 -0.2686  1.2600
 9660TIP3    H250472   1.374   4.192  11.274  1.2456 -0.8305 -0.2526
 9661TIP3   OH250473   1.261   3.844   1.582 -0.2694 -0.0477 -0.6968
 9661TIP3    H150474   1.219   3.898   1.515 -1.0039  0.0144 -0.1911
 9661TIP3    H250475   1.345   3.819   1.543 -0.0030  1.2690 -1.0229
 9662TIP3   OH250476   0.145   2.876   5.583  0.9142  0.2332 -0.3312
 9662TIP3    H150477   0.214   2.926   5.626  0.3164  1.1617 -0.4228
 9662TIP3    H250478   0.179   2.859   5.495  0.3690  2.1453 -0.9435
 9663TIP3   OH250479   4.989   4.004  13.251 -0.1222 -0.4744 -0.0507
 9663TIP3    H150480   5.031   4.090  13.246  0.8448 -0.9138  0.4645
 9663TIP3    H250481   4.919   4.009  13.185 -0.4497  0.9027  0.3632
 9664TIP3   OH250482   0.620   5.473   0.056 -0.5212 -0.3539  0.1921
 9664TIP3    H150483   0.559   5.542   0.080  0.4436  0.3986  0.5830
 9664TIP3    H250484   0.669   5.455   0.137 -1.1489 -1.9379  0.2641
 9665TIP3   OH250485   5.896   0.872   1.282 -0.1640  0.0943 -0.3646
 9665TIP3    H150486   5.865   0.781   1.283 -1.0464  0.3847 -0.2633
 9665TIP3    H250487   5.973   0.871   1.225  0.5432 -0.9364  0.5723
 9666TIP3   OH250488   3.884   5.987   1.755 -0.4105  0.0665  0.0535
 9666TIP3    H150489   3.857   6.079   1.753 -0.7797 -0.0416 -1.0498
 9666TIP3    H250490   3.979   5.989   1.745 -0.3952  0.3365  0.2547
 9667TIP3   OH250491   2.896   3.327  14.144  0.2051 -0.5841  0.0838
 9667TIP3    H150492   2.806   3.315  14.174  0.3178 -0.0236  0.6569
 9667TIP3    H250493   2.938   3.380  14.211  0.7552 -0.1910 -0.5509
 9668TIP3   OH250494   0.034   5.039  16.592 -0.1979  0.2037  0.3414
 9668TIP3    H150495   0.005   5.112  16.647 -0.9157 -1.0584  1.7176
 9668TIP3    H250496   0.043   4.966  16.653  1.7884 -0.5555 -0.7726
 9669TIP3   OH250497   3.104   4.688   6.125 -0.2008  0.6054  0.7134
 9669TIP3    H150498   3.195   4.707   6.100 -0.7538  0.3283 -1.7472
 9669TIP3    H250499   3.055   4.766   6.098 -0.8398  0.3187  1.0357
 9670TIP3   OH250500   4.452   3.410   4.305 -0.0417  0.2142 -0.2107
 9670TIP3    H150501   4.474   3.461   4.226  0.8081  1.0863  0.5695
 9670TIP3    H250502   4.368   3.447   4.333 -0.2805 -0.0055 -0.6318
 9671TIP3   OH250503   1.695   1.320   6.707  0.1052 -0.5385  0.3893
 9671TIP3    H150504   1.650   1.343   6.789 -0.8677 -0.1946 -0.2292
 9671TIP3    H250505   1.625   1.309   6.643  0.8790 -0.3320 -0.5153
 9672TIP3   OH250506   0.896   6.360  16.289  0.2513  0.2251 -0.1346
 9672TIP3    H150507   0.834   6.370  16.362  0.2907  1.5817 -0.2604
 9672TIP3    H250508   0.959   6.296  16.320 -0.9476 -0.8344  0.1850
 9673TIP3   OH250509   4.240   5.643   5.124 -0.0591 -0.2041 -0.2578
 9673TIP3    H150510   4.230   5.585   5.199 -1.6973 -1.6215 -1.4867
 9673TIP3    H250511   4.307   5.706   5.151 -1.1915 -0.0995  2.7024
 9674TIP3   OH250512   3.554   0.022  12.383  0.7196 -0.2268 -0.4416
 9674TIP3    H150513   3.536   0.086  12.314 -3.0608 -1.8528 -1.2721
 9674TIP3    H250514   3.532  -0.062  12.342  1.2337 -1.5853  1.9134
 9675TIP3   OH250515   2.965   4.911  15.499 -0.5337 -0.4688 -0.2039
 9675TIP3    H150516   3.022   4.987  15.513 -0.0615 -1.0308  1.0344
 9675TIP3    H250517   3.022   4.847  15.455 -0.1288 -1.0947  1.1868
 9676TIP3   OH250518   5.807   2.011  16.678  0.3022  0.1804 -0.0873
 9676TIP3    H150519   5.723   1.966  16.684  0.5580 -0.2065  0.8527
 9676TIP3    H250520   5.783   2.104  16.677 -0.1771  0.0625 -0.9996
 9677TIP3   OH250521   6.418   6.222   4.043 -0.7480 -0.4102 -0.1364
 9677TIP3    H150522   6.437   6.181   4.127 -0.7879 -1.5519 -0.6569
 9677TIP3    H250523   6.422   6.316   4.060  0.8521 -0.6115  0.7813
 9678TIP3   OH250524   0.001   6.432   4.938  0.1226 -0.0019 -0.4601
 9678TIP3    H150525  -0.039   6.519   4.940  2.3417  1.1007 -0.6266
 9678TIP3    H250526  -0.045   6.386   4.868 -3.3655 -0.2451  1.7645
 9679TIP3   OH250527   4.089   5.409   1.624 -0.6807  0.3430 -0.1306
 9679TIP3    H150528   4.111   5.409   1.530 -0.5840  0.3715 -0.1088
 9679TIP3    H250529   4.000   5.444   1.628 -0.6193  0.5076 -0.1989
 9680TIP3   OH250530   2.380   6.580   2.530 -0.0847 -0.3561 -0.4017
 9680TIP3    H150531   2.289   6.575   2.500  0.4928 -0.3408 -2.2381
 9680TIP3    H250532   2.414   6.660   2.490  0.8067 -0.4695  0.1077
 9681TIP3   OH250533   4.721   1.445  16.423  0.0900  0.4868 -1.0306
 9681TIP3    H150534   4.726   1.537  16.395  0.9903  0.4664 -0.9729
 9681TIP3    H250535   4.759   1.445  16.511 -0.8376  0.2134 -0.6225
 9682TIP3   OH250536   2.797   0.906  13.939  0.0198 -0.0593 -0.5035
 9682TIP3    H150537   2.799   0.855  14.021 -1.8153 -0.2068 -0.5065
 9682TIP3    H250538   2.822   0.843  13.872 -0.7358 -0.5704 -0.3196
 9683TIP3   OH250539   4.052   3.906   5.796  0.3212  0.0347  0.1390
 9683TIP3    H150540   4.053   3.977   5.860 -0.5837 -0.7669  1.0823
 9683TIP3    H250541   4.100   3.835   5.839  1.0605 -0.0014 -0.7199
 9684TIP3   OH250542   1.103   3.785   4.912 -0.2292  0.0853 -0.2403
 9684TIP3    H150543   1.184   3.736   4.903 -1.7603 -2.4242 -1.4623
 9684TIP3    H250544   1.062   3.749   4.991 -0.0707  1.5874  0.5764
 9685TIP3   OH250545   1.840   6.402  10.734 -0.1310 -0.9365  0.0609
 9685TIP3    H150546   1.802   6.418  10.647 -1.6157 -2.8404  0.2936
 9685TIP3    H250547   1.829   6.308  10.748  1.1315 -0.8674  1.8551
 9686TIP3   OH250548   5.735   4.368  12.059  0.1643 -0.1188  0.1392
 9686TIP3    H150549   5.791   4.443  12.039 -0.3536  0.1492 -0.3684
 9686TIP3    H250550   5.646   4.405  12.061 -0.4520 -1.1682 -2.9877
 9687TIP3   OH250551   1.011   6.439   5.374  0.0723  0.0654  0.0377
 9687TIP3    H150552   0.925   6.440   5.416 -0.4696  1.5126 -1.0312
 9687TIP3    H250553   1.024   6.348   5.348 -1.1719 -0.1543  0.1233
 9688TIP3   OH250554   1.134   1.536  12.863 -0.5062 -0.4367  0.2995
 9688TIP3    H150555   1.183   1.493  12.793  0.3930  1.2090 -0.1485
 9688TIP3    H250556   1.048   1.495  12.862 -1.2242  0.8850 -3.1629
 9689TIP3   OH250557   4.366   2.579  11.867 -0.2530  0.0456  0.1185
 9689TIP3    H150558   4.429   2.648  11.890 -3.1012  1.7748  3.9527
 9689TIP3    H250559   4.410   2.498  11.893  0.2551  1.2567  3.7003
 9690TIP3   OH250560   0.570   2.227   2.191  0.4161  0.1437  0.2573
 9690TIP3    H150561   0.649   2.203   2.238  0.6027 -3.4716 -1.5885
 9690TIP3    H250562   0.587   2.202   2.100 -2.5537 -0.0288 -0.3558
 9691TIP3   OH250563   6.719   1.358   5.463  0.1845  0.0997  0.1335
 9691TIP3    H150564   6.692   1.279   5.511 -0.7049 -0.1092 -0.6927
 9691TIP3    H250565   6.744   1.325   5.376 -0.0067  0.7106 -0.1528
 9692TIP3   OH250566   4.669   2.484   5.217  0.7018  0.2549 -0.3141
 9692TIP3    H150567   4.609   2.508   5.147  0.4388 -0.3580 -0.3054
 9692TIP3    H250568   4.701   2.397   5.193  0.7552  0.1194  0.2270
 9693TIP3   OH250569   0.340   4.964   5.839  0.1364 -0.5840 -0.0189
 9693TIP3    H150570   0.328   4.986   5.932  2.2465  0.2118  0.1008
 9693TIP3    H250571   0.329   4.869   5.836 -1.2187 -0.4785  0.8111
 9694TIP3   OH250572   2.874   2.104  16.222 -0.5134  0.0806 -0.2516
 9694TIP3    H150573   2.879   2.191  16.261  1.7871 -0.9188  1.9559
 9694TIP3    H250574   2.806   2.059  16.271  0.4145 -0.2790  0.7423
 9695TIP3   OH250575   2.771   0.950  12.213 -0.4261  0.5277 -0.6304
 9695TIP3    H150576   2.806   0.950  12.302  0.6145 -0.4666 -1.0225
 9695TIP3    H250577   2.676   0.942  12.225 -0.2357 -0.4900  0.3785
 9696TIP3   OH250578   1.340   3.506   3.781  0.0307  0.2636  0.0836
 9696TIP3    H150579   1.270   3.489   3.718 -0.6389 -1.2207  1.1539
 9696TIP3    H250580   1.402   3.434   3.768  1.0875  1.2313 -0.4409
 9697TIP3   OH250581   3.882   1.812  13.973  0.3187 -0.0668  0.0870
 9697TIP3    H150582   3.898   1.839  13.882 -0.2303 -2.0138 -0.6362
 9697TIP3    H250583   3.955   1.753  13.993 -0.1320 -0.4669  0.5464
 9698TIP3   OH250584   2.368   4.915  12.669 -0.1279  0.4078 -0.5749
 9698TIP3    H150585   2.443   4.974  12.658  2.0446 -2.1527 -0.5029
 9698TIP3    H250586   2.374   4.884  12.759 -0.4139 -0.8987 -0.9855
 9699TIP3   OH250587   5.233   3.827  10.736  1.0609 -0.0799  0.1641
 9699TIP3    H150588   5.219   3.762  10.668 -1.6399 -0.2914  0.8381
 9699TIP3    H250589   5.195   3.789  10.815  0.0079  1.9776  0.7241
 9700TIP3   OH250590   1.159   5.037  14.330 -0.5207  0.4976 -0.5354
 9700TIP3    H150591   1.128   5.077  14.411 -1.0275 -1.5594  0.3510
 9700TIP3    H250592   1.206   5.107  14.285 -0.3987  1.7488  1.4234
 9701TIP3   OH250593   6.072   0.833   3.518  0.1140  0.5272  0.2270
 9701TIP3    H150594   6.116   0.918   3.522  0.2134  0.4423  2.3822
 9701TIP3    H250595   6.033   0.823   3.605  1.1596 -2.1947  0.4545
 9702TIP3   OH250596   5.538   3.874  12.669  0.0754  0.1198  0.1559
 9702TIP3    H150597   5.595   3.950  12.683  0.8057 -0.5634  1.0194
 9702TIP3    H250598   5.530   3.834  12.755 -0.4516 -0.6793 -0.2549
 9703TIP3   OH250599   6.659   2.954  14.627 -0.3464 -0.4394  0.0736
 9703TIP3    H150600   6.577   2.998  14.649  0.8249  1.0425  1.8185
 9703TIP3    H250601   6.725   3.023  14.630  1.3940 -2.0439  1.6042
 9704TIP3   OH250602   0.331   1.963   1.233  0.3429 -0.0627  0.2490
 9704TIP3    H150603   0.354   1.949   1.324  1.0607  0.5561  0.1696
 9704TIP3    H250604   0.374   2.045   1.209 -0.3826  0.1237 -0.4557
 9705TIP3   OH250605   1.666   0.011   1.021 -0.2535  0.2139  0.7687
 9705TIP3    H150606   1.611   0.089   1.015 -0.9891 -0.3833 -0.8448
 9705TIP3    H250607   1.755   0.044   1.011 -0.6112  0.8016 -1.0121
 9706TIP3   OH250608   2.396   6.185   2.619  0.4574  0.2740 -0.5520
 9706TIP3    H150609   2.426   6.153   2.704  0.1160  1.8635  0.2038
 9706TIP3    H250610   2.476   6.191   2.567  1.2035  2.2233  0.6911
 9707TIP3   OH250611   3.638   3.045   5.126  0.5196  0.4571  0.3676
 9707TIP3    H150612   3.591   2.962   5.124  2.6541 -0.8153  0.5287
 9707TIP3    H250613   3.573   3.110   5.098 -0.7212 -1.4868 -1.6027
 9708TIP3   OH250614   2.650   5.523   4.906 -0.2738  0.2604  0.8138
 9708TIP3    H150615   2.648   5.465   4.830 -0.5428  1.2450  0.0445
 9708TIP3    H250616   2.663   5.464   4.981  0.5821 -0.6855 -0.0361
 9709TIP3   OH250617   3.989   2.918   0.239 -0.2330  0.0890 -0.4609
 9709TIP3    H150618   4.005   2.953   0.151  0.5066  2.4552  0.5219
 9709TIP3    H250619   3.916   2.857   0.228 -0.3756  0.5836 -2.6591
 9710TIP3   OH250620   3.598   1.538  14.374 -0.4601 -0.1693  0.5162
 9710TIP3    H150621   3.542   1.480  14.426  0.7979 -1.0698  0.9211
 9710TIP3    H250622   3.572   1.626  14.399 -2.1605 -0.5446  0.1759
 9711TIP3   OH250623   4.908   3.036  14.278  0.0414 -0.0012 -0.0687
 9711TIP3    H150624   4.992   3.074  14.255  0.8044 -0.3789  1.9048
 9711TIP3    H250625   4.913   2.945  14.246 -0.3414  0.4420 -1.4829
 9712TIP3   OH250626   0.201   6.291  14.526  0.0333  0.1258  0.2075
 9712TIP3    H150627   0.220   6.292  14.432 -0.5638 -2.7968 -0.0373
 9712TIP3    H250628   0.286   6.288  14.568  0.3064 -1.0056 -0.3793
 9713TIP3   OH250629   5.833   2.687  13.213 -0.5032 -0.0153  0.1883
 9713TIP3    H150630   5.818   2.741  13.135 -1.6316 -1.6335 -0.7626
 9713TIP3    H250631   5.895   2.620  13.184 -1.5096 -1.0850  0.4336
 9714TIP3   OH250632   0.061   3.928   3.643 -0.4358  0.0683 -0.0670
 9714TIP3    H150633   0.019   4.014   3.639 -0.9960 -0.2276 -1.3764
 9714TIP3    H250634   0.045   3.890   3.556 -1.4247 -1.9214  0.9132
 9715TIP3   OH250635   4.674   2.490  16.300  0.1748 -0.6263 -0.0105
 9715TIP3    H150636   4.677   2.577  16.339 -1.0855 -0.2470 -0.7140
 9715TIP3    H250637   4.722   2.500  16.217 -1.5959 -0.0526 -1.0315
 9716TIP3   OH250638   1.823   6.209   6.280  0.1018  0.4053  0.0673
 9716TIP3    H150639   1.879   6.279   6.245  0.6338 -0.9691 -2.0624
 9716TIP3    H250640   1.799   6.238   6.368  2.2985  2.1083  0.1832
 9717TIP3   OH250641   5.071   1.570   4.158 -0.8186 -0.7191  0.3427
 9717TIP3    H150642   5.094   1.494   4.212 -2.4884 -0.8986  0.8566
 9717TIP3    H250643   5.145   1.630   4.168 -0.4000 -1.4168  1.5923
 9718TIP3   OH250644   4.638   2.520  13.835  0.0990 -0.1425 -0.0184
 9718TIP3    H150645   4.620   2.613  13.850 -0.5521 -0.0580 -1.2258
 9718TIP3    H250646   4.661   2.486  13.922 -0.7032  0.9143  0.6361
 9719TIP3   OH250647   1.428   4.954  10.824 -0.4670 -0.0131  0.1775
 9719TIP3    H150648   1.457   4.975  10.735 -1.7252  1.5867  0.1030
 9719TIP3    H250649   1.350   5.007  10.837 -0.4762 -0.4298  2.1535
 9720TIP3   OH250650   4.960   6.664  13.453 -0.6687 -0.0339 -0.2986
 9720TIP3    H150651   5.024   6.593  13.449  0.2853  0.8197 -0.4847
 9720TIP3    H250652   4.984   6.713  13.532 -1.0543  0.3401 -0.4123
 9721TIP3   OH250653   4.217   3.572   5.272  0.4097  0.5293 -0.0123
 9721TIP3    H150654   4.297   3.541   5.229 -0.3621  1.1877 -2.0591
 9721TIP3    H250655   4.247   3.609   5.355  1.9474 -1.1497  0.2427
 9722TIP3   OH250656   2.091   1.952  14.703  0.2327  0.4371 -0.9180
 9722TIP3    H150657   2.172   1.966  14.653  0.1762  0.7383 -0.9247
 9722TIP3    H250658   2.079   2.032  14.753  0.1159  0.2603 -0.6603
 9723TIP3   OH250659   4.677   0.411  16.458 -0.2826 -0.5547 -0.1738
 9723TIP3    H150660   4.620   0.427  16.382  0.6384  1.8135 -0.4514
 9723TIP3    H250661   4.761   0.385  16.420 -0.5021 -1.8325  0.1628
 9724TIP3   OH250662   5.185   2.963   5.072  0.6415  0.2012 -0.1374
 9724TIP3    H150663   5.180   2.871   5.046  0.4906 -0.2620  1.4106
 9724TIP3    H250664   5.124   3.009   5.014  1.8395 -0.4052 -1.9400
 9725TIP3   OH250665   3.189   6.783  13.345  0.2557  0.5520  0.1982
 9725TIP3    H150666   3.105   6.821  13.370 -0.6675  0.6635 -2.6872
 9725TIP3    H250667   3.197   6.704  13.398 -0.8446  1.3835  1.6901
 9726TIP3   OH250668   6.827   3.346   2.050 -0.1931 -0.5100  0.0141
 9726TIP3    H150669   6.805   3.264   2.007  2.5315 -0.9414 -0.7137
 9726TIP3    H250670   6.912   3.331   2.091 -1.5825  0.5973  3.7829
 9727TIP3   OH250671   1.936   5.672   4.172 -0.1841  0.0850 -0.6429
 9727TIP3    H150672   1.918   5.624   4.252 -1.2624  1.6915  0.1496
 9727TIP3    H250673   2.030   5.661   4.157  0.8116  2.3593  2.7120
 9728TIP3   OH250674   5.757   2.827   0.633  0.7012 -0.0864 -0.2940
 9728TIP3    H150675   5.846   2.799   0.613  0.7613 -0.1297  0.0244
 9728TIP3    H250676   5.738   2.895   0.569  1.1294  0.2389 -0.0783
 9729TIP3   OH250677   3.590   4.151   0.193  0.0575  0.1723 -0.2362
 9729TIP3    H150678   3.641   4.104   0.259  0.8212  1.6516  0.2800
 9729TIP3    H250679   3.643   4.146   0.114  1.2140  1.9461  0.3714
 9730TIP3   OH250680   5.757   4.485  17.142  0.1670  0.1187 -0.5838
 9730TIP3    H150681   5.749   4.391  17.156 -0.8434 -0.0937 -2.2774
 9730TIP3    H250682   5.698   4.524  17.207 -1.4055 -0.5834 -1.5298
 9731TIP3   OH250683   0.011   1.978   2.591 -0.5101  0.1656 -0.9259
 9731TIP3    H150684   0.079   2.041   2.616 -1.3368 -0.1896  2.9273
 9731TIP3    H250685   0.059   1.895   2.581 -0.1103  0.2409  0.1605
 9732TIP3   OH250686   6.349   2.509  10.711  0.6140  0.7366  0.0957
 9732TIP3    H150687   6.335   2.416  10.695 -2.8111  1.3095 -1.3393
 9732TIP3    H250688   6.385   2.542  10.629 -0.2832  0.9717 -0.2180
 9733TIP3   OH250689   1.354   6.288   1.948  0.2951 -0.1790  0.1523
 9733TIP3    H150690   1.258   6.287   1.941  0.3391 -0.0737 -0.4674
 9733TIP3    H250691   1.380   6.198   1.928  0.4194  0.1200 -1.0756
 9734TIP3   OH250692   5.725   5.623  15.399 -0.1687 -0.3028 -1.0281
 9734TIP3    H150693   5.644   5.668  15.377  0.1434  0.7890 -0.0139
 9734TIP3    H250694   5.777   5.625  15.318 -1.2787 -1.3808 -1.8125
 9735TIP3   OH250695   1.368   6.762   4.155 -0.2161 -0.1596  0.1341
 9735TIP3    H150696   1.342   6.850   4.184  0.3854  0.7791 -2.0075
 9735TIP3    H250697   1.423   6.777   4.078 -0.1398 -2.4391 -0.3294
 9736TIP3   OH250698   5.785   2.894  11.059 -0.5442  0.2449 -0.2378
 9736TIP3    H150699   5.870   2.866  11.092 -0.9752 -3.0695 -1.5594
 9736TIP3    H250700   5.730   2.900  11.137  0.6990  1.9606  0.5721
 9737TIP3   OH250701   5.476   5.115  13.959  0.0641 -0.1373  0.2682
 9737TIP3    H150702   5.559   5.159  13.939  1.0341 -0.4951  3.1287
 9737TIP3    H250703   5.493   5.022  13.942  1.7463 -0.8322  4.5120
 9738TIP3   OH250704   5.487   2.794   2.948  0.3304 -0.1053 -0.0661
 9738TIP3    H150705   5.430   2.871   2.957  1.8329  1.1184 -0.5509
 9738TIP3    H250706   5.553   2.805   3.015  2.3144  0.6804 -2.0288
 9739TIP3   OH250707   2.449   2.966   0.065  0.1445  0.2172 -0.3234
 9739TIP3    H150708   2.441   2.885   0.116  3.4754 -1.1983 -1.7185
 9739TIP3    H250709   2.396   2.951  -0.012 -0.2480 -0.1224  0.0081
 9740TIP3   OH250710   3.091   0.867   5.693 -0.0185 -0.2361 -0.0655
 9740TIP3    H150711   3.171   0.866   5.745  0.4778 -0.2605 -0.8183
 9740TIP3    H250712   3.021   0.874   5.758  0.5232 -1.3097  0.6693
 9741TIP3   OH250713   4.033   3.712  10.383 -0.2255  0.5017  0.1602
 9741TIP3    H150714   4.096   3.664  10.436 -0.1863 -0.8575 -1.0597
 9741TIP3    H250715   3.950   3.702  10.430 -0.1335 -0.4118  0.1400
 9742TIP3   OH250716   3.793   5.989   4.857 -0.4065  0.5569 -0.3944
 9742TIP3    H150717   3.853   6.061   4.837  2.0835 -1.4160 -0.4760
 9742TIP3    H250718   3.748   5.971   4.774  1.5778 -0.2412 -1.3420
 9743TIP3   OH250719   4.804   5.680  16.642  0.5267 -0.1140 -0.4289
 9743TIP3    H150720   4.853   5.761  16.659 -0.3177  0.3722 -0.2014
 9743TIP3    H250721   4.780   5.686  16.549  1.6690 -0.8024 -0.7903
 9744TIP3   OH250722   4.500   0.488  14.118 -0.2633  0.0073  0.0571
 9744TIP3    H150723   4.421   0.445  14.150 -0.2746 -0.4573 -0.5786
 9744TIP3    H250724   4.506   0.568  14.170 -0.1572 -0.8230  1.3689
 9745TIP3   OH250725   4.012   4.281  14.024 -0.8651  0.2212  0.0718
 9745TIP3    H150726   3.942   4.326  13.978  0.0901 -0.4084 -2.1521
 9745TIP3    H250727   4.092   4.329  14.001 -0.2588 -0.5786  0.4273
 9746TIP3   OH250728   6.051   0.558   4.442 -0.2679  0.4260 -0.3931
 9746TIP3    H150729   6.069   0.466   4.464 -0.6054  0.7042  1.1944
 9746TIP3    H250730   6.129   0.588   4.396 -0.2471 -0.7083 -1.1399
 9747TIP3   OH250731   6.058   0.968  14.283 -0.7186 -0.1718  0.6628
 9747TIP3    H150732   6.086   0.935  14.368  0.0251  0.5585  0.7176
 9747TIP3    H250733   5.968   0.938  14.274 -0.4328 -1.2207  1.2007
 9748TIP3   OH250734   0.047   1.780  12.700 -0.3840  0.3247  0.2943
 9748TIP3    H150735  -0.003   1.834  12.639  0.8620 -1.6888 -2.7232
 9748TIP3    H250736   0.084   1.843  12.763 -1.6070  2.5384 -1.0791
 9749TIP3   OH250737   1.468   0.475   6.370  0.4844 -0.5045 -0.3789
 9749TIP3    H150738   1.405   0.511   6.308 -0.5216  0.0341  0.9281
 9749TIP3    H250739   1.503   0.551   6.416  0.4520 -0.9762  0.4399
 9750TIP3   OH250740   0.683   5.496  16.973  0.0753  0.1459  0.6520
 9750TIP3    H150741   0.667   5.473  17.065 -1.3640 -0.8993  0.1695
 9750TIP3    H250742   0.676   5.413  16.926  1.0282  0.6282 -0.4041
 9751TIP3   OH250743   3.522   0.238  11.887 -0.1041  0.0384 -0.3013
 9751TIP3    H150744   3.574   0.315  11.865 -0.3231 -0.0796 -1.2567
 9751TIP3    H250745   3.497   0.200  11.803 -0.1450 -0.9841  0.1502
 9752TIP3   OH250746   1.292   3.671  15.482  0.8075  0.7797 -0.1803
 9752TIP3    H150747   1.237   3.737  15.442 -0.2677 -0.7826 -1.4160
 9752TIP3    H250748   1.231   3.605  15.515  1.8544  0.0489  0.3827
 9753TIP3   OH250749   1.193   4.974   0.500  0.3027  0.4435 -0.0303
 9753TIP3    H150750   1.142   5.054   0.486  1.5889  1.4894  1.0425
 9753TIP3    H250751   1.136   4.919   0.554 -1.5851 -0.4580 -2.7596
 9754TIP3   OH250752   3.830   4.086   2.853  0.5101  0.0295  0.0477
 9754TIP3    H150753   3.852   4.020   2.787  0.6731 -0.9677  1.0659
 9754TIP3    H250754   3.785   4.037   2.922  1.8983  0.7012  1.4953
 9755TIP3   OH250755   5.598   5.009  16.074 -0.3318  0.0066  1.0778
 9755TIP3    H150756   5.668   4.952  16.044  0.9052  1.6434  0.7000
 9755TIP3    H250757   5.552   5.035  15.994 -0.2063  0.3939  1.1296
 9756TIP3   OH250758   5.563   4.932   2.183 -0.3502 -0.3284  0.0680
 9756TIP3    H150759   5.594   4.922   2.093 -1.2078 -1.2938 -0.1391
 9756TIP3    H250760   5.626   4.883   2.236  1.1172  1.6254  0.2254
 9757TIP3   OH250761   5.562   6.402  16.822 -0.0535 -0.1866 -0.0999
 9757TIP3    H150762   5.621   6.393  16.747  1.0984 -0.7686  0.8494
 9757TIP3    H250763   5.552   6.312  16.855  3.8540  0.4669  3.7037
 9758TIP3   OH250764   3.231   2.598  13.725  0.0909 -0.2485  0.2525
 9758TIP3    H150765   3.214   2.658  13.798  1.6323 -0.3474  0.7292
 9758TIP3    H250766   3.229   2.654  13.647 -1.9673 -0.2119  0.2980
 9759TIP3   OH250767   0.625   5.002   4.980  0.0550 -0.5709 -0.7649
 9759TIP3    H150768   0.544   4.995   4.930 -0.3475 -1.6308 -0.0105
 9759TIP3    H250769   0.596   5.006   5.071  0.8308 -0.2064 -0.5251
 9760TIP3   OH250770   3.278   3.808   5.475  0.6497  0.1185  0.2303
 9760TIP3    H150771   3.302   3.804   5.568  2.4983 -0.7708 -0.2240
 9760TIP3    H250772   3.246   3.721   5.455  0.1963  0.3270  0.0341
 9761TIP3   OH250773   5.961   3.899  15.305 -0.3765  0.0744  0.4766
 9761TIP3    H150774   5.866   3.907  15.307 -0.3262  0.4877  1.5391
 9761TIP3    H250775   5.978   3.811  15.339 -0.3261  0.4351  1.3836
 9762TIP3   OH250776   5.458   5.905  13.443  0.0676  0.2824  0.0506
 9762TIP3    H150777   5.460   5.957  13.524  3.4833 -0.5546  0.6542
 9762TIP3    H250778   5.480   5.817  13.470  1.4377  0.0005 -1.7900
 9763TIP3   OH250779   0.869   0.805   0.686 -0.1019  0.0848 -0.1187
 9763TIP3    H150780   0.906   0.757   0.760 -0.6588  0.3141  0.3184
 9763TIP3    H250781   0.795   0.751   0.658 -1.2574  1.0806  0.9164
 9764TIP3   OH250782   5.051   0.304   6.035 -0.1520 -0.0436 -0.2299
 9764TIP3    H150783   4.987   0.349   6.090 -0.2843 -1.1929  0.5803
 9764TIP3    H250784   5.134   0.314   6.082 -0.0273  0.0342 -0.4622
 9765TIP3   OH250785   0.437   0.456   0.161 -0.3937  0.1235 -0.4170
 9765TIP3    H150786   0.441   0.550   0.179 -0.5153 -0.1889  1.5079
 9765TIP3    H250787   0.526   0.425   0.177 -0.1425  0.0254 -1.9175
 9766TIP3   OH250788   3.532   6.606  15.105  0.6142 -0.3166 -0.3013
 9766TIP3    H150789   3.460   6.552  15.137  0.1622  1.3702  1.7981
 9766TIP3    H250790   3.598   6.544  15.076 -1.1797 -1.9241 -1.1867
 9767TIP3   OH250791   3.941   6.725  13.449  0.0695  0.2636 -0.2370
 9767TIP3    H150792   3.946   6.694  13.358  1.6659  0.1624 -0.1472
 9767TIP3    H250793   3.956   6.819  13.444 -1.3631  0.5133 -0.1946
 9768TIP3   OH250794   0.604   1.402  16.568  0.0931  0.0614 -0.1403
 9768TIP3    H150795   0.578   1.314  16.595  1.2411 -0.6771 -1.3680
 9768TIP3    H250796   0.529   1.457  16.593  0.6140 -0.6462  3.5669
 9769TIP3   OH250797   2.005   0.018  14.798  0.1954  0.0157  0.4587
 9769TIP3    H150798   2.098  -0.000  14.788  0.4570  0.8145  1.3034
 9769TIP3    H250799   1.962  -0.038  14.733  1.2816 -0.0982 -0.1743
 9770TIP3   OH250800   0.158   1.992   4.343  0.3606  0.0935  0.3726
 9770TIP3    H150801   0.193   1.941   4.270  1.7649 -0.9039  1.6844
 9770TIP3    H250802   0.229   2.053   4.365 -0.5704  1.3235  0.0579
 9771TIP3   OH250803   4.486   4.855   0.699 -0.3372 -0.4884  0.3179
 9771TIP3    H150804   4.449   4.907   0.627  0.0012 -0.9832 -0.2290
 9771TIP3    H250805   4.484   4.913   0.774 -0.6580  0.0613 -0.1065
 9772TIP3   OH250806   0.681   0.990   2.394  0.2072  0.2235  0.1199
 9772TIP3    H150807   0.719   0.940   2.321  3.2526  0.8371  1.1563
 9772TIP3    H250808   0.617   0.930   2.433  0.6096 -1.2121 -1.3050
 9773TIP3   OH250809   0.453   2.541  11.143  0.4137 -0.3858  0.0178
 9773TIP3    H150810   0.379   2.599  11.125  1.3605  0.5154 -1.1337
 9773TIP3    H250811   0.423   2.485  11.214 -1.5981 -0.4725 -0.8424
 9774TIP3   OH250812   0.839   5.251   2.623  0.0833 -0.1337 -0.7462
 9774TIP3    H150813   0.803   5.329   2.581  0.4159  0.2369 -0.3519
 9774TIP3    H250814   0.870   5.196   2.551 -0.4387 -0.0475 -1.0404
 9775TIP3   OH250815   6.726   6.781  11.272  0.1775 -0.3718 -0.2027
 9775TIP3    H150816   6.725   6.689  11.299 -1.7401  0.1481  1.7537
 9775TIP3    H250817   6.652   6.790  11.212 -0.0561  0.0347  0.1408
 9776TIP3   OH250818   3.296   5.018  12.036 -0.0030  0.1651 -0.3737
 9776TIP3    H150819   3.271   5.107  12.012  0.8468  0.3336 -0.6624
 9776TIP3    H250820   3.335   4.982  11.957 -0.1588 -0.4009 -0.1989
 9777TIP3   OH250821   0.887   4.160  14.450 -0.3354  0.4158  0.3057
 9777TIP3    H150822   0.848   4.198  14.372  1.1148  1.1533 -0.0927
 9777TIP3    H250823   0.930   4.080  14.419  2.1146  1.8147 -0.1491
 9778TIP3   OH250824   1.160   3.396  16.609  0.4147  0.0537  0.1619
 9778TIP3    H150825   1.151   3.479  16.656  2.1877  0.2806  0.1858
 9778TIP3    H250826   1.174   3.331  16.678  0.0539 -0.1106  0.0839
 9779TIP3   OH250827   3.299   3.113  14.007 -0.0684 -0.2907  0.1640
 9779TIP3    H150828   3.206   3.132  13.995 -0.0151  0.7309  1.2509
 9779TIP3    H250829   3.332   3.186  14.060  2.1526  1.3159 -3.1264
 9780TIP3   OH250830   6.736   1.873  15.690 -0.4628 -0.2151 -0.3431
 9780TIP3    H150831   6.748   1.790  15.737  2.1653 -0.3100 -0.9944
 9780TIP3    H250832   6.825   1.896  15.661 -0.5825  4.1701  2.0466
 9781TIP3   OH250833   5.846   1.159   0.643  0.0947 -0.4853  0.0564
 9781TIP3    H150834   5.931   1.197   0.663  0.4836 -0.7363 -1.0807
 9781TIP3    H250835   5.866   1.077   0.597 -0.6949  1.0852 -3.3949
 9782TIP3   OH250836   1.823   2.880   1.973  0.0637 -0.0698  0.5268
 9782TIP3    H150837   1.748   2.922   2.016  0.5191  0.9916  0.3112
 9782TIP3    H250838   1.891   2.948   1.971  0.8565 -0.8492  0.2452
 9783TIP3   OH250839   2.935   0.672   1.741 -0.3607  0.3494 -0.2029
 9783TIP3    H150840   2.913   0.718   1.823  0.5206 -0.5819  0.5825
 9783TIP3    H250841   3.016   0.625   1.761 -0.2077 -0.0071 -1.5832
 9784TIP3   OH250842   0.625   6.721  11.820  0.2757  0.1328 -0.3998
 9784TIP3    H150843   0.670   6.766  11.891 -2.5936  2.7214 -0.0325
 9784TIP3    H250844   0.642   6.775  11.743  0.8790 -0.9989 -1.0897
 9785TIP3   OH250845   5.361   6.416   4.245  0.1363 -0.0954  0.7767
 9785TIP3    H150846   5.398   6.342   4.293 -0.0393 -1.2824 -0.8468
 9785TIP3    H250847   5.372   6.393   4.153  1.0607  2.4029  0.1937
 9786TIP3   OH250848   3.357   2.585  11.388  0.2946 -0.1329 -0.6424
 9786TIP3    H150849   3.446   2.571  11.423  0.3520 -0.4747 -0.9258
 9786TIP3    H250850   3.313   2.637  11.456  0.6370 -0.1620 -0.3940
 9787TIP3   OH250851   0.466   6.539   1.541 -0.8875  0.3805 -0.1320
 9787TIP3    H150852   0.535   6.559   1.604  0.5507 -0.5677 -1.3224
 9787TIP3    H250853   0.410   6.617   1.540 -1.1474  0.3251  2.4731
 9788TIP3   OH250854   1.442   1.047  12.203 -0.3162  0.4858  0.2180
 9788TIP3    H150855   1.529   1.010  12.219 -0.4609 -0.0686 -0.2299
 9788TIP3    H250856   1.411   1.002  12.124 -1.1766  0.3741  0.6057
 9789TIP3   OH250857   2.832   5.728   4.877 -0.0084 -0.0006  0.2438
 9789TIP3    H150858   2.876   5.684   4.805  1.6664 -1.5826  2.1028
 9789TIP3    H250859   2.764   5.667   4.906 -2.0229  1.4417 -1.1127
 9790TIP3   OH250860   5.914   5.603   0.185  0.2789  0.0614 -0.7893
 9790TIP3    H150861   5.950   5.679   0.140 -1.0712  0.8058 -0.6612
 9790TIP3    H250862   5.884   5.637   0.269 -1.1773 -0.4048 -1.1052
 9791TIP3   OH250863   4.331   4.052   2.761 -0.0978  0.2915  0.1801
 9791TIP3    H150864   4.422   4.047   2.731 -0.2308 -1.1507 -0.0536
 9791TIP3    H250865   4.329   4.129   2.818  0.6311  1.9369 -1.8828
 9792TIP3   OH250866   2.025   1.883   2.717  0.5978 -1.1454 -0.0228
 9792TIP3    H150867   1.943   1.928   2.742  1.4213  0.3036  0.2180
 9792TIP3    H250868   2.035   1.814   2.782 -0.8387 -1.8848 -0.5372
 9793TIP3   OH250869   4.596   1.665   4.130  0.4918 -0.3557  0.9913
 9793TIP3    H150870   4.686   1.694   4.113  0.0253  2.0806  2.2322
 9793TIP3    H250871   4.551   1.682   4.047  1.1840 -1.9644  0.2262
 9794TIP3   OH250872   5.336   6.654  16.820 -0.1574 -0.1776  0.1323
 9794TIP3    H150873   5.294   6.576  16.785 -1.4551  0.0567  1.1064
 9794TIP3    H250874   5.311   6.656  16.912  0.7220  0.8264  0.3707
 9795TIP3   OH250875   0.207   3.141  15.955  0.3132 -0.3086  0.3234
 9795TIP3    H150876   0.280   3.155  16.016  0.8484 -2.0740  0.1627
 9795TIP3    H250877   0.225   3.200  15.882  1.9739 -1.1530 -0.0093
 9796TIP3   OH250878   5.775   1.372   4.536 -0.1037 -0.4657  0.2226
 9796TIP3    H150879   5.865   1.355   4.565 -0.6564 -2.8150  0.8022
 9796TIP3    H250880   5.757   1.462   4.565  2.5546  0.6902 -1.3661
 9797TIP3   OH250881   5.237   4.292  12.065  0.2829 -0.3422  0.4059
 9797TIP3    H150882   5.245   4.311  12.159  1.3608 -0.0119  0.2711
 9797TIP3    H250883   5.184   4.213  12.060  1.2093 -1.0439  1.3662
 9798TIP3   OH250884   2.257   2.263   2.434  0.7907 -0.0328  0.4111
 9798TIP3    H150885   2.264   2.358   2.443 -0.2975  0.6268 -3.7310
 9798TIP3    H250886   2.326   2.228   2.491  0.6809  3.1130  2.7116
 9799TIP3   OH250887   4.489   6.115  12.103  0.2128 -0.4813 -0.2139
 9799TIP3    H150888   4.559   6.050  12.101 -0.6940 -1.5879  1.2287
 9799TIP3    H250889   4.428   6.087  12.035 -0.3131 -1.3667  0.5880
 9800TIP3   OH250890   0.186   1.737   2.681 -0.3683 -0.1376 -0.0037
 9800TIP3    H150891   0.251   1.678   2.721  2.7744  1.2849 -2.6043
 9800TIP3    H250892   0.180   1.709   2.590  1.1274  3.2711 -1.3118
 9801TIP3   OH250893   6.257   6.630  13.071  0.0328  0.3322 -0.2455
 9801TIP3    H150894   6.200   6.583  13.011 -1.6072  2.1301 -0.1934
 9801TIP3    H250895   6.310   6.687  13.014  0.2244  0.2608 -0.1412
 9802TIP3   OH250896   3.303   5.570  14.120  0.5864 -0.4213 -0.0867
 9802TIP3    H150897   3.305   5.515  14.199 -0.9725  1.0684  1.0756
 9802TIP3    H250898   3.381   5.625  14.127 -1.4257  2.4190  2.6123
 9803TIP3   OH250899   1.978   1.631  10.584  0.1260  0.2148  0.4934
 9803TIP3    H150900   1.899   1.685  10.592  0.4997  0.8949 -0.3183
 9803TIP3    H250901   2.034   1.659  10.657 -0.7388 -0.9257  1.6452
 9804TIP3   OH250902   1.913   1.852   4.885  0.1329 -0.0788 -0.1131
 9804TIP3    H150903   1.946   1.941   4.895 -1.7823  0.7005 -0.2996
 9804TIP3    H250904   1.991   1.797   4.893  1.2314  1.5273  0.9953
 9805TIP3   OH250905   0.457   1.828   5.569 -0.4814  0.3046 -0.0830
 9805TIP3    H150906   0.477   1.778   5.647 -1.8702  0.1752  0.2166
 9805TIP3    H250907   0.440   1.762   5.502 -0.4772  0.4014 -0.1802
 9806TIP3   OH250908   4.743   6.039  14.358 -0.2265  0.0306 -0.2421
 9806TIP3    H150909   4.760   5.966  14.418 -4.4225 -1.8164 -0.8913
 9806TIP3    H250910   4.826   6.052  14.312  1.3912 -2.7426  1.5611
 9807TIP3   OH250911   3.544   1.261  13.079 -0.0625 -0.4380 -0.0349
 9807TIP3    H150912   3.460   1.220  13.101 -1.0827  1.2763 -0.6181
 9807TIP3    H250913   3.603   1.231  13.148 -0.8263 -2.5742 -0.2171
 9808TIP3   OH250914   6.184   6.211   6.170 -0.0091 -0.1439 -0.0176
 9808TIP3    H150915   6.182   6.247   6.081 -0.4785  0.1601  0.1137
 9808TIP3    H250916   6.150   6.122   6.161 -1.6739  0.4428  0.1034
 9809TIP3   OH250917   1.434   1.243   1.009 -0.0038  0.1611 -0.3353
 9809TIP3    H150918   1.523   1.217   0.986  0.5079  1.0202  0.6061
 9809TIP3    H250919   1.422   1.328   0.968  0.1494  0.7124  0.7092
 9810TIP3   OH250920   5.578   2.354  15.041  0.4795 -0.9110  0.7426
 9810TIP3    H150921   5.583   2.450  15.038 -2.4972 -0.6618  0.7612
 9810TIP3    H250922   5.582   2.327  14.950 -0.7811 -0.5606  0.5656
 9811TIP3   OH250923   0.540   6.204   2.088  0.0953  0.2340  0.0152
 9811TIP3    H150924   0.445   6.207   2.076  0.1771 -0.2256 -0.7802
 9811TIP3    H250925   0.553   6.223   2.181 -0.7808  0.1656  0.1564
 9812TIP3   OH250926   1.084   0.944   2.963  0.1891  0.0254  0.0782
 9812TIP3    H150927   1.030   0.885   2.910  0.1408  0.1533 -0.0153
 9812TIP3    H250928   1.172   0.906   2.958  0.7508  1.3939 -2.2137
 9813TIP3   OH250929   2.606   0.929  14.643 -0.5219 -1.1290 -0.4849
 9813TIP3    H150930   2.658   0.907  14.566  1.0671  0.4953  0.0482
 9813TIP3    H250931   2.658   0.898  14.717 -2.8115 -4.2237 -0.0011
 9814TIP3   OH250932   6.703   0.701   1.864  0.3433 -0.0480  0.1488
 9814TIP3    H150933   6.710   0.636   1.934  1.0318  0.0417  0.1672
 9814TIP3    H250934   6.610   0.724   1.861  0.0519 -1.2117 -0.0187
 9815TIP3   OH250935   2.591   5.381   4.350 -0.1754  0.4699  0.3054
 9815TIP3    H150936   2.684   5.360   4.358  0.2208  1.8716 -0.2808
 9815TIP3    H250937   2.588   5.448   4.282 -1.5091  1.1268  0.9770
 9816TIP3   OH250938   3.950   2.215  16.058 -0.4799  0.0614  0.4681
 9816TIP3    H150939   3.975   2.288  16.114 -0.5441 -1.4040  2.5543
 9816TIP3    H250940   4.033   2.178  16.027 -0.3974  0.1778  0.5513
 9817TIP3   OH250941   0.639   4.634   0.036  0.0913  0.0974 -0.1662
 9817TIP3    H150942   0.678   4.588  -0.039  0.2375  0.4032 -0.2766
 9817TIP3    H250943   0.558   4.672   0.002 -0.8211 -1.3391  0.2935
 9818TIP3   OH250944   5.137   5.965  15.662 -0.4185  0.5062 -0.3722
 9818TIP3    H150945   5.155   5.981  15.569  0.6299 -2.1717 -0.7174
 9818TIP3    H250946   5.062   5.906  15.662 -0.7153  0.8713  0.5237
 9819TIP3   OH250947   1.218   0.743   0.989  0.2972  0.6234  0.6106
 9819TIP3    H150948   1.246   0.834   0.996  0.3543  0.6811 -0.2836
 9819TIP3    H250949   1.283   0.702   0.933  0.3436 -0.0089  1.1113
 9820TIP3   OH250950   2.149   0.517  16.449 -0.0729  0.0312  0.5684
 9820TIP3    H150951   2.243   0.532  16.462  0.1850 -2.0901  1.5168
 9820TIP3    H250952   2.136   0.532  16.355  1.0760  0.8885  0.5098
 9821TIP3   OH250953   1.763   2.885  14.815 -0.1228  0.2350 -0.1579
 9821TIP3    H150954   1.733   2.830  14.742  0.6013 -3.1634  1.8919
 9821TIP3    H250955   1.858   2.888  14.805  0.1733 -1.6860  1.4179
 9822TIP3   OH250956   4.860   1.673  13.559  0.6344 -0.4520 -0.0381
 9822TIP3    H150957   4.939   1.697  13.607  0.8272 -0.6588 -0.2475
 9822TIP3    H250958   4.789   1.720  13.604  0.7160 -1.1567  0.8412
 9823TIP3   OH250959   5.998   5.241  11.837 -0.2025 -0.6164  0.2228
 9823TIP3    H150960   6.049   5.185  11.779  1.1577 -1.3050  1.9815
 9823TIP3    H250961   5.985   5.188  11.916 -2.6026  0.0204  0.3131
 9824TIP3   OH250962   3.635   3.757  16.087  0.3634 -0.2664  0.4173
 9824TIP3    H150963   3.592   3.688  16.137 -2.0643  2.2407  2.0510
 9824TIP3    H250964   3.611   3.838  16.131  0.5649  1.9232 -3.0641
 9825TIP3   OH250965   6.468   3.459   3.972 -0.5504 -0.0704 -0.6012
 9825TIP3    H150966   6.513   3.538   3.941  0.3705 -0.5088 -0.4286
 9825TIP3    H250967   6.468   3.400   3.896 -0.1373 -0.3555 -0.3907
 9826TIP3   OH250968   1.603   1.462  14.994  0.5932  0.4651 -0.7658
 9826TIP3    H150969   1.692   1.446  14.963  1.0403  0.4820  0.4467
 9826TIP3    H250970   1.612   1.469  15.089 -0.7393  0.2450 -0.6055
 9827TIP3   OH250971   5.044   5.384   1.587  0.3340 -0.1024  0.3880
 9827TIP3    H150972   5.052   5.460   1.646 -1.4289 -0.7302  1.5156
 9827TIP3    H250973   4.995   5.320   1.638  1.6739 -1.9958 -0.5896
 9828TIP3   OH250974   2.751   3.164  12.301  0.2321  0.3881  0.1577
 9828TIP3    H150975   2.846   3.165  12.308  0.4091 -1.3789 -1.2947
 9828TIP3    H250976   2.721   3.214  12.377  2.2731 -0.3030  1.4990
 9829TIP3   OH250977   2.009   1.913  15.456 -0.2515  0.4223  0.0441
 9829TIP3    H150978   1.985   1.820  15.453  0.4978  0.1758  1.2993
 9829TIP3    H250979   1.970   1.945  15.538 -1.0461  1.3880 -0.6807
 9830TIP3   OH250980   2.425   0.646  16.533 -0.2270 -0.1535  0.3940
 9830TIP3    H150981   2.356   0.710  16.514  0.1435  0.7625  2.0083
 9830TIP3    H250982   2.493   0.663  16.467 -1.4967 -1.1088 -1.2678
 9831TIP3   OH250983   1.319   4.851   3.255 -0.2383 -0.5679  0.2541
 9831TIP3    H150984   1.333   4.817   3.343 -0.2091  1.2308  0.9741
 9831TIP3    H250985   1.402   4.892   3.232 -0.6619  0.1089 -0.0843
 9832TIP3   OH250986   1.046   1.092  13.606  0.0913  0.2235 -0.2543
 9832TIP3    H150987   1.105   1.021  13.584 -0.0072  0.3281 -0.8613
 9832TIP3    H250988   1.063   1.160  13.541  1.0732  1.2882  1.0510
 9833TIP3   OH250989   5.300   3.308   5.114 -0.3359  0.0572  0.1557
 9833TIP3    H150990   5.228   3.248   5.093 -2.3204  1.3007  2.7652
 9833TIP3    H250991   5.333   3.276   5.199  0.7459  0.8084  0.0388
 9834TIP3   OH250992   6.175   0.617  15.183 -0.2133 -0.5000 -0.8645
 9834TIP3    H150993   6.104   0.650  15.238 -0.0374 -2.4869  0.7095
 9834TIP3    H250994   6.131   0.570  15.112 -0.4645 -0.3369 -0.8178
 9835TIP3   OH250995   2.115   3.898   3.306  0.2382  0.6891  0.7204
 9835TIP3    H150996   2.036   3.892   3.360  0.5272  3.3718  1.6020
 9835TIP3    H250997   2.113   3.820   3.250 -2.8356  0.5068  0.9570
 9836TIP3   OH250998   4.435   1.062  15.104  0.0053  0.3984  0.2928
 9836TIP3    H150999   4.463   1.103  15.186  1.7696  1.5445 -0.8303
 9836TIP3    H251000   4.411   1.135  15.047  0.1749 -0.2970 -0.7026
 9837TIP3   OH251001   1.069   5.351  15.195  0.9309 -0.2047 -0.1372
 9837TIP3    H151002   1.007   5.293  15.151 -0.4151  0.6249  0.6217
 9837TIP3    H251003   1.137   5.367  15.129 -0.2238 -0.2440 -1.3895
 9838TIP3   OH251004   1.582   2.778   4.737 -0.5214 -0.2825 -0.0951
 9838TIP3    H151005   1.675   2.777   4.761 -0.3777  0.2033 -0.6160
 9838TIP3    H251006   1.565   2.690   4.703 -0.3306 -0.4695  0.2838
 9839TIP3   OH251007   6.513   2.988  13.121 -0.0190  0.3278  0.3374
 9839TIP3    H151008   6.520   2.936  13.201 -1.1777  0.3827  0.4838
 9839TIP3    H251009   6.588   3.048  13.125  0.6647 -0.5224  0.7405
 9840TIP3   OH251010   1.217   5.917  11.921 -0.0145  0.2508 -0.5626
 9840TIP3    H151011   1.143   5.945  11.867 -1.5136  1.7825  2.0890
 9840TIP3    H251012   1.177   5.890  12.004  2.3202 -0.0387  0.5330
 9841TIP3   OH251013   0.441   5.804  15.068 -0.6067 -0.5437 -0.1692
 9841TIP3    H151014   0.387   5.798  15.147  1.5434  1.8846  1.6471
 9841TIP3    H251015   0.520   5.755  15.090 -0.3407 -0.5654 -1.1570
 9842TIP3   OH251016   2.814   0.428  16.123  0.2131  0.7693 -0.0257
 9842TIP3    H151017   2.734   0.390  16.158  1.2289 -0.8547  0.6404
 9842TIP3    H251018   2.802   0.523  16.132 -1.6838  0.5719 -0.1387
 9843TIP3   OH251019   6.397   6.311  12.868  0.1300 -0.3775  0.3976
 9843TIP3    H151020   6.402   6.217  12.885 -0.1570 -0.6229 -0.7675
 9843TIP3    H251021   6.311   6.337  12.902 -0.2078 -0.7462 -0.1430
 9844TIP3   OH251022   6.602   1.194   1.244  0.3619 -0.3646 -0.2144
 9844TIP3    H151023   6.681   1.172   1.196  1.7400  0.3056  1.6451
 9844TIP3    H251024   6.633   1.226   1.329 -1.9186 -0.5272  0.7499
 9845TIP3   OH251025   3.135   5.800   0.902  0.3713  0.0572 -0.0420
 9845TIP3    H151026   3.140   5.758   0.817  0.2810  1.6431 -0.8691
 9845TIP3    H251027   3.136   5.894   0.883  1.4627  0.4735  1.7628
 9846TIP3   OH251028   2.411   1.004  16.282  0.0769 -0.6397  0.3672
 9846TIP3    H151029   2.455   0.922  16.263  0.8150 -0.1930  0.1000
 9846TIP3    H251030   2.318   0.981  16.289  0.0325 -1.2154 -1.5315
 9847TIP3   OH251031   2.407   1.156  11.070 -0.2049 -0.4461  0.0550
 9847TIP3    H151032   2.369   1.076  11.107  0.0815 -0.7109 -0.2166
 9847TIP3    H251033   2.332   1.209  11.045 -0.5013 -2.1139 -3.0505
 9848TIP3   OH251034   3.316   0.212  16.483  0.0222 -0.4524  0.4263
 9848TIP3    H151035   3.259   0.286  16.460  0.7220  0.3193  1.0935
 9848TIP3    H251036   3.398   0.229  16.438  0.4135 -0.4641  1.1235
 9849TIP3   OH251037   1.498   4.077  13.596  0.5491  0.5816  0.5875
 9849TIP3    H151038   1.490   4.173  13.599 -0.9895  0.5379 -0.5174
 9849TIP3    H251039   1.414   4.048  13.560  1.1312 -1.1659  0.5685
 9850TIP3   OH251040   3.712   5.721   1.637 -0.0257  0.1557  0.2513
 9850TIP3    H151041   3.681   5.777   1.709  0.6024 -0.3061  0.8948
 9850TIP3    H251042   3.766   5.778   1.583 -0.2198  0.4222  0.3380
 9851TIP3   OH251043   2.861   0.539   4.109  0.5711  0.4528  0.0593
 9851TIP3    H151044   2.785   0.584   4.147 -0.3767 -1.6967  0.8762
 9851TIP3    H251045   2.832   0.512   4.022  0.9302  0.9191 -0.2059
 9852TIP3   OH251046   5.677   6.277   2.749 -0.2113  1.0820  0.0510
 9852TIP3    H151047   5.769   6.300   2.735 -0.6196  2.8123 -0.0221
 9852TIP3    H251048   5.628   6.349   2.709 -1.5883  0.5907  0.7858
 9853TIP3   OH251049   2.277   4.385   2.012 -0.3026 -0.2363  0.4172
 9853TIP3    H151050   2.306   4.343   2.094  1.0849 -0.9515 -0.3982
 9853TIP3    H251051   2.311   4.328   1.943  0.0257  1.2574 -0.6966
 9854TIP3   OH251052   4.891   0.895  16.845 -0.2736  0.7455  0.3720
 9854TIP3    H151053   4.973   0.859  16.811 -0.8501  0.0199 -0.3041
 9854TIP3    H251054   4.917   0.973  16.892  0.9128  0.0231  0.9722
 9855TIP3   OH251055   0.526   1.498  15.979  0.6106  0.5512  0.0368
 9855TIP3    H151056   0.546   1.408  15.953  0.1732  0.8435 -1.4447
 9855TIP3    H251057   0.498   1.491  16.070  0.0265 -0.9065 -0.2225
 9856TIP3   OH251058   3.445   0.464  13.117  0.1668  0.1154 -0.0255
 9856TIP3    H151059   3.512   0.406  13.153  0.3475  1.1520  1.3560
 9856TIP3    H251060   3.367   0.408  13.108  1.2385 -1.1957 -1.9956
 9857TIP3   OH251061   0.979   0.128   3.528 -0.1205  0.1229  0.3319
 9857TIP3    H151062   0.997   0.101   3.618  2.5034  1.7328  0.3950
 9857TIP3    H251063   0.892   0.167   3.531 -0.2782 -0.2911  2.0586
 9858TIP3   OH251064   2.391   0.470  15.628  0.3897  0.0553 -0.1111
 9858TIP3    H151065   2.462   0.409  15.610  0.4629  0.3987 -1.0651
 9858TIP3    H251066   2.427   0.530  15.693 -0.3067 -1.9960  2.3555
 9859TIP3   OH251067   0.145   5.268   3.782  0.3182  0.0510 -0.4138
 9859TIP3    H151068   0.211   5.280   3.851  0.6530 -0.5589 -0.6117
 9859TIP3    H251069   0.083   5.339   3.794  0.0400 -0.3961  0.9030
 9860TIP3   OH251070   3.936   0.052   1.011 -0.2243  0.1911  0.4869
 9860TIP3    H151071   4.014   0.067   0.958  0.0784 -1.0144  0.5667
 9860TIP3    H251072   3.947   0.109   1.087 -0.3462  1.4431 -0.4028
 9861TIP3   OH251073   6.707   3.928   1.328 -0.1884 -0.3210  0.3344
 9861TIP3    H151074   6.706   3.924   1.232 -1.2665 -1.6361  0.3704
 9861TIP3    H251075   6.662   4.010   1.349 -1.2200 -0.7101 -0.2754
 9862TIP3   OH251076   4.153   3.299   1.341  0.0970 -0.5744  0.1842
 9862TIP3    H151077   4.240   3.269   1.313  0.1375 -0.0130 -0.3052
 9862TIP3    H251078   4.112   3.221   1.377  0.5331 -1.0200 -0.2569
 9863TIP3   OH251079   1.719   2.163   0.152 -0.1832 -0.0309 -0.3560
 9863TIP3    H151080   1.734   2.227   0.222  3.0390 -0.5158 -0.4588
 9863TIP3    H251081   1.666   2.095   0.193  0.4231  0.3878  1.2074
 9864TIP3   OH251082   2.007   1.392  16.071 -0.2284  0.0755 -0.1120
 9864TIP3    H151083   2.065   1.360  16.002 -0.1639  0.7237 -0.3670
 9864TIP3    H251084   1.990   1.483  16.048  0.5469  0.5972  1.2286
 9865TIP3   OH251085   6.634   0.781  11.890  0.0825 -0.3082 -0.5956
 9865TIP3    H151086   6.627   0.687  11.909 -0.0110 -0.0476  0.7848
 9865TIP3    H251087   6.543   0.810  11.883  0.1123 -0.3294 -1.1079
 9866TIP3   OH251088   4.661   5.645   0.864 -0.1877 -0.0594 -0.7297
 9866TIP3    H151089   4.664   5.739   0.844  1.9338 -0.3767 -2.2871
 9866TIP3    H251090   4.662   5.641   0.960 -0.5403  1.5058 -0.6248
 9867TIP3   OH251091   2.232   2.614  10.834  0.0905  0.2043 -0.1164
 9867TIP3    H151092   2.264   2.701  10.854  0.0086  0.1729  0.1571
 9867TIP3    H251093   2.301   2.555  10.864  0.9932  0.2316 -1.9730
 9868TIP3   OH251094   5.833   0.775   5.570  0.8883  0.2541  0.1421
 9868TIP3    H151095   5.917   0.761   5.526  1.5809  3.0496  0.3796
 9868TIP3    H251096   5.775   0.807   5.501  1.6482  3.5246  0.8514
 9869TIP3   OH251097   3.501   0.648  14.070  0.0495  0.1750  0.2509
 9869TIP3    H151098   3.548   0.708  14.013 -0.5791  1.6923  1.2496
 9869TIP3    H251099   3.568   0.615  14.130  0.4517 -0.3714 -0.4801
 9870TIP3   OH251100   5.400   6.334  13.322 -0.2728  0.0861 -0.2690
 9870TIP3    H151101   5.477   6.382  13.291 -0.8169  0.3080 -1.3574
 9870TIP3    H251102   5.382   6.270  13.253  0.4517 -1.7523  1.1681
 9871TIP3   OH251103   5.947   6.767  11.297 -0.2936  0.0509 -0.6057
 9871TIP3    H151104   5.941   6.776  11.393  1.9785  0.9440 -0.4706
 9871TIP3    H251105   5.860   6.740  11.270 -1.3377  0.9168  1.6031
 9872TIP3   OH251106   2.065   2.669   4.980 -0.0334 -0.4835 -0.4785
 9872TIP3    H151107   2.044   2.646   5.071  0.9932 -0.2741 -0.1871
 9872TIP3    H251108   1.980   2.664   4.935 -0.7595  0.5353  0.7125
 9873TIP3   OH251109   3.881   3.577  10.622  0.4555 -0.2237 -0.5828
 9873TIP3    H151110   3.793   3.549  10.599  0.7800 -0.7099 -1.2900
 9873TIP3    H251111   3.927   3.496  10.645  0.5321  0.1018  0.4712
 9874TIP3   OH251112   0.401   5.918   0.212 -0.8274  0.1299 -0.0585
 9874TIP3    H151113   0.467   5.909   0.143 -1.1601  5.0168 -1.3579
 9874TIP3    H251114   0.453   5.932   0.292 -0.2927  0.9394 -0.5308
 9875TIP3   OH251115   4.281   3.119   0.866  0.1815  0.1173 -0.1060
 9875TIP3    H151116   4.315   3.193   0.815  0.3499  0.2717  0.2298
 9875TIP3    H251117   4.266   3.155   0.953 -0.9682  0.0904 -0.2809
 9876TIP3   OH251118   4.984   1.811   0.284  0.1335  0.2091  0.0175
 9876TIP3    H151119   5.046   1.810   0.211  1.1397 -0.2180  0.8443
 9876TIP3    H251120   5.040   1.808   0.362 -0.9581 -0.9525  0.7817
 9877TIP3   OH251121   1.657   5.698  11.527  0.3484  0.1835  0.2541
 9877TIP3    H151122   1.702   5.615  11.542 -1.0464 -0.3835  1.5607
 9877TIP3    H251123   1.684   5.754  11.599 -0.9233 -0.1379  1.0121
 9878TIP3   OH251124   5.996   4.379  11.877  0.2742  0.3168 -0.1237
 9878TIP3    H151125   5.918   4.430  11.898 -1.0951 -2.8114  3.5131
 9878TIP3    H251126   5.969   4.321  11.806 -0.1129  0.4724 -0.1035
 9879TIP3   OH251127   4.095   5.631   3.888 -0.4456  0.1935  0.0695
 9879TIP3    H151128   4.187   5.611   3.870  0.1476  0.9003  2.0408
 9879TIP3    H251129   4.046   5.576   3.828  1.2534 -0.9527 -0.3343
 9880TIP3   OH251130   5.640   6.832  13.451  0.1255  0.4560 -0.0902
 9880TIP3    H151131   5.717   6.774  13.457  1.5251  2.1476 -0.8710
 9880TIP3    H251132   5.602   6.812  13.365  0.1586  0.1576 -0.0362
 9881TIP3   OH251133   5.073   0.848   1.856 -0.0417  0.0191  0.2789
 9881TIP3    H151134   5.103   0.785   1.921  0.4362  0.1625  0.1999
 9881TIP3    H251135   5.014   0.906   1.904 -0.4240 -0.4352  0.3707
 9882TIP3   OH251136   4.161   1.482   5.493 -0.6572 -0.1487 -0.9527
 9882TIP3    H151137   4.207   1.403   5.466 -1.2342 -0.3348 -1.3968
 9882TIP3    H251138   4.141   1.468   5.586 -0.0672 -0.1813 -0.8271
 9883TIP3   OH251139   4.902   4.761   1.263  0.1014  0.4275  0.7260
 9883TIP3    H151140   4.944   4.693   1.316  0.3778  0.2852  0.3340
 9883TIP3    H251141   4.902   4.725   1.174  1.7428  1.5867  0.1957
 9884TIP3   OH251142   5.595   1.929  15.370 -0.0332  0.6012 -0.4476
 9884TIP3    H151143   5.517   1.886  15.335 -0.3383 -0.3344  1.2562
 9884TIP3    H251144   5.616   1.879  15.449  1.9810  1.1849 -0.5734
 9885TIP3   OH251145   5.170   6.409   6.288  0.2420 -0.2247 -0.1392
 9885TIP3    H151146   5.106   6.442   6.350  0.5219 -0.0856  0.0792
 9885TIP3    H251147   5.174   6.315   6.306  0.4670 -0.1537  0.1909
 9886TIP3   OH251148   4.411   6.294  14.274 -0.5580 -0.0705 -0.2494
 9886TIP3    H151149   4.366   6.263  14.352 -2.3856 -0.2495 -1.3064
 9886TIP3    H251150   4.440   6.383  14.296 -1.6524  0.1335  0.4164
 9887TIP3   OH251151   5.491   1.333  13.763 -0.9931  0.0174  0.4795
 9887TIP3    H151152   5.575   1.372  13.738 -0.3293 -0.8628  1.2831
 9887TIP3    H251153   5.435   1.408  13.786 -0.9003  0.7166 -1.3521
 9888TIP3   OH251154   1.001   0.089  13.390 -0.5181 -0.0042  0.0073
 9888TIP3    H151155   0.913   0.051  13.388 -0.5566  0.0712  0.3322
 9888TIP3    H251156   1.043   0.056  13.310 -1.4609  1.4473 -1.1387
 9889TIP3   OH251157   2.296   6.014   6.631  0.4004 -0.3512 -0.1014
 9889TIP3    H151158   2.263   6.067   6.559  1.1082  1.4340  0.8311
 9889TIP3    H251159   2.383   5.985   6.601 -0.6606 -2.5365 -1.3176
 9890TIP3   OH251160   1.587   2.903  15.787 -0.0044 -0.5920  0.0291
 9890TIP3    H151161   1.519   2.942  15.842 -1.0740 -1.5611 -0.5688
 9890TIP3    H251162   1.669   2.919  15.835 -0.6384  0.6117  0.7476
 9891TIP3   OH251163   4.531   4.812   2.841  0.4706  0.6519  0.1620
 9891TIP3    H151164   4.572   4.882   2.891  0.0866  0.5883  0.5773
 9891TIP3    H251165   4.484   4.760   2.906  0.2298  0.3768 -0.2232
 9892TIP3   OH251166   0.127   4.783   0.928 -0.1931  0.4846  0.2531
 9892TIP3    H151167   0.110   4.716   0.863  2.4252  0.3284 -0.3661
 9892TIP3    H251168   0.051   4.841   0.924 -1.1227 -0.7853 -1.2970
 9893TIP3   OH251169   5.738   3.173   4.424 -0.1474 -0.4343  0.0149
 9893TIP3    H151170   5.674   3.133   4.481 -0.4970  0.9495  0.6445
 9893TIP3    H251171   5.819   3.126   4.440 -0.0507  0.3924  2.2408
 9894TIP3   OH251172   6.318   4.024   0.522 -0.5366 -0.4242 -0.9021
 9894TIP3    H151173   6.402   4.000   0.482 -1.1480 -1.2285 -1.7286
 9894TIP3    H251174   6.308   4.117   0.501 -0.1981 -0.5065 -1.4479
 9895TIP3   OH251175   1.870   5.278   0.584  0.3115 -0.0817 -0.0589
 9895TIP3    H151176   1.858   5.267   0.490  1.3225  0.0050 -0.2060
 9895TIP3    H251177   1.948   5.332   0.593 -1.1977  2.0982  0.7748
 9896TIP3   OH251178   1.270   1.661  14.611 -0.4628  0.1746  0.1091
 9896TIP3    H151179   1.269   1.625  14.700 -0.1508 -1.0969 -0.3725
 9896TIP3    H251180   1.179   1.686  14.595 -0.8272 -0.9697  0.2766
 9897TIP3   OH251181   1.567   2.438  11.134  0.2561 -0.5160  0.6480
 9897TIP3    H151182   1.660   2.454  11.123  0.6129 -1.3801  2.2378
 9897TIP3    H251183   1.526   2.524  11.121  1.3220  0.0036  0.6661
 9898TIP3   OH251184   4.524   1.430  13.660  0.2302 -0.0281 -0.1105
 9898TIP3    H151185   4.505   1.343  13.624 -0.1795  0.3538 -0.8336
 9898TIP3    H251186   4.594   1.465  13.604 -0.6749  0.7258 -0.7934
 9899TIP3   OH251187   0.846   3.710  10.769  0.1861  0.7215 -0.0726
 9899TIP3    H151188   0.774   3.739  10.712 -2.5532  0.9746  3.1899
 9899TIP3    H251189   0.864   3.786  10.825  1.7042  0.0216  0.4382
 9900TIP3   OH251190   1.386   6.377  13.100 -0.4631  0.1618 -0.1115
 9900TIP3    H151191   1.318   6.444  13.102 -1.1489 -0.5224  0.1319
 9900TIP3    H251192   1.350   6.304  13.150 -0.7816 -1.3384 -2.3648
 9901TIP3   OH251193   5.982   3.293   0.788  0.0702 -0.0849  0.3477
 9901TIP3    H151194   6.062   3.307   0.738 -0.5548 -0.9383 -0.9550
 9901TIP3    H251195   5.988   3.203   0.820 -0.1794 -0.0114  0.6170
 9902TIP3   OH251196   3.438   1.922  13.999  0.3156  1.4287 -0.9609
 9902TIP3    H151197   3.360   1.927  13.943 -0.8730 -0.6392  0.3949
 9902TIP3    H251198   3.480   1.840  13.974 -0.7968 -0.0859  1.7707
 9903TIP3   OH251199   2.535   5.578   0.555 -0.1535 -0.2915 -0.1131
 9903TIP3    H151200   2.610   5.567   0.613 -1.5219 -0.4782  1.7352
 9903TIP3    H251201   2.473   5.630   0.606 -0.4381  1.8012 -2.4299
 9904TIP3   OH251202   3.117   2.784   3.583  0.3548 -0.0122 -0.1897
 9904TIP3    H151203   3.074   2.751   3.504  1.1780  1.3625 -1.2628
 9904TIP3    H251204   3.180   2.716   3.607 -0.8669 -1.0640  0.1331
 9905TIP3   OH251205   1.844   1.536   2.859  0.1090 -0.4810  0.1492
 9905TIP3    H151206   1.924   1.537   2.805 -0.3864  1.1323 -0.6100
 9905TIP3    H251207   1.781   1.488   2.807  0.1950 -0.5893  0.1450
 9906TIP3   OH251208   5.999   6.146  10.750  0.3684  0.7484  0.3804
 9906TIP3    H151209   5.946   6.204  10.695  0.2685  0.8901  0.6242
 9906TIP3    H251210   5.939   6.116  10.818  0.2384 -0.1795 -0.1256
 9907TIP3   OH251211   6.103   2.077  12.388  0.7075 -0.4611  0.0421
 9907TIP3    H151212   6.023   2.123  12.366  0.8399  0.1469  0.8012
 9907TIP3    H251213   6.106   2.003  12.328 -0.0171 -0.0421 -0.5143
 9908TIP3   OH251214   4.704   0.370   3.315 -0.0659 -0.1810  0.3085
 9908TIP3    H151215   4.772   0.305   3.302 -1.7877 -1.8905 -0.6239
 9908TIP3    H251216   4.725   0.411   3.399  1.8127 -0.9776  0.2697
 9909TIP3   OH251217   6.333   4.582   2.764 -0.2996  0.3118  0.1765
 9909TIP3    H151218   6.307   4.671   2.788 -2.3197 -0.0371 -0.4935
 9909TIP3    H251219   6.383   4.551   2.839  0.0302  1.8300  0.6298
 9910TIP3   OH251220   4.468   3.618   1.685 -0.5047 -0.1263 -0.3848
 9910TIP3    H151221   4.503   3.649   1.601  0.7078 -0.2540  0.0475
 9910TIP3    H251222   4.395   3.677   1.703 -1.1551 -0.4562 -1.8000
 9911TIP3   OH251223   5.798   5.483  16.058 -0.1088 -0.0854  0.3249
 9911TIP3    H151224   5.831   5.399  16.089 -0.6420 -0.5266 -0.2873
 9911TIP3    H251225   5.704   5.472  16.051 -0.0726  0.1960 -0.8221
 9912TIP3   OH251226   0.400   5.495  15.264  0.0401  0.1202 -0.5746
 9912TIP3    H151227   0.472   5.530  15.212  0.6791 -0.2160  0.0707
 9912TIP3    H251228   0.442   5.455  15.340 -0.8155 -0.2421 -0.2774
 9913TIP3   OH251229   2.318   2.656  12.232  0.0629 -0.1163  0.0937
 9913TIP3    H151230   2.388   2.603  12.194  0.6485 -1.1616  2.4520
 9913TIP3    H251231   2.262   2.593  12.277 -0.9139  0.9872  0.4766
 9914TIP3   OH251232   3.720   1.771  13.536  0.0882 -0.4315 -0.0716
 9914TIP3    H151233   3.631   1.738  13.545  0.0932 -1.1066 -2.0586
 9914TIP3    H251234   3.775   1.707  13.581 -0.3250 -0.5432  0.2771
 9915TIP3   OH251235   6.724   5.620   4.636 -0.8076 -0.7563 -0.1793
 9915TIP3    H151236   6.709   5.665   4.552  1.1918 -1.6578 -1.1122
 9915TIP3    H251237   6.725   5.690   4.701  1.0688  0.4763 -1.4301
 9916TIP3   OH251238   6.662   1.932  14.976  0.5067 -0.0560  0.6691
 9916TIP3    H151239   6.646   2.025  14.956  0.8681  0.1982  1.5114
 9916TIP3    H251240   6.608   1.915  15.053  0.3902 -0.5712  0.4756
 9917TIP3   OH251241   1.744   0.834   4.219  0.4868 -0.0400  0.1798
 9917TIP3    H151242   1.698   0.750   4.215 -0.3307  0.3718  0.6536
 9917TIP3    H251243   1.679   0.895   4.255  1.4912  0.5048  1.1163
 9918TIP3   OH251244   3.843   2.869  14.359 -0.3290 -0.8986 -0.3665
 9918TIP3    H151245   3.928   2.827  14.372  0.0096  0.1449  1.0723
 9918TIP3    H251246   3.846   2.900  14.268  1.0438 -0.4608 -0.2054
 9919TIP3   OH251247   4.234   2.633  13.011  0.0050 -0.0306 -0.9772
 9919TIP3    H151248   4.159   2.576  13.027 -1.5844  2.4577  1.2825
 9919TIP3    H251249   4.303   2.600  13.068 -0.6743 -0.0899 -0.1801
 9920TIP3   OH251250   1.288   4.557  15.920  0.5992  0.5117  0.9686
 9920TIP3    H151251   1.219   4.561  15.987 -0.7112  1.7195 -0.3797
 9920TIP3    H251252   1.262   4.484  15.864  1.2979 -0.0288  1.3343
 9921TIP3   OH251253   0.559   3.617  13.073  0.1342  0.7115  0.2152
 9921TIP3    H151254   0.484   3.558  13.075  1.5071 -1.2713 -1.6987
 9921TIP3    H251255   0.539   3.679  13.003  1.4091 -1.6526 -2.4156
 9922TIP3   OH251256   2.489   1.954  12.711 -0.4771 -0.4886 -0.0943
 9922TIP3    H151257   2.512   1.886  12.647 -0.0737 -0.7845  0.3599
 9922TIP3    H251258   2.408   1.924  12.750 -1.6993  0.5500 -1.6899
 9923TIP3   OH251259   2.154   4.840   2.978 -0.2413 -0.4414 -0.0511
 9923TIP3    H151260   2.126   4.765   3.030 -0.3269 -0.4330 -0.0848
 9923TIP3    H251261   2.076   4.866   2.929 -0.0497 -0.7322 -0.5278
 9924TIP3   OH251262   3.451   1.682  15.908  0.8568 -0.3172 -0.0277
 9924TIP3    H151263   3.523   1.622  15.928  1.1274  0.6088  2.1118
 9924TIP3    H251264   3.394   1.677  15.985 -0.9232 -0.3544 -1.2920
 9925TIP3   OH251265   2.623   5.404   1.826 -0.4414 -0.0300  0.1339
 9925TIP3    H151266   2.603   5.472   1.891  0.0137 -0.3449  0.6118
 9925TIP3    H251267   2.574   5.328   1.856  0.5396 -0.4669  0.6680
 9926TIP3   OH251268   5.283   4.000   1.683  0.1642  0.6816  0.0307
 9926TIP3    H151269   5.227   4.055   1.630  1.5580  0.1974 -2.0929
 9926TIP3    H251270   5.242   3.914   1.680 -0.4031  0.9192  0.7882
 9927TIP3   OH251271   1.840   2.854  17.140 -0.1058 -0.7870 -0.2738
 9927TIP3    H151272   1.778   2.790  17.107 -1.3618 -0.2423  0.9353
 9927TIP3    H251273   1.789   2.909  17.200 -0.0154  3.4515 -3.5576
 9928TIP3   OH251274   3.186   6.346  15.598 -0.2807  0.4888 -0.6085
 9928TIP3    H151275   3.114   6.300  15.555 -0.7791 -0.3011  1.0006
 9928TIP3    H251276   3.160   6.438  15.597 -0.8356  0.3334 -0.9215
 9929TIP3   OH251277   5.562   6.614   0.679 -0.4297 -0.4901 -0.1552
 9929TIP3    H151278   5.565   6.605   0.774  0.2031  1.0832  0.0005
 9929TIP3    H251279   5.570   6.524   0.646 -0.1433 -1.0029  1.2545
 9930TIP3   OH251280   5.409   5.825   1.320 -0.2609  0.3491  0.1358
 9930TIP3    H151281   5.500   5.834   1.295  0.5018 -1.0429  2.1459
 9930TIP3    H251282   5.391   5.902   1.374 -0.8110  1.4407 -1.5164
 9931TIP3   OH251283   1.687   3.163   4.805  0.0586  0.4393 -0.9956
 9931TIP3    H151284   1.623   3.156   4.876  0.0058 -0.9407 -1.1533
 9931TIP3    H251285   1.763   3.115   4.836 -0.0713 -0.4407 -1.9851
 9932TIP3   OH251286   3.283   0.352  15.179  0.0274  0.7862  0.2355
 9932TIP3    H151287   3.189   0.367  15.183 -0.2586 -0.7876 -0.2220
 9932TIP3    H251288   3.321   0.440  15.186 -1.3803  1.2822  2.4856
 9933TIP3   OH251289   0.455   5.870   0.488 -0.1973  0.3875 -0.7490
 9933TIP3    H151290   0.448   5.832   0.575 -0.2028 -1.0585 -1.3553
 9933TIP3    H251291   0.386   5.828   0.437  0.0793  0.8830 -1.5713
 9934TIP3   OH251292   5.833   5.715  12.983  0.1614  0.3843 -0.3542
 9934TIP3    H151293   5.902   5.670  13.032 -0.8884 -1.5427 -0.5541
 9934TIP3    H251294   5.855   5.700  12.891 -0.4526 -0.1833 -0.4180
 9935TIP3   OH251295   6.032   4.011  14.567  0.3910  0.3722  0.6813
 9935TIP3    H151296   6.092   3.937  14.564 -0.9723 -0.7745  0.6200
 9935TIP3    H251297   6.084   4.083  14.605  1.4174 -0.9208  1.8258
 9936TIP3   OH251298   1.119   5.633   4.704 -0.3318  0.2472 -0.2132
 9936TIP3    H151299   1.060   5.684   4.759 -1.0079  0.7812 -1.4005
 9936TIP3    H251300   1.167   5.577   4.766 -0.8220  1.0562  0.9365
 9937TIP3   OH251301   5.060   2.423   0.790 -0.5309  0.0843  0.7159
 9937TIP3    H151302   5.144   2.381   0.770 -0.0998  0.8006  0.9626
 9937TIP3    H251303   5.060   2.434   0.885 -0.2657  1.3461  0.5935
 9938TIP3   OH251304   3.501   2.213  11.483  0.4025 -0.0341  0.5424
 9938TIP3    H151305   3.518   2.295  11.529  0.0759 -0.1664  0.9178
 9938TIP3    H251306   3.483   2.238  11.393  1.6332  0.1776  0.3516
 9939TIP3   OH251307   1.021   5.429   6.701  0.2405  0.3242 -0.0732
 9939TIP3    H151308   1.074   5.351   6.718  1.4179  0.6283 -2.0502
 9939TIP3    H251309   0.981   5.413   6.616 -1.5674  0.8342  0.6322
 9940TIP3   OH251310   3.179   1.543  13.429 -0.2117  0.0772 -0.2207
 9940TIP3    H151311   3.093   1.517  13.463  0.1144  0.0927  0.6622
 9940TIP3    H251312   3.164   1.559  13.336 -2.2337  4.5416  0.6110
 9941TIP3   OH251313   6.553   5.490  11.562 -0.3334  0.4287  0.0430
 9941TIP3    H151314   6.591   5.565  11.606 -0.8524 -0.3678  1.9204
 9941TIP3    H251315   6.497   5.528  11.494  0.7048  1.6709 -0.1647
 9942TIP3   OH251316   2.764   4.025   1.071  0.5433  0.8159 -0.2437
 9942TIP3    H151317   2.835   4.012   1.008 -0.8006  0.0441 -1.6719
 9942TIP3    H251318   2.697   4.072   1.022 -0.3581  0.5952  0.7426
 9943TIP3   OH251319   2.553   3.358  15.867  0.2114 -0.4318  0.0183
 9943TIP3    H151320   2.631   3.335  15.816 -0.5790 -0.5639 -1.1609
 9943TIP3    H251321   2.562   3.308  15.948  2.0087  0.5644  0.5077
 9944TIP3   OH251322   3.051   3.446  11.104 -0.0763 -0.4593 -0.5857
 9944TIP3    H151323   2.959   3.423  11.115 -0.3775  1.4026  1.3797
 9944TIP3    H251324   3.097   3.362  11.113 -1.2982 -0.9621  3.4342
 9945TIP3   OH251325   4.816   4.498   1.357 -0.1472  0.0247  0.1629
 9945TIP3    H151326   4.865   4.540   1.427  0.3098 -0.4402  0.1339
 9945TIP3    H251327   4.732   4.475   1.396  0.1797 -0.4124  0.6300
 9946TIP3   OH251328   5.507   2.644  11.913  0.0769 -0.0663  0.0549
 9946TIP3    H151329   5.445   2.689  11.970 -0.8903  0.0765 -1.0638
 9946TIP3    H251330   5.591   2.650  11.959 -0.9221 -1.3664  2.2184
 9947TIP3   OH251331   0.988   4.447   0.811  0.9811  0.4593 -0.0972
 9947TIP3    H151332   1.022   4.484   0.892  0.6752 -1.0687  0.7796
 9947TIP3    H251333   0.922   4.510   0.782  1.0231  0.9922  0.9018
 9948TIP3   OH251334   4.989   2.822   0.314  0.2711 -0.2546 -0.4664
 9948TIP3    H151335   4.914   2.772   0.346  0.4975 -1.4750 -1.7388
 9948TIP3    H251336   5.065   2.767   0.335  0.6552  0.1826 -0.6901
 9949TIP3   OH251337   1.391   0.997   5.020  0.1621 -0.4990 -0.2085
 9949TIP3    H151338   1.359   1.036   5.101  3.8258  1.0326  0.7021
 9949TIP3    H251339   1.393   0.903   5.037 -1.2404 -0.4103  0.5814
 9950TIP3   OH251340   2.404   4.171   5.701 -0.7008  0.3546 -0.1411
 9950TIP3    H151341   2.434   4.084   5.727 -1.8738 -0.4390 -1.3118
 9950TIP3    H251342   2.308   4.164   5.700 -0.8648  1.9311  0.5996
 9951TIP3   OH251343   3.029   2.335  16.299 -0.1468 -0.3009 -0.1737
 9951TIP3    H151344   3.031   2.388  16.219 -1.3268 -0.5815 -0.4032
 9951TIP3    H251345   3.120   2.309  16.312  0.1653  0.2870 -1.0582
 9952TIP3   OH251346   1.734   3.810   1.824  0.0241 -0.4676  0.1016
 9952TIP3    H151347   1.647   3.782   1.853 -0.4180 -0.0589 -0.8052
 9952TIP3    H251348   1.787   3.810   1.904 -0.9559 -0.1513  0.7634
 9953TIP3   OH251349   4.281   0.563  16.393  0.0674 -0.7036 -0.3189
 9953TIP3    H151350   4.329   0.494  16.348 -0.6259 -1.2835 -0.1731
 9953TIP3    H251351   4.274   0.533  16.483  0.1106 -0.2541 -0.1616
 9954TIP3   OH251352   1.469   5.659  14.331  0.3171  0.1664  0.1009
 9954TIP3    H151353   1.523   5.735  14.310  1.1687  0.0741  1.8099
 9954TIP3    H251354   1.418   5.687  14.407 -2.4303  0.3927 -1.6756
 9955TIP3   OH251355   5.261   0.752  14.990  0.7525 -0.0420  0.1823
 9955TIP3    H151356   5.184   0.752  15.047  0.4866 -0.4080 -0.1722
 9955TIP3    H251357   5.332   0.785  15.045  0.2432  0.7543  0.3776
 9956TIP3   OH251358   6.455   2.755  16.406  0.2508  0.0051  0.4549
 9956TIP3    H151359   6.478   2.664  16.390 -0.0044  0.1079 -0.6149
 9956TIP3    H251360   6.419   2.785  16.322  0.6181  1.1739  0.7004
 9957TIP3   OH251361   2.811   2.263   5.094 -0.1639  0.2264 -0.1622
 9957TIP3    H151362   2.843   2.287   5.007 -0.9845  0.8963 -0.2876
 9957TIP3    H251363   2.890   2.260   5.149  0.4155 -0.6483 -1.0152
 9958TIP3   OH251364   2.409   1.191   2.428  0.2060 -0.2652 -0.1530
 9958TIP3    H151365   2.487   1.139   2.405 -0.3518 -1.4964  0.6614
 9958TIP3    H251366   2.430   1.228   2.513  0.6295  0.9374 -0.7636
 9959TIP3   OH251367   1.078   0.402  15.963  0.0917  0.0969 -0.2682
 9959TIP3    H151368   1.034   0.484  15.942 -0.1176 -0.4747 -2.2756
 9959TIP3    H251369   1.012   0.350  16.008 -0.8949 -0.1985 -1.9635
 9960TIP3   OH251370   0.090   6.235   2.645  0.3683  0.0221  0.1322
 9960TIP3    H151371   0.017   6.274   2.693 -0.3097 -0.9203 -0.1009
 9960TIP3    H251372   0.140   6.309   2.612 -1.7692  0.7471 -1.6836
 9961TIP3   OH251373   0.890   2.443  15.008 -0.1718  0.0856  0.2989
 9961TIP3    H151374   0.965   2.501  15.022 -0.0882  0.1264 -0.3238
 9961TIP3    H251375   0.837   2.453  15.087  0.2967  0.3272  0.5876
 9962TIP3   OH251376   5.728   2.366   2.221  0.3570  0.0427  0.0016
 9962TIP3    H151377   5.754   2.412   2.141 -0.3227  1.0779  0.3500
 9962TIP3    H251378   5.633   2.373   2.223  0.3222 -0.5153  0.5895
 9963TIP3   OH251379   4.884   1.242  14.162  0.1381 -0.1208  0.1542
 9963TIP3    H151380   4.882   1.321  14.108  0.3445  0.9236  1.6334
 9963TIP3    H251381   4.902   1.273  14.250 -0.2538 -1.7861  0.8599
 9964TIP3   OH251382   1.553   0.060   5.877  0.2531  0.5184 -0.1809
 9964TIP3    H151383   1.526   0.144   5.840  1.5504  0.4251 -1.3979
 9964TIP3    H251384   1.623   0.082   5.938 -0.4948  0.4569  0.7303
 9965TIP3   OH251385   3.696   6.644   6.006 -0.0311  0.1064  0.1034
 9965TIP3    H151386   3.627   6.638   5.941 -0.1979 -0.6743  0.3429
 9965TIP3    H251387   3.659   6.697   6.076 -0.3862 -0.2940  0.2226
 9966TIP3   OH251388   1.967   2.850  11.752 -0.4776  0.7468  0.5582
 9966TIP3    H151389   1.912   2.843  11.674  0.3099 -0.0465  0.0508
 9966TIP3    H251390   1.981   2.759  11.780  1.3622  0.8453  0.0872
 9967TIP3   OH251391   2.292   2.688  12.971 -0.4800  0.0822 -0.7025
 9967TIP3    H151392   2.276   2.703  12.878  0.2062  1.4195 -0.6336
 9967TIP3    H251393   2.349   2.761  12.998  0.1764 -0.8439  0.5305
 9968TIP3   OH251394   6.580   0.514  13.121  0.0272  0.4887  0.3877
 9968TIP3    H151395   6.557   0.515  13.028  0.6023 -0.1558  0.2249
 9968TIP3    H251396   6.637   0.590  13.133 -1.2578  1.4409  0.5515
 9969TIP3   OH251397   2.270   0.241   2.307 -0.3660 -0.3168 -0.4910
 9969TIP3    H151398   2.184   0.203   2.292 -0.4636  0.6875 -2.8298
 9969TIP3    H251399   2.253   0.328   2.341 -0.2038 -0.7369  0.7267
 9970TIP3   OH251400   6.649   4.410  13.442  0.2530  0.1766 -0.0925
 9970TIP3    H151401   6.663   4.504  13.453  1.0909 -0.0838  1.3845
 9970TIP3    H251402   6.569   4.392  13.491 -0.2450  0.1934 -0.8763
 9971TIP3   OH251403   4.257   2.637   4.989 -0.5569  0.2080 -0.8850
 9971TIP3    H151404   4.189   2.572   4.978  0.8982 -1.3767 -0.9744
 9971TIP3    H251405   4.222   2.699   5.054 -1.5942 -1.2250 -0.0361
 9972TIP3   OH251406   3.704   5.299  11.258 -0.0060  0.5244  0.0067
 9972TIP3    H151407   3.765   5.257  11.196 -0.2292 -2.3929  1.6161
 9972TIP3    H251408   3.617   5.277  11.225 -0.2198  2.1347 -0.6106
 9973TIP3   OH251409   4.449   3.185  16.449  0.7082 -0.1510 -0.1206
 9973TIP3    H151410   4.365   3.227  16.431 -0.5564 -2.4412  0.0770
 9973TIP3    H251411   4.493   3.244  16.510 -1.2008  0.6160  0.5666
 9974TIP3   OH251412   0.922   6.420   1.460 -0.6730 -0.0603  0.5613
 9974TIP3    H151413   0.989   6.483   1.434 -1.9436  1.0387 -0.1879
 9974TIP3    H251414   0.876   6.462   1.533 -2.7042  0.7732 -1.0993
 9975TIP3   OH251415   1.977   5.045   1.809  0.3239 -0.8394  0.1790
 9975TIP3    H151416   1.891   5.086   1.811 -0.3074 -1.8581 -2.6182
 9975TIP3    H251417   2.037   5.116   1.835 -1.1956  0.2151  1.0076
 9976TIP3   OH251418   6.288   5.086   1.848 -0.3637  0.8189 -0.4010
 9976TIP3    H151419   6.273   5.120   1.936  1.7517  0.6695  0.0568
 9976TIP3    H251420   6.242   5.148   1.791 -3.2609 -0.0210  0.8090
 9977TIP3   OH251421   6.607   1.233  15.212  0.1450  0.0591 -0.0176
 9977TIP3    H151422   6.620   1.138  15.216  0.0711 -0.0082 -1.0910
 9977TIP3    H251423   6.551   1.246  15.136  1.9999  1.1540 -1.2523
 9978TIP3   OH251424   4.879   3.049   4.550  0.0009  0.5371  0.5746
 9978TIP3    H151425   4.838   3.087   4.472  0.2177 -0.2196  0.0878
 9978TIP3    H251426   4.890   2.956   4.529  1.4065  0.5951  0.9291
 9979TIP3   OH251427   3.099   4.494  13.743 -0.3772 -0.0285  0.5016
 9979TIP3    H151428   3.029   4.525  13.685 -0.3199  0.0927  0.4985
 9979TIP3    H251429   3.153   4.571  13.759  1.8473 -0.8054 -2.4101
 9980TIP3   OH251430   6.366   1.317  14.443 -0.0194  0.2811 -0.4166
 9980TIP3    H151431   6.327   1.244  14.395 -0.7720  0.3657  0.0494
 9980TIP3    H251432   6.456   1.321  14.411 -0.2735 -0.1705 -1.2334
 9981TIP3   OH251433   6.245   4.392  15.696  0.2484 -0.1443 -0.8489
 9981TIP3    H151434   6.261   4.340  15.617  1.9157 -0.0553 -0.5988
 9981TIP3    H251435   6.150   4.404  15.698  0.1346 -0.5441 -2.5860
 9982TIP3   OH251436   2.505   5.209  10.987  0.6110 -0.4705  0.0274
 9982TIP3    H151437   2.469   5.296  10.973 -0.4724 -0.7171  1.0759
 9982TIP3    H251438   2.586   5.224  11.037  0.1854 -0.0746  0.6128
 9983TIP3   OH251439   5.829   1.748   4.066  0.2698  0.3525  0.3304
 9983TIP3    H151440   5.780   1.789   4.138  0.8312 -0.7171  1.3719
 9983TIP3    H251441   5.762   1.702   4.015  0.0472 -0.3795  1.2444
 9984TIP3   OH251442   1.806   1.885  14.322 -0.2714 -0.5309 -0.7512
 9984TIP3    H151443   1.882   1.906  14.376  0.0882 -1.2129 -0.9809
 9984TIP3    H251444   1.772   1.803  14.357 -0.6867 -0.4196 -0.8793
 9985TIP3   OH251445   6.042   4.009  15.685  0.4426 -0.0880  0.1318
 9985TIP3    H151446   6.048   4.054  15.601 -0.4559  1.2327  0.7408
 9985TIP3    H251447   5.950   3.983  15.692  0.2995  0.6135  1.0837
 9986TIP3   OH251448   2.001   3.494  13.389  0.2366 -0.1602  0.1307
 9986TIP3    H151449   2.094   3.507  13.408  0.0625 -0.9735  1.6534
 9986TIP3    H251450   1.956   3.527  13.466 -0.5665 -2.7071  0.8514
 9987TIP3   OH251451   1.190   0.418  11.228 -0.0832  0.5081  0.3347
 9987TIP3    H151452   1.180   0.417  11.132 -0.8924 -1.1912  0.3964
 9987TIP3    H251453   1.117   0.365  11.260 -0.9399  2.5700  2.0360
 9988TIP3   OH251454   5.154   4.770  15.637 -0.0526  0.0302 -0.1376
 9988TIP3    H151455   5.119   4.746  15.552 -0.6828 -0.3082  0.2101
 9988TIP3    H251456   5.173   4.687  15.680  0.1769  0.1968  0.0921
 9989TIP3   OH251457   4.370   1.309   0.160 -0.2934  0.2651  0.7478
 9989TIP3    H151458   4.309   1.373   0.196 -0.6142 -0.3094  1.2374
 9989TIP3    H251459   4.390   1.342   0.073 -1.5260  0.3112  0.4617
 9990TIP3   OH251460   1.282   6.344   1.475  0.9952  0.3774  0.2095
 9990TIP3    H151461   1.377   6.349   1.490  0.9428  1.8484  0.2299
 9990TIP3    H251462   1.265   6.410   1.408  0.3270 -1.7112 -1.7832
 9991TIP3   OH251463   1.348   6.753  12.187 -0.1955  0.0074 -0.2172
 9991TIP3    H151464   1.322   6.762  12.095 -2.4970  0.4619  0.4311
 9991TIP3    H251465   1.341   6.841  12.223  1.0692 -0.0929  0.3486
 9992TIP3   OH251466   1.931   0.630  13.080  0.0406  0.0601  0.5510
 9992TIP3    H151467   1.918   0.536  13.071 -0.7064  0.3004 -1.2532
 9992TIP3    H251468   1.899   0.651  13.168 -0.1756 -1.2932  0.8058
 9993TIP3   OH251469   0.260   0.317   3.709 -0.0081 -0.3225 -0.2144
 9993TIP3    H151470   0.293   0.362   3.632 -0.3696  1.6127  0.7183
 9993TIP3    H251471   0.318   0.345   3.780 -0.9538 -0.4092  0.6064
 9994TIP3   OH251472   5.920   5.915  14.606 -0.0262  0.2500  0.2264
 9994TIP3    H151473   6.014   5.919  14.624  0.1936  3.3738 -0.9364
 9994TIP3    H251474   5.878   5.940  14.689  0.0801 -1.3899  0.8183
 9995TIP3   OH251475   4.413   1.445   1.971  0.0694  0.1231 -0.0864
 9995TIP3    H151476   4.352   1.450   1.897 -0.2399 -2.1105 -0.0468
 9995TIP3    H251477   4.499   1.458   1.931 -0.1463 -0.4372 -0.7549
 9996TIP3   OH251478   3.754   3.463   0.993  0.0882 -0.4606 -0.5223
 9996TIP3    H151479   3.812   3.505   0.930  0.8077 -0.5515  0.0625
 9996TIP3    H251480   3.749   3.525   1.066 -0.1158 -0.6883 -0.3423
 9997TIP3   OH251481   1.879   0.198  13.956 -0.1173 -0.7012 -0.0691
 9997TIP3    H151482   1.957   0.154  13.921 -0.0094  0.3396 -1.1976
 9997TIP3    H251483   1.906   0.288  13.971 -1.4211  0.0224 -1.7277
 9998TIP3   OH251484   2.887   6.568  11.682 -0.9748 -1.0103  0.0195
 9998TIP3    H151485   2.908   6.658  11.706 -0.4391 -1.0374 -0.3235
 9998TIP3    H251486   2.914   6.516  11.758  1.0059 -1.1287 -0.7001
 9999TIP3   OH251487   5.460   3.057  17.044  0.0064  0.1349 -0.3624
 9999TIP3    H151488   5.537   3.007  17.017 -0.4481 -0.2827 -0.9057
 9999TIP3    H251489   5.416   3.001  17.108  0.0753  0.3065 -0.1656
10000TIP3   OH251490   3.236   5.013   0.681  0.1077 -0.4216  0.1093
10000TIP3    H151491   3.272   4.991   0.595 -0.2342 -0.5650  0.0005
10000TIP3    H251492   3.311   5.008   0.741  0.3533 -0.2872 -0.1851
10001TIP3   OH251493   5.272   0.290  15.351 -0.4963 -0.0713  0.6143
10001TIP3    H151494   5.360   0.321  15.330  0.0685 -1.5442  0.7349
10001TIP3    H251495   5.232   0.364  15.397  0.1733  1.1386 -0.6471
10002TIP3   OH251496   3.726   4.538   4.065  0.0114  0.2413 -0.2582
10002TIP3    H151497   3.671   4.577   4.133 -0.5662  0.7752 -1.0277
10002TIP3    H251498   3.726   4.601   3.994  2.1679  0.5654 -0.0391
10003TIP3   OH251499   6.264   1.047   3.537 -0.3471 -0.2459 -0.1339
10003TIP3    H151500   6.296   1.008   3.456  0.3154 -0.2788  0.1432
10003TIP3    H251501   6.294   1.137   3.534  0.6705 -0.5540  0.6107
10004TIP3   OH251502   1.049   2.636  14.659  0.4640  0.0690  1.0170
10004TIP3    H151503   1.039   2.548  14.695  2.9886  0.4559  2.9900
10004TIP3    H251504   1.114   2.678  14.716  0.1934  2.8434 -0.5278
10005TIP3   OH251505   4.619   5.642  12.283 -0.1791  0.6107  0.2014
10005TIP3    H151506   4.526   5.620  12.276 -0.0246  0.3531 -1.9211
10005TIP3    H251507   4.620   5.727  12.328 -1.3702  0.2465  0.9652
10006TIP3   OH251508   1.233   2.918  14.097  1.0412 -0.1850  0.7357
10006TIP3    H151509   1.253   2.991  14.156  1.2658  0.0452  0.3786
10006TIP3    H251510   1.146   2.889  14.125 -1.2672  3.2308 -2.0198
10007TIP3   OH251511   2.907   3.224  14.640  0.0379  0.3253  0.0725
10007TIP3    H151512   2.863   3.251  14.721  0.6611  1.6859 -0.0186
10007TIP3    H251513   2.889   3.130  14.633 -1.1221  0.4526  1.0955
10008TIP3   OH251514   4.651   0.666  13.496  0.6369  0.0547  0.3481
10008TIP3    H151515   4.613   0.682  13.409 -0.5652 -1.7853  0.4974
10008TIP3    H251516   4.745   0.662  13.480  0.5657  1.3165 -0.5814
10009TIP3   OH251517   4.586   2.256   1.785  0.1936 -0.3438 -0.3518
10009TIP3    H151518   4.661   2.207   1.820 -0.9963 -1.5067  0.6804
10009TIP3    H251519   4.574   2.221   1.696  0.2919 -0.8551 -0.1687
10010TIP3   OH251520   1.669   3.564   4.680 -0.3392 -0.5946 -0.5152
10010TIP3    H151521   1.637   3.528   4.597  0.8635 -4.0560  0.3605
10010TIP3    H251522   1.589   3.591   4.726 -1.1223  0.1527 -2.2048
10011TIP3   OH251523   3.228   0.714  15.775  0.0391 -0.3707  0.0235
10011TIP3    H151524   3.298   0.666  15.731 -0.8420 -2.3681  0.7125
10011TIP3    H251525   3.235   0.687  15.867 -0.1931  1.2298  0.5453
10012TIP3   OH251526   4.305   6.235   1.105  0.4916 -0.6316 -0.1634
10012TIP3    H151527   4.376   6.203   1.050  1.7043  1.5395  0.0418
10012TIP3    H251528   4.329   6.324   1.127 -1.3807 -0.4568  1.5255
10013TIP3   OH251529   3.645   3.733   0.846  0.1861 -0.0392  0.3761
10013TIP3    H151530   3.707   3.804   0.833 -0.6385  0.6979  0.3385
10013TIP3    H251531   3.691   3.654   0.816  1.0178  0.5123  0.1735
10014TIP3   OH251532   3.192   2.125   3.221  0.5819 -0.3641  0.5677
10014TIP3    H151533   3.139   2.056   3.181 -0.5763 -0.0313  1.4502
10014TIP3    H251534   3.172   2.203   3.170  1.0001 -0.4417  0.2833
10015TIP3   OH251535   5.123   4.180   5.580 -0.4824 -0.0081 -0.7651
10015TIP3    H151536   5.090   4.109   5.524 -0.8475 -0.0666 -0.4763
10015TIP3    H251537   5.209   4.149   5.609 -1.3655 -1.1552  0.8107
10016TIP3   OH251538   0.846   2.745   2.507  0.1054 -0.6417 -0.1746
10016TIP3    H151539   0.835   2.663   2.556 -0.5318 -1.1822 -1.1816
10016TIP3    H251540   0.939   2.747   2.483  0.1494 -1.0155 -0.0418
10017TIP3   OH251541   5.763   3.266  14.524  0.0257 -0.5059 -0.1725
10017TIP3    H151542   5.742   3.332  14.458 -1.5603 -0.3758  0.4273
10017TIP3    H251543   5.813   3.314  14.590 -0.6123 -0.0333 -0.0256
10018TIP3   OH251544   5.958   6.807  13.467 -0.2046  0.7488 -0.1894
10018TIP3    H151545   6.020   6.851  13.409  1.2057  0.2240  0.8514
10018TIP3    H251546   5.962   6.858  13.548 -0.9764  0.5778 -0.0393
10019TIP3   OH251547   3.101   5.981  12.214 -0.0272  0.2785  0.2948
10019TIP3    H151548   3.064   5.920  12.150 -0.4507  1.8280 -1.0053
10019TIP3    H251549   3.025   6.012  12.263 -0.0143  0.8698 -0.0543
10020TIP3   OH251550   4.639   2.865   5.058 -0.6128 -0.0265 -0.8978
10020TIP3    H151551   4.561   2.908   5.094 -0.2417 -0.6268  0.7071
10020TIP3    H251552   4.612   2.838   4.970 -2.1854 -0.1066 -0.4341
10021TIP3   OH251553   1.451   4.952  12.346  0.3213 -0.2445  0.4011
10021TIP3    H151554   1.389   4.933  12.417  0.6703  0.5729  0.9330
10021TIP3    H251555   1.512   5.015  12.383  0.7644 -0.1265 -0.5008
10022TIP3   OH251556   1.395   4.630  12.559 -0.8052  0.6742  0.2642
10022TIP3    H151557   1.423   4.720  12.579  0.2823  0.5704 -0.6679
10022TIP3    H251558   1.416   4.620  12.466 -1.5899 -0.3140  0.1847
10023TIP3   OH251559   4.173   2.883   5.444  0.4545 -0.1408  0.0081
10023TIP3    H151560   4.103   2.831   5.483 -0.2198  2.2569  2.3334
10023TIP3    H251561   4.253   2.852   5.486  0.2900 -0.3979  0.1320
10024TIP3   OH251562   4.665   4.517   1.788  0.3740  0.2443  0.6336
10024TIP3    H151563   4.649   4.433   1.832  0.4718  0.7918  1.7495
10024TIP3    H251564   4.711   4.569   1.854  2.3299  0.4201 -0.7804
10025TIP3   OH251565   4.415   1.024  14.216  0.7032 -0.5640  0.2755
10025TIP3    H151566   4.455   1.049  14.300 -0.9110 -0.6112  1.1116
10025TIP3    H251567   4.350   1.092  14.199  1.1898 -0.4186 -1.0863
10026TIP3   OH251568   5.021   4.801   2.163 -0.1257  0.4541 -0.2076
10026TIP3    H151569   5.033   4.710   2.189  0.3026  0.7246  0.5867
10026TIP3    H251570   4.942   4.829   2.209  1.7635  1.5563  2.7250
10027TIP3   OH251571   2.889   2.225  16.880 -0.0359  0.6106  0.3486
10027TIP3    H151572   2.956   2.235  16.812  1.3624  0.0821  1.5972
10027TIP3    H251573   2.920   2.152  16.933 -1.9026 -0.0120  0.6644
10028TIP3   OH251574   6.574   1.373   5.054  0.5042  0.3217 -0.0383
10028TIP3    H151575   6.568   1.302   4.990  1.3094  0.8925 -0.7806
10028TIP3    H251576   6.647   1.347   5.111  0.2908  0.1819  0.1708
10029TIP3   OH251577   3.807   2.011   2.221 -0.1518 -0.1458  0.1605
10029TIP3    H151578   3.879   2.052   2.174  0.7765 -1.3019  0.5154
10029TIP3    H251579   3.779   2.076   2.285  0.3014  0.4752 -0.2674
10030TIP3   OH251580   6.459   5.570   4.272  0.5274 -0.0742 -0.6020
10030TIP3    H151581   6.445   5.613   4.356  0.4715  0.2531 -0.7792
10030TIP3    H251582   6.373   5.539   4.246  0.4290  0.4002 -0.8514
10031TIP3   OH251583   2.305   6.026  11.471 -0.1614 -0.0843  0.3081
10031TIP3    H151584   2.384   6.003  11.520  0.4863  1.8076  0.2524
10031TIP3    H251585   2.287   6.116  11.497 -1.6183 -0.0853 -0.6017
10032TIP3   OH251586   1.500   2.741  11.550 -0.3717  0.1788 -0.1991
10032TIP3    H151587   1.421   2.788  11.525  0.1516  0.4448 -1.4207
10032TIP3    H251588   1.483   2.650  11.525 -0.0958  0.3315 -0.9639
10033TIP3   OH251589   5.071   2.641  14.361  0.5554  0.4425 -0.3492
10033TIP3    H151590   5.037   2.700  14.428 -0.2393 -0.1932 -0.1744
10033TIP3    H251591   5.161   2.623  14.388  0.2685  0.2570  0.5128
10034TIP3   OH251592   5.797   2.110   2.177  0.1558  0.3949 -0.0277
10034TIP3    H151593   5.764   2.200   2.181  0.6163  0.6820 -1.6623
10034TIP3    H251594   5.788   2.085   2.085  0.0013 -1.2622  0.4022
10035TIP3   OH251595   5.835   0.082  17.160 -0.2259 -0.7636 -0.1359
10035TIP3    H151596   5.896   0.078  17.086 -1.0246 -2.4596 -0.7430
10035TIP3    H251597   5.865   0.014  17.220  0.1387  0.2964  0.9153
10036TIP3   OH251598   1.043   1.949  15.178  0.3737 -0.3067  0.0602
10036TIP3    H151599   1.001   1.879  15.227  0.7336 -0.8121 -0.3412
10036TIP3    H251600   0.981   2.022  15.182 -2.1749 -2.0091 -3.3179
10037TIP3   OH251601   6.356   5.014   5.317  0.0603 -0.3803 -0.5654
10037TIP3    H151602   6.301   4.946   5.276  0.7733 -0.1123 -2.0518
10037TIP3    H251603   6.350   4.996   5.410 -0.9433 -1.5921 -0.8218
10038TIP3   OH251604   5.016   5.565  13.356 -0.4988  0.2315  0.0642
10038TIP3    H151605   4.988   5.614  13.279 -0.1031  1.5114  0.7121
10038TIP3    H251606   5.110   5.581  13.362 -0.4867 -0.0232  0.6863
10039TIP3   OH251607   4.940   5.896   5.374  0.5871  0.0438  0.0593
10039TIP3    H151608   4.933   5.812   5.329  0.5950 -0.3326  0.7492
10039TIP3    H251609   4.975   5.956   5.307 -0.6106 -0.1827 -0.7969
10040TIP3   OH251610   2.967   0.167  13.215  0.4238 -0.0506  0.0377
10040TIP3    H151611   2.873   0.187  13.209  0.1429 -0.8253  1.3611
10040TIP3    H251612   2.974   0.114  13.294  1.9197 -0.4302 -0.3360
10041TIP3   OH251613   3.581   4.885   2.144  0.1535 -0.1334  0.1741
10041TIP3    H151614   3.515   4.823   2.112 -0.6178  1.5082 -1.6006
10041TIP3    H251615   3.664   4.848   2.115 -0.4791  1.2469 -4.1172
10042TIP3   OH251616   3.146   2.081  17.162 -0.3767 -0.5551 -0.4157
10042TIP3    H151617   3.121   2.171  17.144  2.2918 -0.1503 -2.6940
10042TIP3    H251618   3.107   2.030  17.091 -1.5201 -1.1991  0.6305
10043TIP3   OH251619   2.619   6.637  15.748  0.3107 -0.0360  0.3322
10043TIP3    H151620   2.575   6.552  15.744  1.2397 -0.6983  2.4129
10043TIP3    H251621   2.559   6.697  15.704 -0.8459 -1.5665 -0.3041
10044TIP3   OH251622   5.940   4.194  15.433 -0.0770 -0.5618 -0.1483
10044TIP3    H151623   5.847   4.213  15.424  0.0921  0.7784  0.6358
10044TIP3    H251624   5.974   4.198  15.344 -0.2727  2.0096 -0.2032
10045TIP3   OH251625   3.516   0.304  16.320 -0.4079 -0.1927 -0.1949
10045TIP3    H151626   3.505   0.388  16.276 -0.8033 -1.6864 -3.1842
10045TIP3    H251627   3.597   0.268  16.283 -0.8479 -1.6160  0.1623
10046TIP3   OH251628   5.659   5.738  14.637 -0.6989 -0.2147  0.7936
10046TIP3    H151629   5.725   5.803  14.663 -1.2523  0.5886  0.2297
10046TIP3    H251630   5.655   5.745  14.542 -2.2786  0.4369  0.8771
10047TIP3   OH251631   1.638   2.748  13.088  0.3238 -0.4683  0.3728
10047TIP3    H151632   1.543   2.752  13.075  0.4650  0.9638 -0.4759
10047TIP3    H251633   1.649   2.705  13.173 -1.0668 -0.9208  0.3512
10048TIP3   OH251634   1.356   0.885  10.547 -0.2073 -0.0720 -0.1768
10048TIP3    H151635   1.303   0.839  10.481 -2.2694  1.3755  0.3642
10048TIP3    H251636   1.299   0.955  10.578  2.0261  1.4983  0.5909
10049TIP3   OH251637   6.231   3.271  17.043  0.4057  0.3089  0.3085
10049TIP3    H151638   6.205   3.284  16.952  1.6775  0.7155 -0.0197
10049TIP3    H251639   6.238   3.176  17.053 -3.3500 -0.0559  1.0870
10050TIP3   OH251640   1.668   0.705  16.085  0.1060 -0.3270 -0.2844
10050TIP3    H151641   1.673   0.771  16.155  1.2853 -0.6538 -0.0422
10050TIP3    H251642   1.576   0.680  16.083 -0.2734  0.9570 -0.0403
10051TIP3   OH251643   4.526   3.784  15.527  0.2225 -0.6033  0.2744
10051TIP3    H151644   4.472   3.710  15.555  1.3529 -1.4117  0.3998
10051TIP3    H251645   4.600   3.743  15.482  1.0606  0.4434  0.6729
10052TIP3   OH251646   1.903   5.989   2.982  0.3051  0.1328 -0.2506
10052TIP3    H151647   1.899   5.908   3.034 -0.8943 -0.4140 -1.1469
10052TIP3    H251648   1.916   6.058   3.047 -0.4411 -0.6014  0.7202
10053TIP3   OH251649   2.511   4.981  14.086  0.1472 -0.2416 -0.5512
10053TIP3    H151650   2.550   5.054  14.134  0.0824 -0.6858  0.2036
10053TIP3    H251651   2.582   4.947  14.032  0.6472 -0.6228  0.3115
10054TIP3   OH251652   4.046   4.699  14.641  0.8772  0.1954  0.6848
10054TIP3    H151653   4.106   4.699  14.715  0.4856 -1.5345  1.0490
10054TIP3    H251654   4.070   4.621  14.590  0.7801  1.0459 -0.7270
10055TIP3   OH251655   2.135   6.833   6.361  0.5643  0.0690  0.3146
10055TIP3    H151656   2.107   6.921   6.387  1.1657  0.6484 -0.9052
10055TIP3    H251657   2.102   6.776   6.430 -1.4673  1.0139  0.1934
10056TIP3   OH251658   5.465   1.763   1.806  0.0124 -0.3917  0.1205
10056TIP3    H151659   5.521   1.708   1.752  0.9143  0.5687  0.0564
10056TIP3    H251660   5.387   1.710   1.822  0.5818 -1.4263 -0.4820
10057TIP3   OH251661   4.800   6.044  11.467 -0.3654  0.0687 -0.1280
10057TIP3    H151662   4.854   5.978  11.424  1.2261  0.7284  0.7490
10057TIP3    H251663   4.856   6.080  11.536 -2.2688  0.1400  1.4809
10058TIP3   OH251664   4.004   1.865  14.475  0.1203 -0.0784  0.4458
10058TIP3    H151665   4.005   1.892  14.383 -0.2689 -0.4397  0.3330
10058TIP3    H251666   3.954   1.935  14.519 -1.8625 -1.1158 -0.0305
10059TIP3   OH251667   1.052   2.831   5.246 -0.3922  0.0181  0.9265
10059TIP3    H151668   1.027   2.882   5.324 -1.3084 -0.7532  1.1591
10059TIP3    H251669   1.096   2.894   5.190  0.7223  0.4935  2.2653
10060TIP3   OH251670   4.883   4.319   5.721  0.2016 -0.1531 -0.0140
10060TIP3    H151671   4.932   4.328   5.803 -0.1531 -1.6438  0.3969
10060TIP3    H251672   4.950   4.313   5.653  0.5953 -1.3327  0.4507
10061TIP3   OH251673   3.325   4.231   6.259  0.0780 -0.4639 -0.9448
10061TIP3    H151674   3.408   4.200   6.297 -1.8641 -0.8878  3.6399
10061TIP3    H251675   3.283   4.152   6.225  0.4989 -0.6771 -0.9813
10062TIP3   OH251676   1.162   0.187  12.697  0.4012  0.1609  0.4534
10062TIP3    H151677   1.242   0.224  12.661  0.6519 -0.5418  0.2723
10062TIP3    H251678   1.114   0.154  12.621 -1.2181  2.6991  0.2705
10063TIP3   OH251679   3.311   5.127   4.856  0.3309  0.5445 -0.0503
10063TIP3    H151680   3.248   5.070   4.811  0.2016  2.6132 -2.7132
10063TIP3    H251681   3.366   5.066   4.905  0.3382 -1.9700 -2.8579
10064TIP3   OH251682   6.280   3.793  13.140  0.1039 -0.1283 -0.0144
10064TIP3    H151683   6.374   3.799  13.119  0.6657 -0.9968  2.0336
10064TIP3    H251684   6.275   3.724  13.206 -2.0091 -0.1065 -0.1050
10065TIP3   OH251685   1.699   5.607   3.224  0.2982 -0.2380  0.4150
10065TIP3    H151686   1.628   5.560   3.268 -1.6461  0.8899 -1.3121
10065TIP3    H251687   1.654   5.676   3.174  2.4128 -0.6922 -2.3223
10066TIP3   OH251688   0.227   4.259  10.375 -0.1240 -0.8481 -0.3086
10066TIP3    H151689   0.298   4.209  10.334  0.6425  0.7786 -1.0610
10066TIP3    H251690   0.248   4.350  10.357 -0.7808 -0.1370  2.1196
10067TIP3   OH251691   3.170   3.776  12.665  0.1192 -0.0868  0.4698
10067TIP3    H151692   3.202   3.799  12.578  0.9973 -1.2917  0.4380
10067TIP3    H251693   3.134   3.688  12.655 -0.2643 -0.0246  1.2131
10068TIP3   OH251694   0.883   3.569  14.719  0.1339 -0.3458  0.6053
10068TIP3    H151695   0.946   3.595  14.785  0.7491  0.3435 -0.2300
10068TIP3    H251696   0.935   3.531  14.649 -0.3343  0.3556 -0.1534
10069TIP3   OH251697   1.843   5.748  14.258  0.3563 -0.3934  0.7947
10069TIP3    H151698   1.837   5.776  14.167  0.6182 -0.9606  0.5994
10069TIP3    H251699   1.894   5.667  14.255 -1.6956 -1.7708  1.1574
10070TIP3   OH251700   1.450   1.800   5.642  0.0588 -0.3416  0.2881
10070TIP3    H151701   1.360   1.793   5.608 -0.6693  0.5438  1.9104
10070TIP3    H251702   1.500   1.735   5.592 -1.6998 -1.6137  0.0891
10071TIP3   OH251703   4.952   0.228   6.407  0.1251 -0.0194  0.0001
10071TIP3    H151704   4.950   0.158   6.471  0.3755  2.2625  2.6973
10071TIP3    H251705   5.045   0.239   6.386  0.0330 -0.8510 -0.9487
10072TIP3   OH251706   2.633   5.847  13.359  0.1952  0.3596 -0.1076
10072TIP3    H151707   2.569   5.792  13.405  0.7465 -0.7291 -0.5953
10072TIP3    H251708   2.716   5.831  13.404 -0.0053  2.5241  1.1542
10073TIP3   OH251709   0.758   3.554  16.991 -0.2029  0.1347  0.2561
10073TIP3    H151710   0.820   3.624  16.976  0.8830 -0.1945  2.7245
10073TIP3    H251711   0.729   3.527  16.904  2.5971  0.7623 -0.9452
10074TIP3   OH251712   0.338   0.578   6.109  0.2780 -0.2650 -0.0181
10074TIP3    H151713   0.408   0.513   6.107 -0.1902 -0.7587 -0.4381
10074TIP3    H251714   0.302   0.571   6.198 -0.5564 -1.4377 -0.4228
10075TIP3   OH251715   6.790   4.147   4.581  0.1689  0.1716 -0.7856
10075TIP3    H151716   6.747   4.203   4.516 -1.0617  0.2209  0.0268
10075TIP3    H251717   6.717   4.108   4.630  0.9955 -1.9564 -1.1513
10076TIP3   OH251718   4.177   2.282   4.282  0.1201 -0.4298 -0.2801
10076TIP3    H151719   4.253   2.339   4.271  0.1912 -0.5395 -0.3527
10076TIP3    H251720   4.149   2.297   4.373 -0.1367  0.0579 -0.4350
10077TIP3   OH251721   6.010   4.410  15.944  0.2558 -0.5890  0.3920
10077TIP3    H151722   5.984   4.380  15.857 -0.5556 -0.8489  0.7123
10077TIP3    H251723   5.962   4.492  15.957 -1.7365 -1.8571  1.6090
10078TIP3   OH251724   0.842   3.013   0.300  0.5070 -0.1791 -0.0904
10078TIP3    H151725   0.891   3.035   0.221 -0.2904 -1.5536 -1.0271
10078TIP3    H251726   0.750   3.028   0.275  0.2096 -1.1501  0.3823
10079TIP3   OH251727   0.015   1.615  11.191 -0.4615  0.1286  0.2295
10079TIP3    H151728   0.089   1.584  11.243 -0.1884 -0.8111 -0.6985
10079TIP3    H251729  -0.043   1.540  11.185 -0.1048 -0.0427 -1.4965
10080TIP3   OH251730   2.540   3.121  12.093 -0.7698 -0.4206  0.0386
10080TIP3    H151731   2.580   3.160  12.170  0.5219  2.3713 -1.8636
10080TIP3    H251732   2.613   3.087  12.041 -1.4494 -0.9074 -0.6387
10081TIP3   OH251733   1.149   1.721   5.142  0.3029 -0.0153  0.3641
10081TIP3    H151734   1.114   1.657   5.080  0.0952  0.3470  0.1055
10081TIP3    H251735   1.111   1.696   5.227 -0.8951  0.5888  0.0280
10082TIP3   OH251736   0.779   6.483   2.778 -0.0745  0.0192  0.4095
10082TIP3    H151737   0.857   6.428   2.776 -1.0032 -1.3990  0.9586
10082TIP3    H251738   0.715   6.430   2.827 -0.9264  1.7267  1.2206
10083TIP3   OH251739   4.012   3.917   6.337 -0.4609  0.0076  0.7422
10083TIP3    H151740   4.000   4.003   6.377 -0.9570  0.6617 -0.7455
10083TIP3    H251741   3.943   3.863   6.375 -2.6239  1.3256 -1.0961
10084TIP3   OH251742   4.449   2.217  13.228 -0.1229  0.1224  0.4848
10084TIP3    H151743   4.526   2.228  13.285  1.6148  0.6840 -1.8215
10084TIP3    H251744   4.449   2.124  13.205  0.3885  0.2713 -0.1540
10085TIP3   OH251745   2.920   1.972  15.839  0.0495 -0.0333  0.6311
10085TIP3    H151746   2.962   1.927  15.912 -2.8566 -1.2820  1.6718
10085TIP3    H251747   2.867   1.905  15.797 -1.3597  1.5429 -0.2163
10086TIP3   OH251748   5.133   1.847  16.189  0.1927  0.6032 -0.3159
10086TIP3    H151749   5.084   1.774  16.227  1.2490  0.0108 -0.0613
10086TIP3    H251750   5.066   1.912  16.167 -0.5836  0.3389  1.1716
10087TIP3   OH251751   2.855   5.072   5.222  0.2262  0.3182 -0.9036
10087TIP3    H151752   2.775   5.022   5.209  0.0202  1.0080 -2.4402
10087TIP3    H251753   2.898   5.072   5.136  1.8387  0.0364 -0.1393
10088TIP3   OH251754   0.890   4.836  14.640  0.2445  0.1205  0.3795
10088TIP3    H151755   0.955   4.902  14.666  0.3732  0.1736 -0.0727
10088TIP3    H251756   0.809   4.863  14.684  0.8442 -0.7293  2.1182
10089TIP3   OH251757   2.429   0.306   3.701  0.5670 -0.1730 -0.3532
10089TIP3    H151758   2.504   0.268   3.655  1.4577  0.4519  0.5314
10089TIP3    H251759   2.458   0.311   3.792 -0.9046 -0.7627  0.1665
10090TIP3   OH251760   5.813   0.910   1.682  0.3397 -0.3668 -0.4092
10090TIP3    H151761   5.736   0.859   1.708  0.7632  0.2410  2.4803
10090TIP3    H251762   5.870   0.847   1.638 -0.8920 -1.3553 -0.6438
10091TIP3   OH251763   1.873   5.291  15.870 -0.3519  0.3253  0.1828
10091TIP3    H151764   1.884   5.266  15.779 -0.0082  0.1902  0.2582
10091TIP3    H251765   1.962   5.311  15.900 -0.1097 -1.8474  1.1240
10092TIP3   OH251766   1.971   5.513  10.580 -0.0580 -0.1570 -0.0647
10092TIP3    H151767   2.020   5.462  10.516 -0.0906 -0.5774  0.2393
10092TIP3    H251768   1.972   5.459  10.659 -0.9770 -0.1489 -0.0396
10093TIP3   OH251769   4.697   4.118   0.093  0.6790 -0.1941  0.4287
10093TIP3    H151770   4.723   4.128   0.001 -0.4379  0.4838  0.1686
10093TIP3    H251771   4.648   4.198   0.113 -0.9574 -1.2703  0.9609
10094TIP3   OH251772   0.125   2.595   2.494 -0.1364  0.2543 -0.7504
10094TIP3    H151773   0.153   2.585   2.403 -0.0871  0.2599 -0.7362
10094TIP3    H251774   0.127   2.689   2.510 -1.1799  0.3362 -1.0646
10095TIP3   OH251775   1.238   1.625  12.006 -0.6679 -0.3387 -0.3474
10095TIP3    H151776   1.166   1.582  11.960 -1.6857 -0.1921  1.0494
10095TIP3    H251777   1.203   1.644  12.093  2.2441 -4.0587  1.9846
10096TIP3   OH251778   3.006   3.770  14.397 -0.2945  0.3424 -0.7039
10096TIP3    H151779   3.067   3.778  14.470 -0.0549  2.8828 -1.0979
10096TIP3    H251780   2.920   3.756  14.439  0.0526  0.2472 -0.0062
10097TIP3   OH251781   1.756   3.594   6.274  0.3049  0.0033  0.4792
10097TIP3    H151782   1.694   3.666   6.264  1.6145  0.9462 -1.4637
10097TIP3    H251783   1.705   3.523   6.313 -1.3607  1.5056  1.1742
10098TIP3   OH251784   2.851   5.981   2.420  0.3072 -0.3437 -0.1496
10098TIP3    H151785   2.781   6.044   2.402 -0.2772 -1.2802 -1.2855
10098TIP3    H251786   2.919   6.002   2.356 -0.6155 -1.9106 -1.7463
10099TIP3   OH251787   3.533   4.070  12.984  0.7953  0.4067 -0.2851
10099TIP3    H151788   3.537   4.035  13.073 -2.2403  0.4651 -0.0207
10099TIP3    H251789   3.540   3.993  12.928 -2.3296 -0.3741  0.2120
10100TIP3   OH251790   5.847   3.898   5.943 -0.0795 -0.1007 -0.5088
10100TIP3    H151791   5.884   3.865   5.861  0.1707 -0.6544 -0.1739
10100TIP3    H251792   5.915   3.885   6.008 -1.4431 -2.9486  0.5419
10101TIP3   OH251793   3.685   2.587  12.932 -0.2026 -0.2044  0.4701
10101TIP3    H151794   3.591   2.578  12.951 -0.1022  0.3487  1.2519
10101TIP3    H251795   3.694   2.676  12.898  0.4551  0.9083  3.2384
10102TIP3   OH251796   5.456   0.787   2.390  0.9095  0.1721 -0.1258
10102TIP3    H151797   5.462   0.879   2.365  1.0170  0.4886  1.0513
10102TIP3    H251798   5.519   0.743   2.332  0.2995  0.7058 -1.2356
10103TIP3   OH251799   5.874   3.231  13.051  0.7053  0.2636 -0.5448
10103TIP3    H151800   5.889   3.168  12.980 -1.2395  2.1745 -2.8230
10103TIP3    H251801   5.806   3.191  13.105  0.3325 -0.1015 -1.2731
10104TIP3   OH251802   4.652   0.864   0.005 -0.1417  0.3154 -0.5885
10104TIP3    H151803   4.683   0.951   0.029  1.6854  0.1448 -2.0697
10104TIP3    H251804   4.703   0.804   0.060 -2.3561  0.1347  1.4198
10105TIP3   OH251805   6.428   1.825  15.159  0.2690 -0.2440  0.2850
10105TIP3    H151806   6.491   1.875  15.211  0.6285 -0.3005 -0.0912
10105TIP3    H251807   6.463   1.736  15.157 -0.5440 -0.6062  1.2317
10106TIP3   OH251808   4.598   6.182  14.550 -0.1128 -0.0482  0.0686
10106TIP3    H151809   4.658   6.119  14.510  2.5461  0.1774  3.2725
10106TIP3    H251810   4.543   6.128  14.607  0.2198  0.2235  0.6478
10107TIP3   OH251811   4.581   2.344  16.834  0.2969  0.2477 -0.1614
10107TIP3    H151812   4.596   2.410  16.766 -0.8124  2.2751  1.4848
10107TIP3    H251813   4.645   2.365  16.902 -1.1459  0.7005  1.0932
10108TIP3   OH251814   3.637   4.975  11.821 -0.1850  0.0086 -0.4289
10108TIP3    H151815   3.542   4.965  11.819 -0.1950 -0.8209  1.8611
10108TIP3    H251816   3.671   4.888  11.796 -0.0432 -0.0390 -0.0727
10109TIP3   OH251817   2.616   1.593   5.492 -0.1120  0.0932  0.0050
10109TIP3    H151818   2.641   1.685   5.483 -1.3099  0.5291  0.8594
10109TIP3    H251819   2.542   1.582   5.432 -0.1870 -0.2180  0.1514
10110TIP3   OH251820   3.083   3.292   2.303 -0.6598  0.2829  0.2380
10110TIP3    H151821   3.167   3.318   2.264 -0.6432 -1.2292 -0.8260
10110TIP3    H251822   3.107   3.250   2.385 -0.5400  1.6223  0.9106
10111TIP3   OH251823   4.252   1.485  16.262  0.6943  0.2189  0.4724
10111TIP3    H151824   4.335   1.461  16.304  0.8993  0.4595  0.2156
10111TIP3    H251825   4.229   1.409  16.210  0.8479  0.2172  0.4050
10112TIP3   OH251826   0.557   3.246   5.179  0.3029  0.4227 -0.4378
10112TIP3    H151827   0.474   3.200   5.186  0.3308  0.3466 -0.6084
10112TIP3    H251828   0.561   3.275   5.088 -0.2822  1.8334 -0.0387
10113TIP3   OH251829   0.750   2.490  13.885  0.7039  0.3410  0.1385
10113TIP3    H151830   0.833   2.535  13.869  1.1601 -0.3567  0.4971
10113TIP3    H251831   0.722   2.522  13.971  1.4003 -0.5751  0.7355
10114TIP3   OH251832   2.752   2.553   4.872 -0.4884 -0.0653 -0.2402
10114TIP3    H151833   2.709   2.555   4.957 -0.4763  2.8131 -0.2058
10114TIP3    H251834   2.736   2.640   4.835 -0.3116 -1.1482 -3.1057
10115TIP3   OH251835   0.247   5.838   3.857  0.4948  0.2784  0.7911
10115TIP3    H151836   0.300   5.784   3.798 -0.0200 -0.5511  1.0658
10115TIP3    H251837   0.228   5.780   3.931 -0.4522  0.7025  0.8886
10116TIP3   OH251838   1.983   3.506  13.690 -0.3113  0.1156 -0.2749
10116TIP3    H151839   2.039   3.529  13.765 -0.8673  0.4360  0.0496
10116TIP3    H251840   1.988   3.411  13.685  0.8383  0.1746 -0.7047
10117TIP3   OH251841   3.720   1.465   1.029 -0.2715  0.4245  0.1835
10117TIP3    H151842   3.677   1.428   1.106  0.5624 -1.0245 -0.0195
10117TIP3    H251843   3.654   1.459   0.960 -0.3226 -0.2141  0.2824
10118TIP3   OH251844   3.311   1.314   0.466  0.2700  0.4842 -0.6703
10118TIP3    H151845   3.230   1.279   0.503 -0.6657  2.8813 -0.2656
10118TIP3    H251846   3.283   1.386   0.410  2.1055  1.2356 -0.7118
10119TIP3   OH251847   5.569   5.337   2.897 -0.4005  0.3014  0.5060
10119TIP3    H151848   5.536   5.275   2.961 -0.6618  1.1724  1.2444
10119TIP3    H251849   5.664   5.322   2.895 -0.7067 -1.7808 -1.1638
10120TIP3   OH251850   3.812   4.786  15.968 -0.1476  0.0570 -0.4132
10120TIP3    H151851   3.879   4.738  16.016 -1.0435 -1.8346 -0.9489
10120TIP3    H251852   3.857   4.866  15.938  1.0044  0.2695  1.6681
10121TIP3   OH251853   5.013   6.704   4.544  0.5565 -0.2945  0.5456
10121TIP3    H151854   4.982   6.765   4.478  1.3582 -0.4065  0.0605
10121TIP3    H251855   4.953   6.717   4.618  0.9815  1.3773  0.6277
10122TIP3   OH251856   5.896   6.728  15.839 -0.0728 -0.1014  0.0185
10122TIP3    H151857   5.980   6.685  15.852 -0.5028 -1.2344 -0.7761
10122TIP3    H251858   5.889   6.742  15.745  0.1332  1.9447  0.2687
10123TIP3   OH251859   6.671   6.137   6.299 -0.3467 -0.0391  0.1917
10123TIP3    H151860   6.617   6.157   6.223 -0.9240 -1.1953  0.2708
10123TIP3    H251861   6.612   6.091   6.359 -0.6203  2.9459  2.4568
10124TIP3   OH251862   3.803   1.352  12.948  0.2418  0.4010  0.0304
10124TIP3    H151863   3.729   1.337  13.007  1.6107 -0.4576  1.6048
10124TIP3    H251864   3.783   1.300  12.870 -1.2927  1.0377 -0.0339
10125TIP3   OH251865   5.847   6.540   1.437 -0.1737  0.3285  0.5692
10125TIP3    H151866   5.937   6.559   1.411  0.4249  0.2765  2.4359
10125TIP3    H251867   5.822   6.465   1.384  1.1738 -0.1381  0.5488
10126TIP3   OH251868   2.278   3.722   5.366 -0.5793  0.2885 -0.6147
10126TIP3    H151869   2.340   3.691   5.432 -1.4472 -0.6662 -0.2146
10126TIP3    H251870   2.193   3.690   5.396 -0.9978 -0.2319 -2.2243
10127TIP3   OH251871   0.773   5.052  10.881 -0.3605 -0.9792 -0.4815
10127TIP3    H151872   0.853   5.105  10.882  0.0454 -1.5387  1.6934
10127TIP3    H251873   0.794   4.977  10.825  0.2742 -0.6155 -0.7395
10128TIP3   OH251874   4.671   1.793  12.556  0.1529 -0.8625 -0.4585
10128TIP3    H151875   4.637   1.704  12.562  0.7266 -1.0866 -0.5013
10128TIP3    H251876   4.658   1.830  12.644 -0.6066 -0.7878 -0.5901
10129TIP3   OH251877   4.082   3.227   3.020  0.0426  0.2376 -0.0482
10129TIP3    H151878   4.091   3.151   3.077  2.3060  0.0637 -0.5655
10129TIP3    H251879   4.033   3.194   2.944 -0.1454 -0.3594  0.3254
10130TIP3   OH251880   0.329   3.803   0.494 -0.0217 -0.1220  0.6659
10130TIP3    H151881   0.253   3.850   0.529  0.2377  0.6745  0.1682
10130TIP3    H251882   0.368   3.863   0.431  0.3125 -1.0056  0.0060
10131TIP3   OH251883   2.431   1.487   0.544 -0.3519 -0.4801  0.1252
10131TIP3    H151884   2.361   1.447   0.493 -1.5789  0.3063  1.1478
10131TIP3    H251885   2.450   1.569   0.499 -1.5469  0.2911  0.9798
10132TIP3   OH251886   4.695   5.913   4.980 -0.2470  0.0388  0.0825
10132TIP3    H151887   4.685   5.994   4.931  0.6235  0.6433  0.8688
10132TIP3    H251888   4.661   5.845   4.922  0.9294  0.6978 -1.4434
10133TIP3   OH251889   3.532   6.585  16.265 -0.6007  0.3801  0.3093
10133TIP3    H151890   3.531   6.559  16.357 -0.8394 -0.5794  0.0480
10133TIP3    H251891   3.624   6.583  16.241 -0.6356 -0.5794  0.2101
10134TIP3   OH251892   6.389   2.538   6.434  0.2226  0.6155 -0.5480
10134TIP3    H151893   6.298   2.544   6.405  0.0658 -1.5128 -0.6618
10134TIP3    H251894   6.416   2.629   6.448 -1.8069  1.3105 -0.8195
10135TIP3   OH251895   0.130   6.067  14.664 -0.3758 -0.5806 -0.2948
10135TIP3    H151896   0.221   6.052  14.689 -0.4599 -1.7924 -0.6288
10135TIP3    H251897   0.134   6.141  14.603  0.1079  0.7797  1.3116
10136TIP3   OH251898   6.132   2.500  12.436 -0.0491  0.2982 -0.5140
10136TIP3    H151899   6.197   2.448  12.483 -1.9843 -2.4094 -0.5960
10136TIP3    H251900   6.145   2.590  12.468  2.0196 -0.5662  1.3181
10137TIP3   OH251901   0.236   5.704  16.010  0.4843 -0.0509 -0.2855
10137TIP3    H151902   0.274   5.639  16.068  0.8710  0.6399  0.2494
10137TIP3    H251903   0.186   5.762  16.068 -1.0695 -0.7008 -0.9200
10138TIP3   OH251904   5.865   6.170  14.459  0.1145 -0.5954 -0.1335
10138TIP3    H151905   5.925   6.097  14.474  0.5371 -0.7072 -2.0863
10138TIP3    H251906   5.784   6.143  14.501  0.3545 -2.0926 -0.5658
10139TIP3   OH251907   2.594   6.622   3.527 -0.5518  0.0816 -0.0394
10139TIP3    H151908   2.606   6.536   3.568 -0.7537  0.1389  0.1404
10139TIP3    H251909   2.670   6.673   3.556  0.9584 -0.8015 -2.1913
10140TIP3   OH251910   4.081   2.538  11.130  0.1405  0.0970  0.1502
10140TIP3    H151911   4.107   2.527  11.039  0.6639  0.8183  0.2010
10140TIP3    H251912   3.985   2.539  11.128  0.1532  0.4872 -0.4423
10141TIP3   OH251913   5.417   5.214   3.710  0.5278  0.1998 -0.4602
10141TIP3    H151914   5.422   5.153   3.636  1.5190 -1.1663  0.6600
10141TIP3    H251915   5.380   5.162   3.782 -1.4857  1.8029 -0.2413
10142TIP3   OH251916   0.522   4.931   2.275 -0.2056 -0.3401 -0.5897
10142TIP3    H151917   0.502   4.983   2.353 -0.4297 -2.8809  1.1356
10142TIP3    H251918   0.436   4.908   2.239 -0.3118 -2.6586  0.9236
10143TIP3   OH251919   5.627   1.846  14.297  0.2688  0.4801 -0.1542
10143TIP3    H151920   5.555   1.788  14.271  0.5066  0.3642 -0.5547
10143TIP3    H251921   5.680   1.855  14.219  0.6177  0.6768  0.1039
10144TIP3   OH251922   1.298   5.401  11.639 -0.3738  0.4033 -0.3368
10144TIP3    H151923   1.333   5.490  11.636 -2.3444  1.2580  0.1104
10144TIP3    H251924   1.280   5.385  11.731  3.0638 -1.8642  0.1416
10145TIP3   OH251925   0.990   3.756   0.228  0.8492  0.3883  0.5525
10145TIP3    H151926   1.057   3.723   0.168 -0.4092 -0.3542 -0.4903
10145TIP3    H251927   0.994   3.697   0.303  0.5861 -0.3757 -0.0210
10146TIP3   OH251928   5.174   1.541   0.107 -0.5926  0.3950  0.6106
10146TIP3    H151929   5.194   1.633   0.092 -3.5917  1.1067  0.3290
10146TIP3    H251930   5.163   1.504   0.019 -2.2572  0.5463  0.7216
10147TIP3   OH251931   5.267   0.308   1.560  0.2282 -0.1669  0.5961
10147TIP3    H151932   5.336   0.342   1.617 -0.8354  0.2586  1.6903
10147TIP3    H251933   5.237   0.228   1.603 -0.0522 -0.2765  0.2051
10148TIP3   OH251934   5.002   3.758  15.297  0.4236 -0.2199  0.1780
10148TIP3    H151935   5.094   3.747  15.275  0.3013 -1.5347  0.2754
10148TIP3    H251936   4.955   3.704  15.234 -0.1554 -0.9819  1.2307
10149TIP3   OH251937   4.960   1.038   3.892  0.8114 -0.2769  0.2471
10149TIP3    H151938   4.867   1.020   3.886  0.5311  1.0185  0.2963
10149TIP3    H251939   4.992   0.981   3.962 -0.1096 -0.1234  0.8039
10150TIP3   OH251940   6.445   6.534  14.717 -0.1992 -0.0646 -0.1807
10150TIP3    H151941   6.452   6.439  14.721 -0.6816 -0.1392 -0.8893
10150TIP3    H251942   6.351   6.552  14.730  0.1008  0.4302  1.6571
10151TIP3   OH251943   3.473   3.504   2.448  0.0919 -0.0550  0.6070
10151TIP3    H151944   3.384   3.538   2.456  0.1380 -0.2718  2.7651
10151TIP3    H251945   3.462   3.417   2.409 -0.5666  0.2422  0.1226
10152TIP3   OH251946   5.983   4.378  12.296  0.0453  0.4398  0.0838
10152TIP3    H151947   6.049   4.376  12.227 -0.5089  1.2301 -0.4952
10152TIP3    H251948   5.903   4.345  12.254 -0.1214  0.2399  0.5486
10153TIP3   OH251949   3.565   0.975   0.039 -0.5273  0.3391 -0.2040
10153TIP3    H151950   3.602   0.991   0.125 -0.4829 -0.2742 -0.1042
10153TIP3    H251951   3.640   0.960  -0.018 -0.4952  1.7841 -0.5906
10154TIP3   OH251952   6.789   1.522  11.564 -0.3758 -0.5128 -0.4785
10154TIP3    H151953   6.752   1.607  11.585  1.5756  0.1813  0.4046
10154TIP3    H251954   6.714   1.469  11.538 -1.8389  1.0306  0.3927
10155TIP3   OH251955   5.347   5.039  11.621  0.3383  0.1070  0.4002
10155TIP3    H151956   5.321   4.999  11.704  0.2567  1.2932  0.9704
10155TIP3    H251957   5.271   5.093  11.596 -0.4514 -1.7507 -1.4822
10156TIP3   OH251958   0.385   6.156   0.822 -0.3705 -0.0857  0.0053
10156TIP3    H151959   0.332   6.078   0.806 -1.2494 -0.2436  2.9910
10156TIP3    H251960   0.321   6.226   0.834  0.3174  0.6649 -0.6297
10157TIP3   OH251961   3.112   2.258   2.300  0.2597 -0.5263  0.0826
10157TIP3    H151962   3.046   2.327   2.294 -0.1540 -0.8581  0.7871
10157TIP3    H251963   3.146   2.250   2.211 -1.4227 -1.1172 -0.5289
10158TIP3   OH251964   0.655   3.259   1.047  0.0066  0.1062 -0.0565
10158TIP3    H151965   0.565   3.291   1.035 -0.4974 -1.1023  0.3471
10158TIP3    H251966   0.677   3.218   0.963  0.9608  2.1276 -0.8685
10159TIP3   OH251967   4.272   1.508   2.213 -0.2117  0.2005  0.1429
10159TIP3    H151968   4.291   1.498   2.306 -0.4669 -0.6836  0.1034
10159TIP3    H251969   4.350   1.476   2.168  0.1398  1.1593  0.0542
10160TIP3   OH251970   6.210   5.531  15.881 -0.3454  0.2706 -0.0731
10160TIP3    H151971   6.151   5.571  15.944 -1.4006 -3.5088  1.6281
10160TIP3    H251972   6.294   5.524  15.927 -0.0559  0.8683 -0.5035
10161TIP3   OH251973   5.980   4.711  14.181 -0.2519 -0.1324  0.1583
10161TIP3    H151974   5.989   4.687  14.273 -0.0425 -1.0083 -0.0811
10161TIP3    H251975   6.014   4.636  14.133 -2.2154 -0.5442 -0.6682
10162TIP3   OH251976   6.801   4.657   0.446 -0.5342  0.0182  0.4461
10162TIP3    H151977   6.838   4.572   0.421  0.4158  0.7739 -0.8886
10162TIP3    H251978   6.826   4.715   0.374 -2.7601  1.0272  0.4130
10163TIP3   OH251979   3.358   5.133   0.069 -0.3147  0.6738  0.4448
10163TIP3    H151980   3.330   5.048   0.036  1.6724  0.1459 -0.0560
10163TIP3    H251981   3.283   5.166   0.118 -1.9009 -0.3772 -1.1568
10164TIP3   OH251982   5.883   4.706   1.030 -0.6487  0.0018 -0.2004
10164TIP3    H151983   5.839   4.622   1.043 -1.4551  0.4454  0.0240
10164TIP3    H251984   5.881   4.719   0.935 -1.6935  0.3614 -0.1461
10165TIP3   OH251985   4.191   0.866   0.537 -0.7286  0.3422 -0.3506
10165TIP3    H151986   4.191   0.803   0.609 -1.9461 -1.1045 -1.5499
10165TIP3    H251987   4.264   0.839   0.481 -0.6717  0.5679 -0.3854
10166TIP3   OH251988   0.896   3.378   2.309  0.0682  0.2845  0.2318
10166TIP3    H151989   0.852   3.296   2.285  1.1573 -0.6782  1.3514
10166TIP3    H251990   0.833   3.422   2.366 -0.5466  0.2667 -0.4124
10167TIP3   OH251991   1.090   6.189   3.735  0.4977  0.4421 -0.0553
10167TIP3    H151992   1.041   6.107   3.725  2.3212 -0.8006  0.6927
10167TIP3    H251993   1.022   6.256   3.741 -1.2481 -1.3310  2.5398
10168TIP3   OH251994   2.892   4.580  17.134 -0.2230 -0.0792 -0.0545
10168TIP3    H151995   2.830   4.510  17.158 -0.4991 -0.5920 -2.1155
10168TIP3    H251996   2.976   4.549  17.167 -0.5171 -0.9180 -0.0649
10169TIP3   OH251997   2.659   4.552  11.623  0.3893 -0.1903 -0.3984
10169TIP3    H151998   2.609   4.525  11.699  1.4443 -0.1295  0.3407
10169TIP3    H251999   2.602   4.614  11.577 -0.3066 -0.3293  0.2654
10170TIP3   OH252000   3.488   1.476  12.891  0.3315  0.0347  0.0830
10170TIP3    H152001   3.393   1.478  12.899  0.1346 -0.8769 -1.5904
10170TIP3    H252002   3.516   1.409  12.955 -0.1617  0.1575  0.4335
10171TIP3   OH252003   5.351   2.337   1.518  0.6073 -0.4286  0.3122
10171TIP3    H152004   5.323   2.371   1.432 -0.2879 -0.4233  0.5980
10171TIP3    H252005   5.441   2.368   1.527  0.0569  1.3463  0.2601
10172TIP3   OH252006   4.933   5.214  12.710  0.9459  0.8948  0.1029
10172TIP3    H152007   4.982   5.197  12.790 -0.3622  0.4722  0.8529
10172TIP3    H252008   4.885   5.295  12.728  0.4916  0.6909 -0.1717
10173TIP3   OH252009   6.191   6.766   3.891  0.4557 -0.3535 -0.0390
10173TIP3    H152010   6.128   6.800   3.955 -0.1955 -1.2321 -0.2028
10173TIP3    H252011   6.227   6.687   3.931  0.5503 -0.5299 -0.4634
10174TIP3   OH252012   2.503   1.255  13.061  0.2893 -0.8206  0.1405
10174TIP3    H152013   2.592   1.222  13.058  0.6102 -0.0073  0.5080
10174TIP3    H252014   2.510   1.339  13.105 -0.6172 -0.6044 -0.1095
10175TIP3   OH252015   3.772   1.498   5.938 -0.0546 -0.0355 -0.1063
10175TIP3    H152016   3.715   1.566   5.975 -0.4341 -0.9297  1.0295
10175TIP3    H252017   3.855   1.509   5.985 -0.3132 -0.7234  0.5404
10176TIP3   OH252018   0.791   0.124   2.600 -0.2066  0.4491 -0.0177
10176TIP3    H152019   0.824   0.039   2.627  0.3610  0.8845  0.7047
10176TIP3    H252020   0.855   0.187   2.635 -1.9263  1.3526  1.7063
10177TIP3   OH252021   5.697   6.195   4.325 -0.0431  0.1143 -0.6809
10177TIP3    H152022   5.613   6.157   4.352 -0.0105  0.2054 -0.4517
10177TIP3    H252023   5.718   6.151   4.243 -0.2784  0.0352 -0.6991
10178TIP3   OH252024   1.277   2.757  10.672  0.3162  0.5314  0.4837
10178TIP3    H152025   1.242   2.669  10.683 -3.1764  1.6587 -0.4259
10178TIP3    H252026   1.290   2.767  10.578  1.2962  0.8061  0.6357
10179TIP3   OH252027   6.669   1.647   4.029 -0.9782  0.1638  0.0144
10179TIP3    H152028   6.630   1.574   3.980 -0.8398 -1.1087  1.7015
10179TIP3    H252029   6.615   1.654   4.108 -1.5383  2.5235 -0.5060
10180TIP3   OH252030   1.370   5.725   2.320  0.1200 -0.3762 -0.2653
10180TIP3    H152031   1.416   5.671   2.384 -1.8209 -2.0964 -0.2034
10180TIP3    H252032   1.417   5.809   2.321  1.8712 -1.2902  1.2978
10181TIP3   OH252033   4.362   5.200   4.410 -0.3746  0.6213 -0.1680
10181TIP3    H152034   4.451   5.171   4.389 -0.4290  0.4188 -0.1185
10181TIP3    H252035   4.313   5.119   4.422  0.2256  0.5859  3.2278
10182TIP3   OH252036   0.986   4.836  16.353  0.1411  0.1056  0.1877
10182TIP3    H152037   1.075   4.804  16.343 -0.7334 -2.7259  0.5304
10182TIP3    H252038   0.954   4.794  16.433 -1.3688  1.4246  0.3275
10183TIP3   OH252039   2.394   5.305  11.360  0.2316 -0.1801  0.3359
10183TIP3    H152040   2.374   5.384  11.410  2.1749  0.3540  0.3372
10183TIP3    H252041   2.330   5.306  11.289  0.0341  1.2668  0.4941
10184TIP3   OH252042   5.454   6.775   3.303 -0.5337 -0.2938 -0.3069
10184TIP3    H152043   5.491   6.841   3.362  0.9814 -1.0787 -0.3465
10184TIP3    H252044   5.486   6.801   3.216 -1.1701 -0.2481 -0.5334
10185TIP3   OH252045   5.531   4.154  12.250 -0.5229 -0.2704  0.1494
10185TIP3    H152046   5.611   4.116  12.285  0.4643  1.2322 -0.3696
10185TIP3    H252047   5.511   4.227  12.308  0.0779  1.0783 -1.2524
10186TIP3   OH252048   5.752   5.773  13.700 -0.2933  0.0009  0.1918
10186TIP3    H152049   5.770   5.813  13.615 -0.2817 -0.3267  0.0366
10186TIP3    H252050   5.696   5.836  13.745  2.4378  1.8214  1.3220
10187TIP3   OH252051   6.063   3.906  16.768 -0.3349 -0.3510  0.3005
10187TIP3    H152052   6.091   3.817  16.746 -0.1648 -0.4973  1.0888
10187TIP3    H252053   6.143   3.958  16.761 -0.4421 -0.2437 -0.1984
10188TIP3   OH252054   5.342   1.549  15.006 -0.0126  0.3996 -0.4547
10188TIP3    H152055   5.373   1.488  15.072  0.6152  0.4969 -0.6490
10188TIP3    H252056   5.275   1.600  15.050  2.2482  2.3407  1.0021
10189TIP3   OH252057   5.705   3.441   1.554  0.3316  0.6323 -0.2285
10189TIP3    H152058   5.740   3.523   1.589 -1.3473  1.4904 -0.4397
10189TIP3    H252059   5.776   3.378   1.565  2.8033  2.7008 -2.6562
10190TIP3   OH252060   6.079   5.631  16.932 -0.4797 -0.4707 -0.5802
10190TIP3    H152061   6.152   5.570  16.942 -0.4064 -0.2401  0.4915
10190TIP3    H252062   6.119   5.713  16.904 -0.2536 -0.2338  0.3837
10191TIP3   OH252063   0.165   3.411   1.763  0.1646  0.2066  0.8850
10191TIP3    H152064   0.256   3.399   1.738  0.2438  0.0702  1.2269
10191TIP3    H252065   0.126   3.324   1.757 -0.3496  0.5126 -0.7725
10192TIP3   OH252066   6.212   2.342  15.713 -0.0265  0.5664  0.0504
10192TIP3    H152067   6.233   2.405  15.782  1.0713  1.2383 -0.8683
10192TIP3    H252068   6.283   2.351  15.650  0.1935 -1.6077 -0.1046
10193TIP3   OH252069   2.602   3.470   7.002  0.3114 -0.4353 -0.4356
10193TIP3    H152070   2.598   3.443   6.911 -0.4303 -1.6228 -0.0792
10193TIP3    H252071   2.687   3.437   7.033  1.9908  2.5729 -1.4132
10194TIP3   OH252072   1.145   1.582  11.322  0.0141 -0.6158  0.6027
10194TIP3    H152073   1.178   1.668  11.296 -1.7027  0.2352  1.0979
10194TIP3    H252074   1.151   1.529  11.243 -0.9859  0.6202 -0.3425
10195TIP3   OH252075   5.629   5.894   3.552 -0.0098  0.3530  0.0766
10195TIP3    H152076   5.571   5.956   3.596  0.3850 -0.0416  1.2149
10195TIP3    H252077   5.715   5.936   3.555 -0.1491  0.7557 -1.2331
10196TIP3   OH252078   6.100   4.057  12.082  0.5703 -0.7970 -0.0717
10196TIP3    H152079   6.181   4.052  12.132 -0.4243 -2.4458  1.5123
10196TIP3    H252080   6.047   4.122  12.129  1.4663  1.4812 -2.0117
10197TIP3   OH252081   5.599   4.139   1.032  0.2767  0.3072 -0.3445
10197TIP3    H152082   5.620   4.055   1.074  0.4531 -0.1144 -1.2470
10197TIP3    H252083   5.662   4.146   0.960  0.5954  1.4650  0.0252
10198TIP3   OH252084   1.972   0.613   0.648 -0.2371 -0.5364  0.1116
10198TIP3    H152085   2.028   0.535   0.650 -0.8440 -0.9753  1.0540
10198TIP3    H252086   1.916   0.603   0.725 -2.0000 -0.3877 -1.1096
10199TIP3   OH252087   4.475   0.030   5.288 -0.0799 -1.2826  0.1675
10199TIP3    H152088   4.397   0.083   5.304 -0.0139 -1.2907  0.5306
10199TIP3    H252089   4.546   0.094   5.278 -0.2133 -1.2540 -0.6631
10200TIP3   OH252090   3.808   5.238  11.751  0.2653  0.4642 -0.5747
10200TIP3    H152091   3.744   5.170  11.769  1.0582 -0.1347  0.0507
10200TIP3    H252092   3.803   5.252  11.657  0.1858 -0.5619 -0.7290
10201TIP3   OH252093   5.555   0.576  12.653  0.2349  0.5193 -0.1269
10201TIP3    H152094   5.593   0.519  12.586  1.0612 -1.6699  2.0112
10201TIP3    H252095   5.463   0.548  12.658  0.8520 -1.5472  1.5898
10202TIP3   OH252096   4.593   0.470  13.685 -0.2923 -0.2010  0.4022
10202TIP3    H152097   4.638   0.530  13.626  1.1514 -2.0052 -0.4064
10202TIP3    H252098   4.646   0.472  13.765  1.6047 -2.6016 -0.6748
10203TIP3   OH252099   5.128   4.218  12.387 -0.4233 -0.5720 -0.2051
10203TIP3    H152100   5.199   4.169  12.428  0.0976  0.1515 -0.2290
10203TIP3    H252101   5.114   4.174  12.303  0.7361 -0.0792 -0.6780
10204TIP3   OH252102   1.793   0.167  13.580 -0.3630  0.6648  0.6841
10204TIP3    H152103   1.749   0.189  13.497  2.3412  0.1044 -1.0389
10204TIP3    H252104   1.866   0.229  13.585 -0.5872  0.8323  2.8355
10205TIP3   OH252105   0.411   2.140  13.691 -0.6211  0.5028  0.0285
10205TIP3    H152106   0.323   2.143  13.654 -0.7594  0.1108  0.3204
10205TIP3    H252107   0.428   2.229  13.720 -0.7993  0.6495 -0.3067
10206TIP3   OH252108   1.213   1.904  11.211 -0.4879  0.8800  0.0335
10206TIP3    H152109   1.148   1.932  11.275 -0.4695  0.2849  0.3172
10206TIP3    H252110   1.296   1.938  11.245 -0.3414 -0.2031  0.8253
10207TIP3   OH252111   0.215   1.829   1.654 -0.4046 -0.1344 -0.1673
10207TIP3    H152112   0.269   1.908   1.651 -0.7308  0.0727 -2.1865
10207TIP3    H252113   0.165   1.831   1.573 -2.6844 -0.8768  1.1152
10208TIP3   OH252114   3.721   6.566   5.598 -0.3268 -0.2152 -0.2375
10208TIP3    H152115   3.701   6.475   5.621  1.3958 -0.1849  1.6226
10208TIP3    H252116   3.805   6.561   5.554 -2.0731  0.1221 -3.9237
10209TIP3   OH252117   6.461   0.010  14.937  0.0170  0.1572 -0.3428
10209TIP3    H152118   6.366   0.012  14.950  0.0007 -0.7861 -0.2659
10209TIP3    H252119   6.481   0.093  14.894 -0.7520  0.6562  0.2360
10210TIP3   OH252120   5.106   0.450   0.503 -0.0639  0.6699  0.5555
10210TIP3    H152121   5.102   0.460   0.408  3.4676  1.6110  0.3608
10210TIP3    H252122   5.023   0.408   0.527 -0.5676 -0.7217 -3.0630
10211TIP3   OH252123   0.365   6.681  13.556 -0.1877  0.1457  0.3396
10211TIP3    H152124   0.332   6.769  13.578  0.2849  0.2856  0.4876
10211TIP3    H252125   0.298   6.646  13.497 -0.2209  0.7369  0.0116
10212TIP3   OH252126   1.619   2.268  11.792 -0.0053  0.1954  0.0956
10212TIP3    H152127   1.704   2.261  11.836 -0.6990 -1.9936  1.2464
10212TIP3    H252128   1.556   2.278  11.864 -0.8950 -0.4414 -0.5732
10213TIP3   OH252129   0.707   6.764   5.343  0.4842 -0.2146 -0.9466
10213TIP3    H152130   0.705   6.685   5.289 -0.4339 -1.1918  0.4580
10213TIP3    H252131   0.776   6.818   5.304  1.3139 -1.8088 -1.7887
10214TIP3   OH252132   6.773   3.291  16.623 -0.4218 -0.0070  0.2614
10214TIP3    H152133   6.682   3.267  16.607  0.2130 -1.3453 -1.6453
10214TIP3    H252134   6.782   3.287  16.719 -1.9295 -1.5851  0.3879
10215TIP3   OH252135   5.519   5.056  14.814  0.2457 -0.0427  0.1981
10215TIP3    H152136   5.492   5.148  14.814  0.8661  0.2023 -2.0668
10215TIP3    H252137   5.596   5.054  14.870  0.7538  1.0240 -0.4258
10216TIP3   OH252138   5.460   4.968  17.093  0.3067 -0.3485 -0.2562
10216TIP3    H152139   5.403   4.903  17.052  1.1957 -0.2983 -1.6411
10216TIP3    H252140   5.473   5.034  17.025  1.5914 -0.1022  0.2152
10217TIP3   OH252141   5.605   3.244  12.911 -0.5557 -0.0271  0.6638
10217TIP3    H152142   5.538   3.278  12.852  0.3599  0.1029 -0.3530
10217TIP3    H252143   5.688   3.273  12.872  0.1340 -0.9956  1.3359
10218TIP3   OH252144   6.576   1.106   3.960 -0.0085 -0.8844  0.2233
10218TIP3    H152145   6.594   1.081   3.869 -0.8600 -1.4645  0.1979
10218TIP3    H252146   6.484   1.083   3.973 -0.7559  1.8055  0.3729
10219TIP3   OH252147   5.657   1.991   3.841  0.2375  0.3139  0.2959
10219TIP3    H152148   5.745   1.960   3.864 -0.7237 -3.6756 -0.6992
10219TIP3    H252149   5.670   2.049   3.766  1.9723 -0.5415 -0.0943
10220TIP3   OH252150   5.242   6.585  15.637  0.3711 -0.1780 -0.0819
10220TIP3    H152151   5.158   6.587  15.591  0.6933 -0.4187 -0.6825
10220TIP3    H252152   5.218   6.569  15.729 -0.2648  0.1986 -0.1759
10221TIP3   OH252153   3.734   5.132  14.284 -0.2806 -0.1376  0.1343
10221TIP3    H152154   3.692   5.208  14.242 -1.1589  0.4550  1.9628
10221TIP3    H252155   3.821   5.163  14.309 -0.8568  0.5355  1.4382
10222TIP3   OH252156   4.743   6.151  13.286 -0.2741 -0.0919 -0.3863
10222TIP3    H152157   4.704   6.237  13.267 -1.6387 -0.7634 -0.7508
10222TIP3    H252158   4.804   6.136  13.214  0.3604  0.7853 -0.0492
10223TIP3   OH252159   1.829   1.555  11.257 -0.0109 -1.1533 -0.1404
10223TIP3    H152160   1.858   1.479  11.207  0.4805 -0.7397 -0.4906
10223TIP3    H252161   1.886   1.627  11.228 -3.0709  0.4132 -2.9474
10224TIP3   OH252162   5.500   2.936  11.949 -0.0185 -0.3146 -0.0053
10224TIP3    H152163   5.567   2.982  11.999  1.4767 -0.6283 -1.6426
10224TIP3    H252164   5.470   2.999  11.884 -0.9533 -0.3582  0.3658
10225TIP3   OH252165   0.526   2.837   4.787  0.3167 -0.7057 -0.0216
10225TIP3    H152166   0.582   2.912   4.810 -0.5684  0.0398 -0.2355
10225TIP3    H252167   0.563   2.764   4.837  1.5998 -0.2856 -0.3123
10226TIP3   OH252168   6.731   4.791   2.452  0.1042  0.0065  0.1105
10226TIP3    H152169   6.674   4.844   2.395 -0.9232 -0.1459  0.9704
10226TIP3    H252170   6.762   4.720   2.395  0.2206  0.6285 -0.6249
10227TIP3   OH252171   1.945   3.266  15.869  0.1760  0.5467 -0.3020
10227TIP3    H152172   1.912   3.355  15.856 -1.2623 -0.0815 -1.2347
10227TIP3    H252173   1.959   3.232  15.780  0.1872 -0.3320  0.0210
10228TIP3   OH252174   0.774   5.845  11.791  0.2874 -0.1533 -0.0195
10228TIP3    H152175   0.813   5.862  11.705  0.3766  0.3211  0.1135
10228TIP3    H252176   0.812   5.761  11.818 -0.1282 -0.5482 -0.6612
10229TIP3   OH252177   6.000   4.131  13.621  0.2385  0.2848  0.2122
10229TIP3    H152178   6.045   4.209  13.587  0.0125  0.6371  0.6924
10229TIP3    H252179   6.053   4.105  13.697  0.5207 -0.2524 -0.1720
10230TIP3   OH252180   6.436   1.435  17.134 -0.2170 -0.0891 -0.3233
10230TIP3    H152181   6.378   1.500  17.093 -1.0939 -0.3645  0.4393
10230TIP3    H252182   6.469   1.384  17.060  1.3294  1.8476 -1.0423
10231TIP3   OH252183   0.720   3.266   4.171 -0.0913  0.3934 -0.4100
10231TIP3    H152184   0.709   3.225   4.085  1.3514  1.0413 -0.9494
10231TIP3    H252185   0.812   3.250   4.193  0.1905  2.2625 -0.0811
10232TIP3   OH252186   2.055   1.174   0.352  0.0817 -0.3866 -0.7805
10232TIP3    H152187   2.018   1.160   0.439 -0.6374 -0.4888 -1.0996
10232TIP3    H252188   2.065   1.086   0.316  0.0187 -0.3238 -0.9517
10233TIP3   OH252189   4.240   4.174  15.868 -0.2941 -0.0318  0.4928
10233TIP3    H152190   4.328   4.139  15.856  0.0167  1.0451 -0.5319
10233TIP3    H252191   4.240   4.208  15.958  0.3540  0.0225  0.4738
10234TIP3   OH252192   1.113   0.223  12.235  0.4858 -0.0673 -0.7350
10234TIP3    H152193   1.136   0.213  12.142  1.2572  2.4113 -0.8783
10234TIP3    H252194   1.060   0.302  12.238  0.4277 -0.1383  0.9558
10235TIP3   OH252195   4.196   4.914   5.580  0.7122  0.1077 -0.9606
10235TIP3    H152196   4.214   4.997   5.624  0.1671 -0.5240  0.5302
10235TIP3    H252197   4.280   4.868   5.582  0.2496 -0.7518  1.3575
10236TIP3   OH252198   2.161   5.107  13.547  0.2201 -0.0530 -0.0391
10236TIP3    H152199   2.190   5.180  13.602 -0.5236 -0.0623  0.3890
10236TIP3    H252200   2.232   5.043  13.552 -0.6053 -0.9052  2.5261
10237TIP3   OH252201   6.439   6.272   4.486  0.0044 -0.2631  0.7946
10237TIP3    H152202   6.377   6.340   4.461  0.3970 -0.1656  0.0733
10237TIP3    H252203   6.389   6.216   4.546 -1.2283 -0.9647 -0.8011
10238TIP3   OH252204   5.275   1.543   0.371  0.1239  0.0708  0.7723
10238TIP3    H152205   5.245   1.535   0.280 -1.4664 -2.6367  1.4256
10238TIP3    H252206   5.305   1.634   0.378 -0.1361  0.5073 -2.3081
10239TIP3   OH252207   2.144   2.348   0.547 -0.0301 -0.1683  0.0961
10239TIP3    H152208   2.104   2.427   0.584  0.4010  0.3615 -0.5482
10239TIP3    H252209   2.227   2.339   0.595  1.0485  1.1379 -1.4240
10240TIP3   OH252210   5.526   0.507   0.809 -0.5131 -0.3312  0.1463
10240TIP3    H152211   5.580   0.434   0.778  3.1013  0.1796  4.2818
10240TIP3    H252212   5.476   0.471   0.882 -0.1531  0.8095  0.9921
10241TIP3   OH252213   4.566   2.683  12.560 -0.2118 -0.4424  0.3959
10241TIP3    H152214   4.596   2.774  12.554  0.2531 -0.3394  2.9755
10241TIP3    H252215   4.522   2.678  12.645 -0.1933 -2.6325  0.3322
10242TIP3   OH252216   0.198   4.484   3.527 -0.0017 -0.2161  0.4117
10242TIP3    H152217   0.127   4.466   3.589  0.9700  0.6440  1.8106
10242TIP3    H252218   0.225   4.397   3.496 -1.1643 -0.5930  0.4037
10243TIP3   OH252219   5.181   0.941   4.769 -0.1940  0.3819  0.1825
10243TIP3    H152220   5.129   0.909   4.695  1.3208  2.0495 -1.7393
10243TIP3    H252221   5.116   0.961   4.837 -1.8945  0.7191 -1.4616
10244TIP3   OH252222   5.852   3.502  17.033 -0.5970  0.1509 -0.0049
10244TIP3    H152223   5.759   3.521  17.039 -0.8423 -0.3062 -1.7559
10244TIP3    H252224   5.873   3.456  17.115 -2.1603 -0.7379 -0.0725
10245TIP3   OH252225   4.105   2.678  13.409 -0.0025 -0.2526 -0.3778
10245TIP3    H152226   4.094   2.583  13.417 -4.4756  0.1110 -0.1182
10245TIP3    H252227   4.129   2.692  13.317 -0.4459 -1.5725 -0.7172
10246TIP3   OH252228   5.569   6.051  16.111 -0.1520 -0.5022 -0.1248
10246TIP3    H152229   5.500   6.100  16.067  0.4827 -0.2371 -0.8330
10246TIP3    H252230   5.553   5.960  16.088  0.8886 -0.2690 -1.9628
10247TIP3   OH252231   4.170   6.710   4.963  0.1472  0.2030 -0.0345
10247TIP3    H152232   4.256   6.733   4.929  0.0539  1.8301  0.7546
10247TIP3    H252233   4.122   6.793   4.966 -0.5479 -0.2188  2.0053
10248TIP3   OH252234   3.754   3.626   3.039  0.1169  0.7402  0.0950
10248TIP3    H152235   3.828   3.687   3.044 -0.0172  0.8314  1.2255
10248TIP3    H252236   3.677   3.682   3.040  0.0066  0.6077 -0.3893
10249TIP3   OH252237   1.396   5.599  11.879 -0.5829  0.0413 -0.5078
10249TIP3    H152238   1.330   5.648  11.927 -0.2464  0.7495 -0.7486
10249TIP3    H252239   1.411   5.521  11.932 -1.2574  0.1084 -0.2077
10250TIP3   OH252240   1.829   6.201   2.574 -0.0321 -0.0014 -0.3322
10250TIP3    H152241   1.824   6.115   2.616  1.7825  0.5155  1.0680
10250TIP3    H252242   1.862   6.182   2.486 -1.0031 -0.8387 -0.5323
10251TIP3   OH252243   4.607   0.248  10.672  0.4437  0.4208 -0.2802
10251TIP3    H152244   4.687   0.300  10.667  0.6290  0.1803  0.1221
10251TIP3    H252245   4.637   0.157  10.674  0.2633  0.3678  1.6945
10252TIP3   OH252246   2.099   2.211   3.370  0.3177 -0.5884  0.3792
10252TIP3    H152247   2.155   2.139   3.342 -0.8751 -1.0717 -0.8801
10252TIP3    H252248   2.143   2.247   3.447  2.1243 -1.1860 -0.3223
10253TIP3   OH252249   2.140   2.238   3.860  0.0547  0.4229 -0.6220
10253TIP3    H152250   2.103   2.177   3.923 -1.1322 -0.3228 -1.9878
10253TIP3    H252251   2.191   2.299   3.913 -1.5876  0.3473  1.1278
10254TIP3   OH252252   5.905   4.679  16.039 -0.3235  0.3763 -0.2993
10254TIP3    H152253   5.953   4.757  16.014  0.6303  0.6044  1.9713
10254TIP3    H252254   5.934   4.661  16.128 -2.9960 -0.6404  0.4617
10255TIP3   OH252255   3.125   6.050  13.913  0.3027  0.2806  0.3962
10255TIP3    H152256   3.206   6.000  13.919  0.3552  0.5222  2.3160
10255TIP3    H252257   3.151   6.141  13.926 -0.1834  0.4474  0.2417
10256TIP3   OH252258   2.324   4.631   6.031 -1.3764 -0.2726  0.1953
10256TIP3    H152259   2.321   4.596   6.120 -1.4686 -1.5259 -0.2797
10256TIP3    H252260   2.371   4.564   5.980  1.3025  1.7032 -0.1452
10257TIP3   OH252261   3.138   6.617   1.415  0.4401  0.1750 -0.0284
10257TIP3    H152262   3.134   6.622   1.319 -0.0341 -1.5912 -0.1468
10257TIP3    H252263   3.080   6.687   1.445 -2.3253 -1.4701 -1.1486
10258TIP3   OH252264   6.625   5.896  13.442 -0.0788  0.2859  0.1444
10258TIP3    H152265   6.664   5.823  13.393 -0.2721 -0.6308  1.3197
10258TIP3    H252266   6.667   5.892  13.528 -2.6921 -0.7297  1.4673
10259TIP3   OH252267   4.006   0.194   1.221 -0.2101  0.0307 -0.3622
10259TIP3    H152268   4.034   0.176   1.310 -0.9422  0.3907 -0.0532
10259TIP3    H252269   3.948   0.270   1.228 -0.5772 -0.1666 -1.0880
10260TIP3   OH252270   1.081   0.204   2.051  0.6326 -0.1736 -0.1242
10260TIP3    H152271   1.120   0.282   2.012 -0.2272  0.1692 -0.3102
10260TIP3    H252272   1.023   0.238   2.120  2.0702 -0.7583  1.4458
10261TIP3   OH252273   5.447   3.224   2.747  0.5061  0.3338 -0.3343
10261TIP3    H152274   5.495   3.162   2.693 -0.8179 -1.3999  0.3915
10261TIP3    H252275   5.474   3.206   2.836 -0.1104  0.5995 -0.0828
10262TIP3   OH252276   2.439   0.900   0.837 -0.2764 -0.3093 -0.0978
10262TIP3    H152277   2.405   0.862   0.918  0.1120  0.2349  0.3387
10262TIP3    H252278   2.474   0.985   0.864  3.0109 -1.5025 -0.1285
10263TIP3   OH252279   1.363   4.014   1.207  1.2463 -0.4759 -0.5519
10263TIP3    H152280   1.387   3.941   1.264  0.0934 -2.7694 -2.7813
10263TIP3    H252281   1.316   4.075   1.264  1.5553 -1.8447  1.2567
10264TIP3   OH252282   5.333   1.032   5.429 -0.2612 -0.2787 -0.5552
10264TIP3    H152283   5.290   0.947   5.435 -0.8357  0.0593  0.3524
10264TIP3    H252284   5.358   1.052   5.520  1.4672 -0.2803 -0.9953
10265TIP3   OH252285   4.245   4.493  14.565 -0.3080  0.0117 -0.0692
10265TIP3    H152286   4.292   4.576  14.556 -1.5043  0.5849 -1.6047
10265TIP3    H252287   4.217   4.472  14.476 -2.7175 -0.3856  0.7000
10266TIP3   OH252288   2.037   5.500   7.066 -0.8531 -0.4612  0.3170
10266TIP3    H152289   1.994   5.542   6.992 -1.1312 -1.3671 -0.0456
10266TIP3    H252290   1.966   5.459   7.115 -0.3514 -3.3907 -1.1849
10267TIP3   OH252291   5.479   2.268  15.932  0.4221 -0.3106 -0.0176
10267TIP3    H152292   5.543   2.239  15.998 -0.8929 -0.7657  1.1047
10267TIP3    H252293   5.436   2.188  15.904 -1.2534  0.1900  0.9843
10268TIP3   OH252294   5.335   5.354  13.482  0.7546  0.6073  0.2450
10268TIP3    H152295   5.369   5.309  13.404  0.3886 -0.2738  0.5717
10268TIP3    H252296   5.404   5.344  13.547 -0.1774 -1.5310  1.0353
10269TIP3   OH252297   2.380   0.432   4.601  0.2521  0.4775  0.1936
10269TIP3    H152298   2.342   0.349   4.629 -1.9720  0.9721 -1.0852
10269TIP3    H252299   2.373   0.431   4.505 -1.2258  2.6689  0.1907
10270TIP3   OH252300   1.929   6.688  15.578 -0.2403  0.1247 -0.2309
10270TIP3    H152301   1.921   6.701  15.672 -1.1251 -1.7060  0.0072
10270TIP3    H252302   1.843   6.712  15.543 -0.1626  0.0529 -0.4773
10271TIP3   OH252303   1.546   5.117  14.219  0.8141 -0.1537 -0.3817
10271TIP3    H152304   1.484   5.138  14.149 -0.2909 -1.0459  0.2926
10271TIP3    H252305   1.556   5.022  14.214 -0.9354 -0.5289  1.9596
10272TIP3   OH252306   2.852   1.171  11.688  0.0122  0.1937 -0.2498
10272TIP3    H152307   2.769   1.145  11.729 -0.6464  0.1735 -1.5274
10272TIP3    H252308   2.845   1.265  11.676  0.6069  0.3441  0.5393
10273TIP3   OH252309   2.164   1.748  16.168  0.4712 -0.1807 -0.0437
10273TIP3    H152310   2.137   1.700  16.246  1.5578 -2.1313 -0.7769
10273TIP3    H252311   2.103   1.821  16.162 -2.6591 -2.5632  0.0774
10274TIP3   OH252312   0.198   3.987  16.665  0.1643  0.4886  1.0442
10274TIP3    H152313   0.214   4.081  16.655  0.1129  0.2875 -1.9232
10274TIP3    H252314   0.279   3.946  16.634 -0.9313 -0.4094 -0.7915
10275TIP3   OH252315   5.201   0.546   3.057  0.6983  0.9122 -0.1452
10275TIP3    H152316   5.214   0.637   3.084  0.4557  1.4638 -1.7973
10275TIP3    H252317   5.153   0.506   3.130  1.2223  1.9617  0.8049
10276TIP3   OH252318   1.711   2.477   2.095 -0.7591 -0.3665 -0.2448
10276TIP3    H152319   1.759   2.522   2.164  1.4235 -2.7392 -0.0667
10276TIP3    H252320   1.712   2.537   2.020  0.7022  0.4895  0.4344
10277TIP3   OH252321   4.330   6.115  15.535 -0.1998 -0.5545 -0.2858
10277TIP3    H152322   4.346   6.071  15.619 -1.0946  0.4839  0.4583
10277TIP3    H252323   4.409   6.099  15.484 -0.0550 -2.0884  0.3580
10278TIP3   OH252324   4.526   3.041  12.828  0.0928 -0.1617  0.6095
10278TIP3    H152325   4.476   3.039  12.747  2.3092  1.3555 -0.8943
10278TIP3    H252326   4.574   2.959  12.829  0.7920  0.2215 -0.1555
10279TIP3   OH252327   1.848   4.224  14.200 -0.0193  0.0379  0.0932
10279TIP3    H152328   1.872   4.306  14.157  0.0297 -0.0191  0.0119
10279TIP3    H252329   1.791   4.179  14.136  0.3022 -0.1862 -0.0429
10280TIP3   OH252330   6.339   4.741   0.328 -0.4307  0.5680  0.4374
10280TIP3    H152331   6.387   4.819   0.354 -1.2037  0.4958  2.2559
10280TIP3    H252332   6.311   4.758   0.239  0.7139  1.7064  0.2754
10281TIP3   OH252333   4.676   0.932   2.992  0.3468 -0.3772 -0.2847
10281TIP3    H152334   4.669   1.024   3.015  1.8932 -0.2448 -0.2523
10281TIP3    H252335   4.615   0.888   3.051 -0.0807  0.5752  0.0059
10282TIP3   OH252336   1.308   4.921  17.023 -0.0778  0.2374  0.0897
10282TIP3    H152337   1.235   4.949  17.078 -0.4373 -0.4862 -0.0018
10282TIP3    H252338   1.364   4.871  17.082  0.3826  0.8528  0.1755
10283TIP3   OH252339   1.474   3.780  16.588 -0.1933 -0.3992 -0.2178
10283TIP3    H152340   1.474   3.693  16.548 -4.6626 -0.4458 -0.6190
10283TIP3    H252341   1.498   3.839  16.517  0.0011 -1.0757 -0.7238
10284TIP3   OH252342   2.776   6.195   3.757 -0.1193 -0.2631  0.4481
10284TIP3    H152343   2.710   6.139   3.797  1.1063 -1.2305  1.1741
10284TIP3    H252344   2.770   6.175   3.663 -1.4430  0.3318  0.3797
10285TIP3   OH252345   5.886   5.774   1.929  0.3821  0.1826 -0.4647
10285TIP3    H152346   5.820   5.773   1.859  0.5652  1.4639 -0.6820
10285TIP3    H252347   5.967   5.799   1.884  1.0037 -1.2000 -0.1678
10286TIP3   OH252348   1.946   2.494   0.121  0.5804  0.2443  0.6076
10286TIP3    H152349   2.011   2.439   0.164  1.0083  1.0661  1.0473
10286TIP3    H252350   1.998   2.563   0.079  0.1042 -0.0299 -0.4616
10287TIP3   OH252351   3.520   2.977  15.215  0.4702 -0.1806 -0.5234
10287TIP3    H152352   3.432   2.967  15.250  0.1625 -0.7310 -1.4135
10287TIP3    H252353   3.567   2.900  15.247  0.2200 -0.6264 -1.2074
10288TIP3   OH252354   3.353   6.515   1.116  0.3830  0.3476  0.0892
10288TIP3    H152355   3.320   6.428   1.096  1.0109  0.5804 -2.2883
10288TIP3    H252356   3.277   6.573   1.104  0.4404  0.3301 -0.4028
10289TIP3   OH252357   2.492   1.654  14.259  0.3971  0.2426  0.8743
10289TIP3    H152358   2.554   1.680  14.191  0.7170  0.5235  1.2655
10289TIP3    H252359   2.533   1.682  14.341  0.2722 -0.5921  1.2270
10290TIP3   OH252360   3.895   1.093   3.698  0.2055  0.3126  0.3082
10290TIP3    H152361   3.868   1.147   3.624 -1.1839 -0.4541  0.2164
10290TIP3    H252362   3.829   1.111   3.765 -0.2942 -1.2329  0.2738
10291TIP3   OH252363   5.312   3.033  15.972  0.6366 -0.3628 -0.0539
10291TIP3    H152364   5.264   3.036  15.889 -0.5235 -0.1248  0.6021
10291TIP3    H252365   5.383   2.971  15.956  0.1343 -0.7044 -1.0626
10292TIP3   OH252366   1.791   6.444   0.823  0.4533 -0.7941  0.2378
10292TIP3    H152367   1.742   6.525   0.805  0.4971 -0.9092 -0.4282
10292TIP3    H252368   1.772   6.388   0.748  0.3229 -1.4521  0.7621
10293TIP3   OH252369   0.612   2.920   5.228 -0.1314 -0.5363  0.0295
10293TIP3    H152370   0.530   2.901   5.182  0.0001  1.5792 -1.2071
10293TIP3    H252371   0.681   2.898   5.166  0.1195  0.5132 -0.0821
10294TIP3   OH252372   6.408   6.103   4.278 -0.1508  0.6236 -0.3069
10294TIP3    H152373   6.409   6.170   4.347 -0.0043  0.0197  0.2966
10294TIP3    H252374   6.349   6.035   4.313 -2.2848  1.5133 -1.9729
10295TIP3   OH252375   2.950   2.872  14.116  0.0538  0.2866 -0.1213
10295TIP3    H152376   3.017   2.812  14.150 -0.4924  0.2909  1.0179
10295TIP3    H252377   2.941   2.939  14.184  0.5923  1.6321 -1.3413
10296TIP3   OH252378   5.810   4.203  14.356  0.0620  0.6456  0.7075
10296TIP3    H152379   5.805   4.120  14.403 -1.3937 -0.0115 -0.5056
10296TIP3    H252380   5.758   4.264  14.409 -0.9880  0.0925  0.3518
10297TIP3   OH252381   5.435   4.450   2.009 -0.4934  1.2264 -0.4391
10297TIP3    H152382   5.492   4.381   1.974 -3.0313 -0.7361 -0.9745
10297TIP3    H252383   5.491   4.497   2.071  1.3155 -1.5073  0.2140
10298TIP3   OH252384   4.251   4.399  16.997  0.3306 -0.1541  0.0786
10298TIP3    H152385   4.333   4.414  16.950  0.1020 -0.4050 -0.3988
10298TIP3    H252386   4.190   4.367  16.931 -0.2426  0.3034  0.3743
10299TIP3   OH252387   6.387   6.450   1.277  0.2050 -1.0034  0.1346
10299TIP3    H152388   6.449   6.495   1.219  0.5436 -2.0181 -0.3050
10299TIP3    H252389   6.438   6.378   1.314 -0.8624 -2.2278 -0.7033
10300TIP3   OH252390   0.372   2.529   3.619 -0.6034  0.6482 -0.0451
10300TIP3    H152391   0.308   2.593   3.648 -1.0298  0.6394 -0.9240
10300TIP3    H252392   0.427   2.577   3.556  0.3725  0.7043  0.8190
10301TIP3   OH252393   0.291   2.791   4.185  0.0012 -0.2203 -0.1887
10301TIP3    H152394   0.295   2.699   4.210  1.3475 -0.5680 -1.5463
10301TIP3    H252395   0.293   2.839   4.268 -0.4089 -1.4103  0.5163
10302TIP3   OH252396   6.493   3.978  16.105  0.0145  0.0753 -0.1706
10302TIP3    H152397   6.475   4.007  16.195  1.2948 -0.3679  0.2380
10302TIP3    H252398   6.451   3.893  16.098  0.4555 -0.1780  0.2213
10303TIP3   OH252399   6.442   3.077   5.378 -0.3702  0.0376  0.4978
10303TIP3    H152400   6.385   3.128   5.435 -0.1212  1.3945 -0.4289
10303TIP3    H252401   6.507   3.039   5.438 -0.5805  0.7806  1.2110
10304TIP3   OH252402   3.649   5.262   5.713 -0.5102  0.3694 -0.3533
10304TIP3    H152403   3.632   5.267   5.807 -0.1868 -2.2100 -0.0978
10304TIP3    H252404   3.742   5.284   5.705 -0.7607  1.5698 -0.2286
10305TIP3   OH252405   5.282   6.786   5.622  0.3468 -0.3941  0.0592
10305TIP3    H152406   5.337   6.790   5.700  0.3792  1.9840 -0.0062
10305TIP3    H252407   5.344   6.796   5.549  0.1763 -1.2476 -0.2110
10306TIP3   OH252408   4.329   1.785   4.728 -0.4763  0.5605 -0.2721
10306TIP3    H152409   4.360   1.775   4.818  1.3187 -1.3534 -1.0499
10306TIP3    H252410   4.382   1.856   4.692  0.1261  0.0605 -0.3743
10307TIP3   OH252411   5.550   5.475  12.972 -0.5729 -0.3521 -0.1229
10307TIP3    H152412   5.502   5.459  12.890 -0.6995  0.5829 -0.2524
10307TIP3    H252413   5.625   5.416  12.968 -0.3186  0.0157 -1.1553
10308TIP3   OH252414   4.181   1.995   1.033 -0.0232  0.1285 -0.2077
10308TIP3    H152415   4.102   1.944   1.045 -0.4589  1.1255  1.4496
10308TIP3    H252416   4.245   1.956   1.092  0.2423  0.2903 -0.3852
10309TIP3   OH252417   5.847   2.152  14.148 -0.5338  0.5222 -0.0065
10309TIP3    H152418   5.880   2.173  14.235 -0.2914  1.4475 -0.3091
10309TIP3    H252419   5.809   2.234  14.116 -0.1769  0.3292 -0.9644
10310TIP3   OH252420   0.964   0.289   2.746 -0.2643 -0.2933  0.0691
10310TIP3    H152421   1.015   0.276   2.826  1.1101 -0.3114 -0.7831
10310TIP3    H252422   1.008   0.361   2.701 -1.3978  0.1394 -0.3868
10311TIP3   OH252423   6.477   1.803  11.031  0.0668 -0.0635  0.7204
10311TIP3    H152424   6.526   1.883  11.013 -0.9373  0.4956  0.3847
10311TIP3    H252425   6.543   1.733  11.027  0.4099  0.3051 -2.5329
10312TIP3   OH252426   4.542   0.806  11.146  0.1332 -0.2059  0.0734
10312TIP3    H152427   4.570   0.898  11.152  1.5752 -0.6670  0.7854
10312TIP3    H252428   4.604   0.767  11.084 -0.1265 -0.8321  0.2089
10313TIP3   OH252429   2.303   3.645   2.394 -0.1252  0.8088  0.0670
10313TIP3    H152430   2.351   3.575   2.351  0.9249  1.5064  0.0617
10313TIP3    H252431   2.370   3.708   2.419 -1.0551  1.8471  0.0136
10314TIP3   OH252432   6.716   1.183  12.753 -0.7296  0.6327  0.1155
10314TIP3    H152433   6.652   1.190  12.823  0.2925 -1.3972  1.3632
10314TIP3    H252434   6.683   1.240  12.683 -3.5371  0.1374  0.9331
10315TIP3   OH252435   6.515   2.360   5.870  0.8060  0.0763  0.6908
10315TIP3    H152436   6.600   2.401   5.888  0.2479  2.4542 -1.4784
10315TIP3    H252437   6.451   2.426   5.897 -0.4778 -1.9416  2.9203
10316TIP3   OH252438   2.978   0.528   0.512 -0.2262  0.4074 -0.3049
10316TIP3    H152439   2.992   0.535   0.607  1.5192 -0.6127 -0.4487
10316TIP3    H252440   2.996   0.615   0.478  2.4792  0.0437 -0.0251
10317TIP3   OH252441   6.389   5.841  15.582  0.1550 -0.3161 -0.4922
10317TIP3    H152442   6.334   5.768  15.551 -0.9615 -0.4924  1.6675
10317TIP3    H252443   6.326   5.909  15.607  0.8116 -0.6255  2.3268
10318TIP3   OH252444   3.232   5.051  14.475 -0.4471  0.5944 -0.2947
10318TIP3    H152445   3.252   5.143  14.454  0.4849  0.3189 -0.6508
10318TIP3    H252446   3.303   5.001  14.435 -1.1358 -0.3208 -0.3982
10319TIP3   OH252447   5.353   4.034  11.827  0.1727  0.2184  0.2183
10319TIP3    H152448   5.406   4.114  11.826  1.2493 -0.3991  2.3540
10319TIP3    H252449   5.413   3.965  11.800 -0.7258  0.0589 -1.5163
10320TIP3   OH252450   1.104   2.253   3.669  0.1533  0.4718 -0.1129
10320TIP3    H152451   1.065   2.184   3.616 -1.9222  1.7943 -0.3996
10320TIP3    H252452   1.161   2.207   3.731  1.7125 -1.2195 -2.6055
10321TIP3   OH252453   2.838   6.400   4.116  0.6188 -0.8650  0.1454
10321TIP3    H152454   2.859   6.406   4.209 -0.3758  1.2773  0.3000
10321TIP3    H252455   2.751   6.439   4.109  0.4412 -1.5106 -1.6139
10322TIP3   OH252456   3.598   2.431   1.541  0.1499 -0.1147  0.4609
10322TIP3    H152457   3.651   2.510   1.555  1.0040 -0.2239 -1.7482
10322TIP3    H252458   3.510   2.464   1.524  0.5422  0.4011 -0.6466
10323TIP3   OH252459   3.055   1.823   4.205 -0.0810 -0.5193  0.1325
10323TIP3    H152460   3.149   1.828   4.189 -0.4937  1.5235 -2.3234
10323TIP3    H252461   3.045   1.845   4.298  1.7434  2.4456 -0.2450
10324TIP3   OH252462   3.667   5.022   3.619  0.0376  0.2961  0.3055
10324TIP3    H152463   3.576   5.030   3.648 -0.5323 -0.8715 -1.0667
10324TIP3    H252464   3.661   4.996   3.527  1.7697  0.1726  0.1941
10325TIP3   OH252465   2.079   0.377  13.096  0.1432 -0.0532 -0.1769
10325TIP3    H152466   2.082   0.298  13.151  0.4337 -0.1082 -0.2670
10325TIP3    H252467   2.135   0.355  13.021 -0.6649 -0.1718 -0.7546
10326TIP3   OH252468   0.260   2.429  12.873 -0.1877 -0.7737 -0.4725
10326TIP3    H152469   0.321   2.489  12.831 -0.7034 -1.1152 -1.7732
10326TIP3    H252470   0.305   2.345  12.874  0.6976 -0.3581  1.7153
10327TIP3   OH252471   0.008   1.867   3.034  0.1168  0.2199 -0.1974
10327TIP3    H152472  -0.042   1.922   2.973  1.7879 -0.8617 -2.7406
10327TIP3    H252473  -0.055   1.801   3.063 -0.8374  0.9891 -0.4457
10328TIP3   OH252474   6.742   4.321   0.980  0.2381 -0.1517  0.0006
10328TIP3    H152475   6.675   4.351   1.042 -0.4144  0.2602 -0.8801
10328TIP3    H252476   6.703   4.244   0.938 -0.0206  0.5340 -1.0557
10329TIP3   OH252477   3.635   3.840  11.264  0.3828 -0.3761  0.2849
10329TIP3    H152478   3.729   3.837  11.245  0.2052  1.4549 -1.2001
10329TIP3    H252479   3.629   3.875  11.353  1.1084  2.4559 -0.7040
10330TIP3   OH252480   2.869   4.275   1.933 -0.0145  0.2588 -0.7406
10330TIP3    H152481   2.878   4.310   2.022 -2.2343 -0.7160 -0.0569
10330TIP3    H252482   2.868   4.352   1.877 -0.5308  1.0257  0.2827
10331TIP3   OH252483   1.739   3.156   2.357  1.0772 -0.1704  0.5283
10331TIP3    H152484   1.644   3.168   2.354  0.5923 -2.9854  1.0750
10331TIP3    H252485   1.773   3.211   2.287 -0.8909  1.2467  0.6028
10332TIP3   OH252486   4.406   6.752   4.871 -0.3681  0.2266  0.3341
10332TIP3    H152487   4.437   6.781   4.785 -1.7800  0.8714  0.0008
10332TIP3    H252488   4.444   6.815   4.932  0.6109 -0.2102  0.1865
10333TIP3   OH252489   6.743   6.575   3.904  0.6295  0.2656  0.2414
10333TIP3    H152490   6.752   6.480   3.912  1.5122  0.2842 -0.4183
10333TIP3    H252491   6.828   6.610   3.929  0.9747  0.7499 -1.4740
10334TIP3   OH252492   2.966   4.265   5.068  0.2326 -0.0645 -0.0386
10334TIP3    H152493   3.009   4.180   5.073  1.1218  0.4251  1.1781
10334TIP3    H252494   3.031   4.322   5.027  0.1832  0.3553  0.4671
10335TIP3   OH252495   6.427   2.221  10.239  0.6290  0.0215 -0.4159
10335TIP3    H152496   6.509   2.172  10.233  0.0822 -0.9228 -0.3057
10335TIP3    H252497   6.359   2.154  10.240 -0.0862  0.7448  0.7358
10336TIP3   OH252498   4.460   6.518   2.319  0.1040 -0.1896  0.0365
10336TIP3    H152499   4.413   6.601   2.324  0.2682 -0.1056  0.1790
10336TIP3    H252500   4.408   6.465   2.258  1.4567  0.9647 -2.2602
10337TIP3   OH252501   4.043   3.636  16.027 -0.5534  0.2213 -0.0689
10337TIP3    H152502   4.057   3.560  15.970 -2.0164 -0.5565  0.5376
10337TIP3    H252503   4.118   3.692  16.011  0.7310 -1.4743 -0.3428
10338TIP3   OH252504   4.233   0.154  10.873 -0.5314  0.0482 -0.1261
10338TIP3    H152505   4.180   0.075  10.863  2.0148 -1.5863 -2.1371
10338TIP3    H252506   4.220   0.202  10.791  0.1902  0.1603 -0.1881
10339TIP3   OH252507   1.452   4.187   3.262  0.3845 -0.0404  0.7869
10339TIP3    H152508   1.456   4.273   3.220 -2.0149 -0.2769 -0.0433
10339TIP3    H252509   1.532   4.143   3.232 -0.0515  0.6679 -1.6312
10340TIP3   OH252510   0.618   5.939  11.566  0.0894  0.1790 -0.0109
10340TIP3    H152511   0.571   5.987  11.498 -1.5904 -2.0794 -0.5588
10340TIP3    H252512   0.580   5.970  11.648 -1.1297 -0.3682 -0.3630
10341TIP3   OH252513   4.617   3.536  17.174 -0.1116 -0.0582 -0.1915
10341TIP3    H152514   4.704   3.574  17.190  1.4862 -2.8148 -1.5673
10341TIP3    H252515   4.612   3.462  17.235 -0.4516 -1.3272 -1.6945
10342TIP3   OH252516   5.485   0.625   1.441  0.8525  0.4004 -0.1269
10342TIP3    H152517   5.514   0.554   1.498  0.7393 -0.1072 -0.6884
10342TIP3    H252518   5.421   0.673   1.494  0.3780 -0.3585  0.0117
10343TIP3   OH252519   3.568   5.434  12.780 -0.5989  0.2408 -0.3981
10343TIP3    H152520   3.486   5.448  12.733  1.2072  2.8113 -3.1020
10343TIP3    H252521   3.578   5.512  12.834 -0.3089 -0.4511  0.5746
10344TIP3   OH252522   4.757   1.699  14.612  0.0323  0.0201  0.1578
10344TIP3    H152523   4.727   1.753  14.539 -0.3278 -0.0547  0.2499
10344TIP3    H252524   4.846   1.731  14.631 -0.8548  1.8687  1.4423
10345TIP3   OH252525   6.065   3.371   4.641  0.1722  0.1718 -0.1444
10345TIP3    H152526   6.123   3.443   4.666  0.9286 -0.9553  1.5657
10345TIP3    H252527   6.045   3.387   4.549 -0.5133  3.1055  0.4095
10346TIP3   OH252528   6.202   4.029   1.684  0.3684 -0.2589  0.4644
10346TIP3    H152529   6.242   4.110   1.653  1.3127 -0.8744  0.0096
10346TIP3    H252530   6.224   4.026   1.777 -1.7943  1.1993  1.0940
10347TIP3   OH252531   2.362   1.354   1.508  0.2470  0.3242 -0.0376
10347TIP3    H152532   2.384   1.269   1.546 -0.4574  0.3150  0.3597
10347TIP3    H252533   2.326   1.404   1.581 -0.2407  0.6352 -0.4866
10348TIP3   OH252534   3.303   1.671  15.690 -0.4282 -0.4152 -0.3090
10348TIP3    H152535   3.376   1.678  15.751 -0.9915  0.4067  0.2818
10348TIP3    H252536   3.228   1.649  15.744 -0.5739 -1.6023 -0.9610
10349TIP3   OH252537   0.850   6.326   3.113 -0.4798  0.2329 -0.0868
10349TIP3    H152538   0.870   6.420   3.123  0.4726  0.2484 -1.7972
10349TIP3    H252539   0.936   6.284   3.113 -0.8022 -0.4522 -1.0538
10350TIP3   OH252540   4.809   3.257   2.522  0.6411  0.0433 -0.1608
10350TIP3    H152541   4.799   3.236   2.430 -1.5939 -0.7091  0.2080
10350TIP3    H252542   4.751   3.197   2.568  2.3409 -0.1994  1.8486
10351TIP3   OH252543   3.297   0.247  12.758 -0.3944 -0.1924  0.0587
10351TIP3    H152544   3.377   0.231  12.708 -0.1615  1.3616 -0.1105
10351TIP3    H252545   3.294   0.176  12.822 -0.8301 -2.3983 -2.2354
10352TIP3   OH252546   5.454   6.375  14.496  0.0421  0.1505  0.5565
10352TIP3    H152547   5.431   6.368  14.403  0.3151  0.2864  0.4764
10352TIP3    H252548   5.373   6.403  14.539 -0.6377 -1.7872  0.6489
10353TIP3   OH252549   1.385   6.221  11.888  0.1570  0.0324 -0.3195
10353TIP3    H152550   1.416   6.312  11.893  2.0340 -0.6002  0.2683
10353TIP3    H252551   1.337   6.208  11.970 -0.3051  0.5569 -0.5045
10354TIP3   OH252552   4.393   0.839  16.686 -0.3756 -0.0425 -0.1025
10354TIP3    H152553   4.448   0.887  16.748 -2.1841  0.7782  0.9594
10354TIP3    H252554   4.455   0.797  16.626  1.4124  0.0830  1.5509
10355TIP3   OH252555   6.104   1.767  13.781 -0.3049 -0.0662  0.2798
10355TIP3    H152556   6.098   1.752  13.875  2.4359 -0.0187  0.5542
10355TIP3    H252557   6.174   1.832  13.772 -1.1474  0.6308 -1.7633
10356TIP3   OH252558   3.891   3.047   1.967  0.4377 -0.3341  0.0679
10356TIP3    H152559   3.877   3.117   2.030 -0.8061  0.3793 -0.9482
10356TIP3    H252560   3.986   3.034   1.965  0.7585  1.7571 -0.1575
10357TIP3   OH252561   2.439   0.543   5.114 -0.1939  0.0971 -0.3143
10357TIP3    H152562   2.390   0.625   5.115  1.3716  1.1049 -1.1844
10357TIP3    H252563   2.527   0.568   5.084  0.0266 -2.0491 -1.6928
10358TIP3   OH252564   5.636   2.813  15.323 -0.4427 -0.1831  0.5490
10358TIP3    H152565   5.723   2.818  15.363  0.1782 -2.0312 -0.4479
10358TIP3    H252566   5.603   2.728  15.351 -0.7671 -0.6951 -1.2872
10359TIP3   OH252567   6.369   5.285  11.516  0.4886  0.5499 -0.0892
10359TIP3    H152568   6.298   5.345  11.495  0.5584  1.0044  0.8867
10359TIP3    H252569   6.440   5.342  11.546  1.1869  0.0873 -0.8435
10360TIP3   OH252570   1.462   6.493  15.287  1.1730  0.4458  0.9317
10360TIP3    H152571   1.542   6.543  15.273  1.2725  0.2811  0.9184
10360TIP3    H252572   1.417   6.495  15.202  1.7698 -0.5419  0.5775
10361TIP3   OH252573   6.777   0.849   2.248  0.0714  0.1135 -0.2805
10361TIP3    H152574   6.840   0.816   2.312  0.3103  0.4181 -0.3566
10361TIP3    H252575   6.694   0.810   2.275  0.1099  0.4842  0.4079
10362TIP3   OH252576   6.344   0.060   1.451 -0.2724  0.4895 -0.0300
10362TIP3    H152577   6.330   0.077   1.544 -1.8599 -1.1812  0.0722
10362TIP3    H252578   6.359  -0.034   1.445 -0.7691  0.4716 -1.5224
10363TIP3   OH252579   1.728   0.241  14.286 -0.9016 -0.3089  0.2636
10363TIP3    H152580   1.707   0.217  14.377  0.2655 -0.2930  0.5568
10363TIP3    H252581   1.673   0.317  14.268  0.6674  1.3153  1.8574
10364TIP3   OH252582   2.149   6.299   3.856 -0.5218  0.0670  0.1236
10364TIP3    H152583   2.132   6.305   3.950 -0.0779 -2.3233  0.4174
10364TIP3    H252584   2.063   6.279   3.817 -0.7996  1.5441 -0.0747
10365TIP3   OH252585   5.758   1.327  13.983 -0.6143  0.1363  0.0957
10365TIP3    H152586   5.761   1.300  13.891 -1.7909 -0.7639  0.2908
10365TIP3    H252587   5.771   1.422  13.981  1.8577 -0.1500 -0.7725
10366TIP3   OH252588   4.427   1.764   2.081  0.3838  0.0677  0.2287
10366TIP3    H152589   4.357   1.704   2.108 -0.6216  1.0435 -0.1648
10366TIP3    H252590   4.470   1.719   2.009 -0.9553  0.1904 -0.6871
10367TIP3   OH252591   3.043   5.479  12.163 -0.4793  1.1017 -0.2197
10367TIP3    H152592   3.052   5.574  12.157  1.4916  1.1512  1.9477
10367TIP3    H252593   3.043   5.461  12.257 -1.2790 -1.0330 -0.5707
10368TIP3   OH252594   3.115   5.918   3.756  0.3101 -0.4998  0.3579
10368TIP3    H152595   3.115   6.007   3.720 -1.4183 -0.8728 -0.6832
10368TIP3    H252596   3.041   5.875   3.713  1.1107 -2.4544  0.8273
10369TIP3   OH252597   6.661   3.176   3.178 -0.3212 -0.0265  0.5275
10369TIP3    H152598   6.715   3.098   3.169 -1.8455 -1.2226  1.2005
10369TIP3    H252599   6.694   3.220   3.256  0.3085 -0.1911  0.3571
10370TIP3   OH252600   3.813   0.938  17.071  0.9059  0.6048  0.1617
10370TIP3    H152601   3.863   0.946  17.152 -0.5717 -1.1649  1.3018
10370TIP3    H252602   3.872   0.894  17.010  1.4688  0.5135  0.7693
10371TIP3   OH252603   4.768   4.348  11.079  0.0102  0.4756 -0.7743
10371TIP3    H152604   4.724   4.340  10.994  0.5331 -2.0213 -0.8735
10371TIP3    H252605   4.708   4.401  11.131 -0.0809  2.5615 -2.8060
10372TIP3   OH252606   1.354   4.391   1.210 -0.0310  0.2926  0.1931
10372TIP3    H152607   1.447   4.392   1.188  0.2896  1.4275  1.4733
10372TIP3    H252608   1.342   4.466   1.268 -1.5381 -0.4406  0.8930
10373TIP3   OH252609   1.102   2.063  12.525  0.1039  0.1219  0.1802
10373TIP3    H152610   1.140   1.977  12.545 -2.1761 -1.2404 -1.0106
10373TIP3    H252611   1.117   2.074  12.431 -0.1089  0.7866  0.2206
10374TIP3   OH252612   4.897   2.294  14.645  0.4838  0.3513 -0.7985
10374TIP3    H152613   4.981   2.333  14.670  0.4111  0.1505 -0.2358
10374TIP3    H252614   4.918   2.204  14.621  0.1704 -0.2973  1.2049
10375TIP3   OH252615   3.518   6.479  12.911  0.1604  0.0658 -0.5141
10375TIP3    H152616   3.508   6.385  12.895  0.5068  0.1726 -1.3972
10375TIP3    H252617   3.570   6.511  12.838  0.6716  0.8257  0.1630
10376TIP3   OH252618   6.134   2.283  15.394  0.3378 -0.0302  0.1691
10376TIP3    H152619   6.109   2.198  15.431  0.8159 -0.0614  0.4329
10376TIP3    H252620   6.154   2.264  15.302  0.6480 -0.2464  0.2781
10377TIP3   OH252621   0.014   0.987  14.620  0.5028  0.3643 -0.2729
10377TIP3    H152622   0.042   1.046  14.690  0.6447 -0.6750  0.5817
10377TIP3    H252623   0.052   0.902  14.644 -1.1829 -0.5041 -0.4885
10378TIP3   OH252624   3.803   2.576   2.656  0.2003 -0.0215  0.0894
10378TIP3    H152625   3.888   2.604   2.691  0.0775 -0.6471  0.9249
10378TIP3    H252626   3.808   2.480   2.655 -0.9100 -0.1193  1.2839
10379TIP3   OH252627   1.106   6.539  15.461 -0.7284 -0.2556  0.6711
10379TIP3    H152628   1.089   6.613  15.403 -2.0644 -0.3513  0.9249
10379TIP3    H252629   1.030   6.534  15.518 -1.0684 -2.3015  0.1531
10380TIP3   OH252630   3.098   4.805  11.244 -0.6797  0.5143 -0.2992
10380TIP3    H152631   3.006   4.793  11.266 -1.1373  0.0993 -2.2867
10380TIP3    H252632   3.131   4.717  11.227  0.5260  0.4842  1.7792
10381TIP3   OH252633   6.368   5.115   0.973  0.3078 -0.4441 -0.3339
10381TIP3    H152634   6.314   5.065   1.035  0.9087  0.2290  0.7824
10381TIP3    H252635   6.320   5.113   0.891 -1.7334  0.6400  0.7684
10382TIP3   OH252636   0.201   2.957   4.420 -0.0839 -0.0145  0.0973
10382TIP3    H152637   0.198   3.042   4.377  1.7303  0.0905  0.1154
10382TIP3    H252638   0.139   2.965   4.493 -1.4262  0.5835 -1.0422
10383TIP3   OH252639   1.148   1.612   3.504  0.1302  0.4610  0.1655
10383TIP3    H152640   1.223   1.566   3.466  0.5358  0.5726  0.8274
10383TIP3    H252641   1.129   1.564   3.585  0.5180  1.4182  0.8359
10384TIP3   OH252642   5.281   1.005   6.423 -0.0945  0.1550 -0.9442
10384TIP3    H152643   5.356   0.978   6.477 -0.4623 -0.4491 -0.7214
10384TIP3    H252644   5.235   1.069   6.477  0.8955  1.4298 -1.5571
10385TIP3   OH252645   5.223   5.730   5.259  0.2162  0.3064 -0.0595
10385TIP3    H152646   5.157   5.775   5.207 -0.7581 -2.5905 -1.5497
10385TIP3    H252647   5.304   5.740   5.209 -0.1614 -0.2477 -0.7957
10386TIP3   OH252648   1.146   3.874   2.890  0.2189  0.3997 -0.3532
10386TIP3    H152649   1.179   3.953   2.932  0.6467 -1.1494  2.4841
10386TIP3    H252650   1.139   3.897   2.798  3.4181  2.7386 -0.1794
10387TIP3   OH252651   6.694   6.487   3.251 -0.1069 -0.2590 -0.2244
10387TIP3    H152652   6.695   6.575   3.212  0.6132 -0.1401  0.0325
10387TIP3    H252653   6.604   6.458   3.243  0.1459 -0.5251 -2.5979
10388TIP3   OH252654   0.004   4.977   2.838  0.1261 -0.6704 -0.2371
10388TIP3    H152655  -0.064   4.916   2.811 -0.6697  0.0091  0.1807
10388TIP3    H252656   0.086   4.934   2.814 -0.3863 -2.0750  0.3934
10389TIP3   OH252657   0.485   6.243  12.833  0.2169  0.1281  0.0172
10389TIP3    H152658   0.520   6.155  12.817  1.1584  0.2536  1.2682
10389TIP3    H252659   0.517   6.266  12.920 -0.7960  1.3469  0.0870
10390TIP3   OH252660   6.697   4.387  12.524  0.2704 -0.1630  0.4357
10390TIP3    H152661   6.763   4.345  12.469  1.1518  1.4720  0.1520
10390TIP3    H252662   6.747   4.450  12.577 -0.9650  0.5578  0.7946
10391TIP3   OH252663   0.193   4.641   1.545 -0.6186 -0.8213 -0.2903
10391TIP3    H152664   0.238   4.631   1.461 -0.6547 -1.6134 -0.2194
10391TIP3    H252665   0.100   4.645   1.522 -0.5809 -0.1506 -0.3544
10392TIP3   OH252666   2.306   2.548   2.178  0.5308 -0.2473  0.3600
10392TIP3    H152667   2.235   2.485   2.191  1.4564 -1.3934  0.0357
10392TIP3    H252668   2.263   2.627   2.145 -1.0250  0.3012  3.3405
10393TIP3   OH252669   0.027   2.025  15.385  0.0426 -0.4934 -0.3077
10393TIP3    H152670   0.016   2.043  15.479 -1.2023  0.1517 -0.5607
10393TIP3    H252671   0.111   2.065  15.362  0.0371 -0.0640  0.3910
10394TIP3   OH252672   4.434   0.779   2.082 -0.0135  0.3763 -0.0438
10394TIP3    H152673   4.428   0.691   2.120  0.2633 -0.1672 -1.2187
10394TIP3    H252674   4.527   0.802   2.089 -0.1453  0.7379  0.5941
10395TIP3   OH252675   2.592   3.229   1.512 -0.2136  0.2060 -0.1158
10395TIP3    H152676   2.535   3.192   1.445 -0.9841 -0.7018  1.0106
10395TIP3    H252677   2.672   3.177   1.506 -0.5381 -0.3324  0.1100
10396TIP3   OH252678   4.420   2.953   3.994  0.3556  0.1204  0.5416
10396TIP3    H152679   4.328   2.925   3.999  0.4712 -0.2874  0.4476
10396TIP3    H252680   4.421   3.016   3.922  0.2145 -0.1406  0.3097
10397TIP3   OH252681   3.914   2.582   6.577 -0.1862 -0.0807  0.0263
10397TIP3    H152682   3.895   2.645   6.646  0.1785 -0.1923  0.2318
10397TIP3    H252683   3.982   2.623   6.525 -0.2898 -0.1006 -0.1256
10398TIP3   OH252684   6.225   6.248  15.965 -0.0004  0.3266 -0.0607
10398TIP3    H152685   6.288   6.316  15.987  0.9464 -0.0417 -1.4236
10398TIP3    H252686   6.194   6.272  15.878  0.0892 -0.7675 -0.4177
10399TIP3   OH252687   1.010   1.891   2.854  0.2712 -0.1495  0.4110
10399TIP3    H152688   1.001   1.980   2.888 -2.9516  0.0095 -0.5664
10399TIP3    H252689   0.927   1.849   2.875  0.9569 -2.3129 -0.9235
10400TIP3   OH252690   3.713   3.204  14.092  0.6894  0.0800 -0.1130
10400TIP3    H152691   3.758   3.119  14.093 -0.2032 -0.4433  2.6811
10400TIP3    H252692   3.684   3.217  14.182 -0.0259  2.9505 -0.6672
10401TIP3   OH252693   4.255   0.030  13.507  0.0439  0.1493 -0.2019
10401TIP3    H152694   4.232  -0.003  13.420 -1.1312 -1.2156  0.5791
10401TIP3    H252695   4.320  -0.032  13.539  0.8300  0.9204 -0.2614
10402TIP3   OH252696   4.119   1.625   0.789 -0.1876  0.6634  0.0316
10402TIP3    H152697   4.161   1.645   0.873 -1.6040  1.3548  0.6059
10402TIP3    H252698   4.027   1.612   0.810 -0.4309  0.0194 -1.3153
10403TIP3   OH252699   3.704   2.800   1.997  0.2241 -0.0092  0.7048
10403TIP3    H152700   3.655   2.877   2.023 -1.0853 -0.6763  0.2790
10403TIP3    H252701   3.759   2.830   1.925  0.5996  0.7855  1.3009
10404TIP3   OH252702   2.562   6.248  12.821  0.1054 -0.3404  0.3955
10404TIP3    H152703   2.538   6.230  12.730 -0.3212 -0.0172  0.4402
10404TIP3    H252704   2.655   6.225  12.827  0.3599  0.4533 -0.3430
10405TIP3   OH252705   4.412   1.723  15.994  0.6427 -0.3921 -0.4058
10405TIP3    H152706   4.385   1.672  15.918 -0.6688 -1.2987  0.6358
10405TIP3    H252707   4.336   1.722  16.052  0.1307  3.6239 -0.7387
10406TIP3   OH252708   3.991   1.343   1.374  0.2998  0.4613  0.3352
10406TIP3    H152709   3.976   1.437   1.378 -0.8293  0.3261 -0.4670
10406TIP3    H252710   3.972   1.312   1.463  0.6749  0.9809  0.6005
10407TIP3   OH252711   1.469   2.607  16.284 -0.1021  0.2744 -0.0512
10407TIP3    H152712   1.493   2.547  16.214  2.8845 -0.3855  1.4039
10407TIP3    H252713   1.414   2.556  16.343  1.0844 -0.5667  0.3482
10408TIP3   OH252714   0.982   2.707  13.535  0.2751  0.2914  0.5016
10408TIP3    H152715   0.974   2.617  13.503  0.7124  0.0082  1.1688
10408TIP3    H252716   1.068   2.736  13.506  0.1453  0.4884  0.3098
10409TIP3   OH252717   1.258   2.510  13.236  0.0815 -0.0678 -1.0976
10409TIP3    H152718   1.203   2.441  13.199  0.5079  0.2638 -2.4325
10409TIP3    H252719   1.343   2.467  13.250  0.8556  0.4915 -3.4782
10410TIP3   OH252720   6.212   6.549  15.013 -0.0579 -0.0714 -0.2829
10410TIP3    H152721   6.155   6.519  15.084 -0.5631  0.4277 -0.4773
10410TIP3    H252722   6.168   6.625  14.976  0.5763  0.1290 -0.6459
10411TIP3   OH252723   2.203   6.568   5.446 -0.3908  0.0498  0.3017
10411TIP3    H152724   2.153   6.607   5.518 -1.7418  0.1055 -0.6229
10411TIP3    H252725   2.193   6.474   5.457 -1.4511  0.0666 -0.3496
10412TIP3   OH252726   1.980   1.271   2.988  0.6043  0.5963 -0.1779
10412TIP3    H152727   1.931   1.348   3.015 -0.9734 -0.9184  1.5548
10412TIP3    H252728   2.063   1.277   3.037 -1.1033 -0.6896  3.2377
10413TIP3   OH252729   3.068   4.076   4.060  0.0472 -0.1105 -0.0855
10413TIP3    H152730   2.990   4.087   4.114 -0.1518  0.4161 -0.4716
10413TIP3    H252731   3.134   4.132   4.102 -0.1528  0.4174 -0.4768
10414TIP3   OH252732   0.754   4.762  11.665 -0.2662  0.4160 -0.1164
10414TIP3    H152733   0.733   4.799  11.580  1.7068  1.5202 -0.1937
10414TIP3    H252734   0.826   4.816  11.698  0.4643 -1.2927  1.3033
10415TIP3   OH252735   5.402   0.301   3.675 -0.0431  0.1632 -0.0877
10415TIP3    H152736   5.449   0.366   3.727 -0.6546  0.8858 -0.4231
10415TIP3    H252737   5.398   0.339   3.587 -1.1475  0.0812 -0.0950
10416TIP3   OH252738   6.708   1.469   1.741  0.2274  0.2303  0.4216
10416TIP3    H152739   6.752   1.468   1.657  0.3036  0.1586  0.4627
10416TIP3    H252740   6.653   1.548   1.738  0.3099  0.2856  0.3471
10417TIP3   OH252741   4.128   2.342   5.011 -0.1068 -0.4129  0.0532
10417TIP3    H152742   4.193   2.331   5.081 -0.1448 -2.0703 -0.1339
10417TIP3    H252743   4.057   2.282   5.035 -0.0436 -1.1447 -1.4604
10418TIP3   OH252744   5.919   1.380   5.559 -0.5642 -0.1082  0.0052
10418TIP3    H152745   5.984   1.449   5.543  1.2725 -1.0542  2.6203
10418TIP3    H252746   5.858   1.418   5.622  0.9716 -1.0168  2.1631
10419TIP3   OH252747   3.424   0.014  10.754 -0.5198 -0.8193  0.1245
10419TIP3    H152748   3.398   0.087  10.810  2.1268  2.7865 -2.8148
10419TIP3    H252749   3.501  -0.023  10.797 -0.3009 -0.0671  0.4011
10420TIP3   OH252750   1.007   5.777  16.209  0.4744  0.1401  0.6517
10420TIP3    H152751   0.981   5.865  16.238  0.4198  1.1742 -2.1588
10420TIP3    H252752   1.099   5.770  16.234  0.7056  1.3595  0.2383
10421TIP3   OH252753   6.197   0.909   2.770 -0.3115  0.1217  0.1213
10421TIP3    H152754   6.217   0.949   2.685  0.5783  0.0077  0.2738
10421TIP3    H252755   6.169   0.983   2.825 -0.8672  0.1993 -0.2591
10422TIP3   OH252756   2.951   5.512  15.538 -0.6906 -0.2886  0.8065
10422TIP3    H152757   2.946   5.514  15.633  1.3334 -0.5905  0.9588
10422TIP3    H252758   2.865   5.542  15.509 -1.0026  0.8434  2.7183
10423TIP3   OH252759   6.539   0.626  12.879 -0.0388 -0.0907 -0.0618
10423TIP3    H152760   6.453   0.597  12.849  0.3495  0.4651 -1.8615
10423TIP3    H252761   6.529   0.719  12.896 -0.0214 -0.2175  0.6536
10424TIP3   OH252762   1.485   0.635  12.301  0.0589  0.0507 -0.5181
10424TIP3    H152763   1.393   0.616  12.279  0.1429 -0.0680 -0.7684
10424TIP3    H252764   1.501   0.584  12.381  0.2905 -0.9767 -1.1984
10425TIP3   OH252765   1.833   5.528   1.325 -0.3528 -0.6785 -0.3974
10425TIP3    H152766   1.762   5.560   1.270 -0.4651 -1.3144 -0.6187
10425TIP3    H252767   1.791   5.470   1.388 -0.6388  1.8858  1.9969
10426TIP3   OH252768   2.010   1.266  13.568 -0.5177  0.2229 -0.0786
10426TIP3    H152769   2.027   1.359  13.555 -1.1950  0.2087 -1.2109
10426TIP3    H252770   1.920   1.254  13.537 -0.2532 -0.8961 -0.4385
10427TIP3   OH252771   4.260   3.832   2.632  0.3641 -0.0270  0.0003
10427TIP3    H152772   4.185   3.816   2.690  0.7284  1.5450  0.9602
10427TIP3    H252773   4.292   3.918   2.658  1.4032  0.1106 -1.6323
10428TIP3   OH252774   2.280   0.747   4.888  0.1582  0.2254  0.2800
10428TIP3    H152775   2.219   0.803   4.840 -0.3036  0.1000  0.7112
10428TIP3    H252776   2.301   0.677   4.827 -0.8486 -0.2285  0.4311
10429TIP3   OH252777   1.739   0.223   5.629 -0.1546  0.4209 -0.0362
10429TIP3    H152778   1.686   0.299   5.604 -0.4165  1.0856  2.2943
10429TIP3    H252779   1.827   0.258   5.643  0.0013  0.0685 -0.1130
10430TIP3   OH252780   6.524   3.599  11.271 -0.4807  0.1021 -0.2774
10430TIP3    H152781   6.485   3.681  11.299 -0.5452  0.5383 -1.5746
10430TIP3    H252782   6.493   3.587  11.181 -0.7867 -1.5389  0.0106
10431TIP3   OH252783   3.477   5.308   4.052 -0.7450  0.3523  0.2710
10431TIP3    H152784   3.498   5.218   4.029 -0.9038  0.4807 -0.4022
10431TIP3    H252785   3.390   5.303   4.092 -2.6905  0.6417 -3.5064
10432TIP3   OH252786   6.290   5.658  14.191  0.3976  0.3274  0.1526
10432TIP3    H152787   6.233   5.707  14.131 -0.4470 -1.1335 -0.2943
10432TIP3    H252788   6.292   5.711  14.271 -0.1398  1.2854 -0.4488
10433TIP3   OH252789   2.638   1.741  11.616  0.1250 -0.5591 -0.0919
10433TIP3    H152790   2.722   1.739  11.569 -0.0482 -0.5831 -0.4050
10433TIP3    H252791   2.617   1.649  11.632  0.1184 -0.5563 -0.0841
10434TIP3   OH252792   3.686   6.780   0.895 -0.1451 -0.5682 -0.3183
10434TIP3    H152793   3.657   6.715   0.959  0.7786  0.2600  0.9920
10434TIP3    H252794   3.775   6.804   0.923  0.6930 -0.8649 -2.4725
10435TIP3   OH252795   2.239   1.528  14.560 -0.3413 -0.2953 -0.0091
10435TIP3    H152796   2.195   1.573  14.488 -0.0118 -0.9165 -0.6154
10435TIP3    H252797   2.330   1.520  14.531  0.0375  0.3606  0.9317
10436TIP3   OH252798   5.266   5.412   5.458  0.3109  0.5639  0.3976
10436TIP3    H152799   5.253   5.432   5.551 -0.5916 -2.3151  0.9897
10436TIP3    H252800   5.358   5.386   5.452  1.0223  2.8982 -0.0585
10437TIP3   OH252801   5.079   6.130  14.511 -0.1484 -0.3578  0.0139
10437TIP3    H152802   5.154   6.158  14.564  0.2685 -0.4907 -0.4935
10437TIP3    H252803   5.031   6.070  14.568  0.4601 -0.7320  0.1455
10438TIP3   OH252804   4.408   4.667  11.386 -0.4535  0.1145 -0.0057
10438TIP3    H152805   4.460   4.601  11.431 -2.0682  0.7334  2.9718
10438TIP3    H252806   4.456   4.749  11.399  0.5592 -0.0860 -2.0511
10439TIP3   OH252807   3.918   2.053   3.724 -0.4441  0.1002  0.1780
10439TIP3    H152808   3.912   2.012   3.637 -0.5533 -1.7019  0.9856
10439TIP3    H252809   3.874   1.991   3.782  0.4822  0.8056  1.6814
10440TIP3   OH252810   2.450   5.049   2.527  0.0197 -0.7030 -0.3942
10440TIP3    H152811   2.475   5.018   2.614  0.2129  1.0055  0.2113
10440TIP3    H252812   2.486   4.985   2.467  0.7468 -1.4008  0.7478
10441TIP3   OH252813   0.580   1.617   4.537  0.2588  0.1398  0.2828
10441TIP3    H152814   0.558   1.550   4.601  0.8284  0.0941  0.4300
10441TIP3    H252815   0.660   1.586   4.496 -0.4511 -0.1584 -0.9249
10442TIP3   OH252816   5.727   1.132   3.809 -0.1541 -0.6840 -0.2826
10442TIP3    H152817   5.680   1.061   3.853  0.0670 -0.5480  0.1847
10442TIP3    H252818   5.661   1.176   3.757 -1.4570  1.6944  3.0229
10443TIP3   OH252819   2.126   2.072   2.954  0.3707 -0.4429 -0.0876
10443TIP3    H152820   2.172   1.992   2.978  0.5635  0.0248  1.1960
10443TIP3    H252821   2.033   2.048   2.958  0.3257 -0.1617  2.2422
10444TIP3   OH252822   4.015   6.473   5.730  0.2352 -0.1712 -0.0315
10444TIP3    H152823   3.979   6.503   5.814 -0.4943  0.8338 -0.6807
10444TIP3    H252824   4.008   6.377   5.734  0.9087 -0.1825  1.3486
10445TIP3   OH252825   3.270   0.899  14.860 -0.5667 -0.4954  0.3340
10445TIP3    H152826   3.351   0.865  14.897 -0.0995 -0.9067 -0.9981
10445TIP3    H252827   3.298   0.968  14.800 -1.2034 -0.5844 -0.0750
10446TIP3   OH252828   2.683   1.723  14.036  0.3030 -0.4617 -0.1951
10446TIP3    H152829   2.610   1.714  13.975  0.9105 -0.7248 -0.8996
10446TIP3    H252830   2.712   1.814  14.025 -0.2675 -0.1961  0.4891
10447TIP3   OH252831   1.301   2.771   6.426  0.1039  0.3133  0.1829
10447TIP3    H152832   1.291   2.820   6.508  0.5751 -0.6910  0.8593
10447TIP3    H252833   1.225   2.714   6.423 -0.8122  1.5353 -0.9565
10448TIP3   OH252834   0.003   5.307   4.478  0.0708 -0.4335  0.1688
10448TIP3    H152835  -0.051   5.326   4.554 -1.2093 -3.4857  0.1656
10448TIP3    H252836  -0.057   5.312   4.404  0.7272  0.0657 -0.3382
10449TIP3   OH252837   5.677   5.932  13.053 -0.1559  0.4306  0.1270
10449TIP3    H152838   5.615   5.900  13.119 -1.7228 -1.9744 -2.2711
10449TIP3    H252839   5.732   5.856  13.033  0.8244  1.3378 -0.7157
10450TIP3   OH252840   5.534   0.724   0.972 -0.2646  0.7638  0.1432
10450TIP3    H152841   5.555   0.646   0.921 -0.6037 -0.0773  1.2679
10450TIP3    H252842   5.562   0.704   1.061 -3.0389  0.7346  1.1032
10451TIP3   OH252843   2.572   1.379   3.229 -0.1263 -0.3430 -0.2621
10451TIP3    H152844   2.498   1.404   3.284 -1.0238 -0.5839 -1.3264
10451TIP3    H252845   2.549   1.292   3.197  0.6480 -0.4382 -0.5644
10452TIP3   OH252846   6.668   3.957  14.678 -0.6184  0.1171  0.7908
10452TIP3    H152847   6.676   4.037  14.729  1.9555 -0.2635  1.1055
10452TIP3    H252848   6.758   3.926  14.667 -1.2923 -1.2056 -1.7800
10453TIP3   OH252849   2.554   4.974  16.309  0.8344  0.0613  0.2765
10453TIP3    H152850   2.599   4.891  16.326  0.2308 -0.6644 -1.4643
10453TIP3    H252851   2.624   5.035  16.286  1.1603 -0.3323  0.2143
10454TIP3   OH252852   0.130   2.581  12.468 -0.1799 -0.0729 -0.6932
10454TIP3    H152853   0.123   2.517  12.397  1.0507 -1.2157  0.1651
10454TIP3    H252854   0.223   2.580  12.493  0.3301  3.3715 -1.7972
10455TIP3   OH252855   3.194   4.630   3.633  0.1846 -0.1211  0.0381
10455TIP3    H152856   3.168   4.573   3.561  1.3825 -1.0980  0.3403
10455TIP3    H252857   3.112   4.657   3.673 -0.4863  0.2742 -1.5543
10456TIP3   OH252858   3.909   2.509  12.492 -0.3840  0.2315 -0.2177
10456TIP3    H152859   3.989   2.524  12.443 -0.2989  0.1457 -0.1059
10456TIP3    H252860   3.932   2.532  12.582 -0.4213 -0.0062 -0.1462
10457TIP3   OH252861   2.725   2.101  11.278  0.2333 -0.3104  0.4295
10457TIP3    H152862   2.638   2.077  11.247 -0.6292 -1.2504  3.2747
10457TIP3    H252863   2.710   2.169  11.343  1.5127 -1.1595  1.6706
10458TIP3   OH252864   2.675   6.129  14.548 -0.2812 -0.0082 -0.0680
10458TIP3    H152865   2.749   6.184  14.574 -0.0448  0.1083 -0.9524
10458TIP3    H252866   2.712   6.065  14.488 -0.8554 -0.0684 -0.3676
10459TIP3   OH252867   3.003   3.449   2.596 -0.6863  0.1718  0.5391
10459TIP3    H152868   3.039   3.412   2.677 -1.2973 -0.4805  0.5257
10459TIP3    H252869   3.080   3.468   2.542 -0.3594 -1.4866  0.3821
10460TIP3   OH252870   6.427   1.228   0.419 -0.5135  0.1889 -0.0431
10460TIP3    H152871   6.332   1.223   0.414 -0.4504 -1.1601 -0.1916
10460TIP3    H252872   6.458   1.195   0.335  0.1036 -1.5716  0.8062
10461TIP3   OH252873   3.462   0.716   3.671 -0.2073  0.3495  0.1628
10461TIP3    H152874   3.376   0.732   3.631 -0.0911 -2.4010 -1.4538
10461TIP3    H252875   3.524   0.733   3.600  0.1829 -2.1407 -0.1849
10462TIP3   OH252876   2.796   2.211  14.248 -0.2976  0.5193  0.1017
10462TIP3    H152877   2.743   2.269  14.302  1.7383  1.9771  0.6721
10462TIP3    H252878   2.764   2.226  14.159 -0.1673  2.1792  0.2948
10463TIP3   OH252879   3.017   2.721   4.761 -0.0138 -0.1339  0.4203
10463TIP3    H152880   2.989   2.796   4.708  0.7669 -1.1202 -1.4653
10463TIP3    H252881   2.992   2.644   4.710 -0.8657 -1.2229  2.3465
10464TIP3   OH252882   0.306   3.542  14.295  0.1861  0.2600 -0.3428
10464TIP3    H152883   0.277   3.488  14.222  0.0536  1.3292 -1.1177
10464TIP3    H252884   0.402   3.543  14.287  0.1510  0.7909 -0.8454
10465TIP3   OH252885   3.841   0.590   0.076 -0.6705  0.1670  0.2086
10465TIP3    H152886   3.932   0.597   0.047 -1.0455 -0.5111 -1.2501
10465TIP3    H252887   3.846   0.557   0.165  0.5072 -0.8542 -0.2142
10466TIP3   OH252888   5.185   6.170   5.315  0.0760  0.1265  0.4520
10466TIP3    H152889   5.224   6.255   5.335  1.6060 -0.4413  0.0440
10466TIP3    H252890   5.130   6.186   5.238 -2.1291  1.3414  2.1469
10467TIP3   OH252891   3.276   4.525   0.310  0.3477 -0.1619  0.0136
10467TIP3    H152892   3.222   4.541   0.387  0.6790 -0.4109  0.3006
10467TIP3    H252893   3.321   4.443   0.329  0.7991  0.0254 -0.2352
10468TIP3   OH252894   5.423   4.424   4.238 -0.2080  0.1525 -0.6612
10468TIP3    H152895   5.394   4.449   4.326  0.4803 -1.4371  0.0447
10468TIP3    H252896   5.498   4.481   4.221 -0.0371  0.1311 -0.0118
10469TIP3   OH252897   4.473   2.444  12.654 -0.4540 -0.0542  0.1670
10469TIP3    H152898   4.555   2.459  12.606 -0.4200 -1.0379 -0.1106
10469TIP3    H252899   4.501   2.422  12.743 -0.2476 -2.3409 -0.3750
10470TIP3   OH252900   2.184   4.681  13.967  0.0600  0.5543 -0.2827
10470TIP3    H152901   2.233   4.698  13.886  1.8890 -0.0355  0.6641
10470TIP3    H252902   2.221   4.600  14.001 -2.6762 -0.7944 -0.3039
10471TIP3   OH252903   5.080   5.726   1.968 -0.3091 -0.0709 -0.2271
10471TIP3    H152904   5.027   5.649   1.949 -2.0003  0.6920  0.9978
10471TIP3    H252905   5.155   5.693   2.017 -2.1441 -0.8143  2.2828
10472TIP3   OH252906   4.593   5.354   3.057 -0.2630  0.2314 -0.6824
10472TIP3    H152907   4.662   5.417   3.036  0.9489 -0.6407  0.4533
10472TIP3    H252908   4.514   5.407   3.067  0.6405  1.5380 -0.1381
10473TIP3   OH252909   1.615   4.483  16.840  0.5484  0.0197 -1.2216
10473TIP3    H152910   1.539   4.538  16.823  0.9950  1.2451  0.4816
10473TIP3    H252911   1.656   4.473  16.754  0.3429  2.2079 -1.6467
10474TIP3   OH252912   0.337   2.390   0.874  0.1854 -0.8183 -0.1385
10474TIP3    H152913   0.348   2.297   0.855  1.2368 -1.0941  1.6045
10474TIP3    H252914   0.253   2.395   0.920  1.3090 -1.3655  2.1266
10475TIP3   OH252915   5.559   4.878  16.341  0.5327  0.0454  0.4263
10475TIP3    H152916   5.572   4.932  16.263 -1.3352  3.0476  2.0412
10475TIP3    H252917   5.479   4.910  16.380 -0.1153 -3.2396  2.1992
10476TIP3   OH252918   5.933   0.500  12.743 -0.0566 -0.4583  0.5432
10476TIP3    H152919   5.841   0.506  12.717 -0.5734  0.7575  2.3831
10476TIP3    H252920   5.978   0.563  12.687 -0.7210  0.3960  0.9369
10477TIP3   OH252921   4.853   3.523  12.395  0.1368  0.9276  0.5385
10477TIP3    H152922   4.799   3.552  12.469  0.2173  0.2489  0.8688
10477TIP3    H252923   4.943   3.541  12.422  0.2188 -0.0411  0.9406
10478TIP3   OH252924   0.066   5.271   0.128 -0.1267  0.2525  0.2023
10478TIP3    H152925   0.129   5.342   0.138 -0.7702  0.7223  1.1242
10478TIP3    H252926   0.017   5.271   0.210  0.7647 -2.1719  0.8084
10479TIP3   OH252927   1.684   0.231   2.750  0.8514  0.3824 -0.3900
10479TIP3    H152928   1.614   0.284   2.788  0.0062 -0.5270 -0.6309
10479TIP3    H252929   1.696   0.265   2.662  0.3929  0.2535 -0.5046
10480TIP3   OH252930   1.070   4.601  13.911 -0.6563  0.1553  0.0881
10480TIP3    H152931   1.111   4.516  13.896 -0.1391  0.9436 -4.0989
10480TIP3    H252932   1.142   4.658  13.937  0.1536  0.3999 -2.3950
10481TIP3   OH252933   6.672   4.338   0.523 -0.1644  0.0070  0.4099
10481TIP3    H152934   6.678   4.243   0.525 -2.5475 -0.2158 -0.5922
10481TIP3    H252935   6.755   4.366   0.483  1.9154 -1.3646  3.4043
10482TIP3   OH252936   0.465   5.632   5.471  0.5058 -0.1939 -0.3752
10482TIP3    H152937   0.486   5.684   5.548  0.9243 -0.7625 -0.1017
10482TIP3    H252938   0.529   5.561   5.471  1.2805  0.4326 -1.8748
10483TIP3   OH252939   2.733   6.573   2.051  0.1623  0.5412  0.7943
10483TIP3    H152940   2.716   6.576   2.145  0.5994 -1.6176  0.9852
10483TIP3    H252941   2.752   6.481   2.033 -2.3707  0.4065 -1.8541
10484TIP3   OH252942   5.659   6.731  14.306 -0.0278  0.7902  0.0162
10484TIP3    H152943   5.570   6.737  14.271 -0.0526  0.2942 -0.0178
10484TIP3    H252944   5.648   6.688  14.391  0.3917 -1.4928 -1.0025
10485TIP3   OH252945   1.577   1.498   4.980  0.0012 -0.7680  0.2941
10485TIP3    H152946   1.579   1.489   4.885  1.2853 -1.1590  0.3401
10485TIP3    H252947   1.660   1.542   5.002  0.4180 -2.0031  1.3491
10486TIP3   OH252948   5.251   5.494  11.639  0.1178 -0.0125 -0.1382
10486TIP3    H152949   5.265   5.563  11.574 -0.8488  0.2047 -0.1297
10486TIP3    H252950   5.175   5.524  11.690  0.2162 -0.6817  0.4129
10487TIP3   OH252951   3.664   1.600  13.120  0.2310  0.0537  0.3591
10487TIP3    H152952   3.590   1.540  13.123  0.3134 -0.0382  0.5129
10487TIP3    H252953   3.654   1.645  13.036  0.6218 -0.7504 -0.1387
10488TIP3   OH252954   1.787   2.003   4.707  0.2903 -0.1725  0.0951
10488TIP3    H152955   1.792   1.914   4.742  1.1994  0.0510  0.5655
10488TIP3    H252956   1.715   2.043   4.755 -0.3298 -0.7423 -0.3395
10489TIP3   OH252957   2.264   0.157   1.522  0.1880 -0.2665 -0.0857
10489TIP3    H152958   2.309   0.093   1.576  0.0126 -0.5832 -0.3098
10489TIP3    H252959   2.182   0.175   1.568 -0.3798 -1.2214 -0.6905
10490TIP3   OH252960   4.264   6.449   0.358  0.0788 -0.1246  1.1594
10490TIP3    H152961   4.259   6.465   0.264  0.3877  0.8166  1.2849
10490TIP3    H252962   4.324   6.375   0.367 -0.6727 -0.8180  0.5759
10491TIP3   OH252963   2.597   6.687  16.170  0.4660 -0.3925 -0.1353
10491TIP3    H152964   2.655   6.690  16.093  0.4373 -0.2746 -0.1534
10491TIP3    H252965   2.656   6.698  16.244  0.3643  0.6568 -0.1963
10492TIP3   OH252966   3.469   4.431  14.734 -0.1441  0.4247 -0.2649
10492TIP3    H152967   3.479   4.507  14.791 -0.5439  0.2998 -0.0185
10492TIP3    H252968   3.529   4.366  14.769 -1.8518 -0.3951  1.3252
10493TIP3   OH252969   6.318   5.823  12.566  0.0918  0.9764 -0.5688
10493TIP3    H152970   6.388   5.860  12.512 -0.4758 -0.9192 -2.7512
10493TIP3    H252971   6.237   5.857  12.527 -0.3078  0.5183 -0.1546
10494TIP3   OH252972   3.209   0.181   3.741  0.1987 -0.0239 -0.0521
10494TIP3    H152973   3.227   0.275   3.741 -2.7869  0.6363  0.0323
10494TIP3    H252974   3.237   0.152   3.654 -1.7321  1.6850 -1.3660
10495TIP3   OH252975   3.898   4.405  13.784 -0.3348 -0.0281 -0.0483
10495TIP3    H152976   3.887   4.493  13.821  2.2428  0.1766  0.4657
10495TIP3    H252977   3.957   4.418  13.710  0.4926 -1.3650  0.3470
10496TIP3   OH252978   3.231   5.772   4.339 -0.5802 -0.8615 -0.4351
10496TIP3    H152979   3.181   5.854   4.345  0.1762 -0.2427 -1.9724
10496TIP3    H252980   3.278   5.779   4.256  1.4687 -1.7590  0.5784
10497TIP3   OH252981   5.880   2.605   0.882  0.0239 -0.2558 -0.0824
10497TIP3    H152982   5.973   2.614   0.862 -0.0873 -0.9585 -0.9705
10497TIP3    H252983   5.879   2.562   0.968  0.5192  0.0918  0.1012
10498TIP3   OH252984   3.727   0.114   1.843 -0.2612 -0.3376 -0.7148
10498TIP3    H152985   3.805   0.091   1.893  0.7808  0.5241 -1.8688
10498TIP3    H252986   3.664   0.144   1.909  0.2198 -1.4170  0.2733
10499TIP3   OH252987   2.978   2.002   3.047 -0.1581 -0.4821  0.2116
10499TIP3    H152988   2.960   2.089   3.011  1.3301  0.4085  1.4867
10499TIP3    H252989   3.036   1.961   2.983  2.4068  1.0547  1.4115
10500TIP3   OH252990   1.877   6.457   6.224  0.0990  0.3996  0.1062
10500TIP3    H152991   1.840   6.495   6.143  0.1915  2.1208  0.8202
10500TIP3    H252992   1.801   6.445   6.281 -0.0086 -1.1126 -0.3042
10501TIP3   OH252993   2.129   2.069   4.426  0.2661  0.1556 -0.3125
10501TIP3    H152994   2.195   2.103   4.486 -1.5468  0.9204  1.3552
10501TIP3    H252995   2.140   2.122   4.347  1.8905 -0.0176 -0.2438
10502TIP3   OH252996   4.162   0.786   4.943  0.8692  0.1032  0.0333
10502TIP3    H152997   4.141   0.838   5.020  0.6826 -1.9855  1.4731
10502TIP3    H252998   4.078   0.768   4.902  0.8202  0.0569  0.1521
10503TIP3   OH252999   4.569   4.798   1.071 -0.7623 -0.3268 -0.6032
10503TIP3    H153000   4.637   4.803   1.005 -1.9326 -0.2832 -1.8394
10503TIP3    H253001   4.541   4.706   1.071 -0.0896 -0.5619  0.5779
10504TIP3   OH253002   3.367   0.592  12.001  0.0551  0.0119  0.0840
10504TIP3    H153003   3.294   0.574  11.942  0.2779 -1.2427  0.1680
10504TIP3    H253004   3.444   0.557  11.955  0.6037  1.2296  0.0396
10505TIP3   OH253005   4.259   3.363  10.901  0.0934  0.5254  0.5328
10505TIP3    H153006   4.279   3.272  10.878 -0.6011  0.5936 -0.4106
10505TIP3    H253007   4.193   3.390  10.837 -0.8108  1.2203  1.7033
10506TIP3   OH253008   5.771   1.728  14.560 -0.4279  0.2037  0.3595
10506TIP3    H153009   5.742   1.788  14.491  0.0519  0.2039  0.1494
10506TIP3    H253010   5.867   1.738  14.561 -0.3503 -0.4841  0.3852
10507TIP3   OH253011   2.892   1.283   3.359 -0.3659  0.5310 -0.1818
10507TIP3    H153012   2.803   1.252   3.341 -0.3907  0.6814 -0.3222
10507TIP3    H253013   2.920   1.233   3.436 -0.0592 -0.5000 -0.9404
10508TIP3   OH253014   0.186   0.569   3.944 -0.1936  0.0173 -1.1149
10508TIP3    H153015   0.200   0.537   4.032  0.9016 -1.1264 -1.6771
10508TIP3    H253016   0.121   0.639   3.954  1.4075  1.3126  0.8234
10509TIP3   OH253017   6.404   4.265   4.306  0.4134  0.0633  0.3347
10509TIP3    H153018   6.383   4.292   4.217  1.7600  0.4399  0.1139
10509TIP3    H253019   6.464   4.190   4.295 -0.5262 -0.8114  0.9361
10510TIP3   OH253020   0.736   4.499  17.000 -0.5117  0.3374 -0.0862
10510TIP3    H153021   0.731   4.440  16.925  1.3934  0.3414 -0.2399
10510TIP3    H253022   0.796   4.568  16.974  0.7690 -0.0470  1.6687
10511TIP3   OH253023   6.713   0.482  12.243 -0.3779 -0.0212  0.0795
10511TIP3    H153024   6.777   0.548  12.216 -0.0796 -0.3790 -0.0839
10511TIP3    H253025   6.648   0.532  12.294 -0.4095  0.4798 -0.4404
10512TIP3   OH253026   3.181   4.489  15.395 -0.3811 -0.2362  0.1891
10512TIP3    H153027   3.165   4.561  15.333  0.2026  0.1622  0.4863
10512TIP3    H253028   3.223   4.532  15.470  1.0678 -1.0432 -0.1119
10513TIP3   OH253029   4.620   3.864  12.899  0.0968 -0.1282  0.6520
10513TIP3    H153030   4.552   3.820  12.848 -0.2895  0.9902  0.1804
10513TIP3    H253031   4.680   3.794  12.923 -1.1963 -1.1471  1.0544
10514TIP3   OH253032   0.931   1.347   2.463  0.3649  0.4534 -0.1963
10514TIP3    H153033   1.001   1.314   2.406 -0.3833 -0.1571 -0.7780
10514TIP3    H253034   0.948   1.441   2.471  0.4118  0.5768 -1.5354
10515TIP3   OH253035   6.623   3.227   2.274  0.2667 -0.1167  0.3994
10515TIP3    H153036   6.560   3.155   2.271  0.5886 -0.3618 -1.4805
10515TIP3    H253037   6.576   3.298   2.317 -1.1221 -0.4734 -0.4774
10516TIP3   OH253038   5.208   5.155  13.706 -0.3346  0.5066  0.5150
10516TIP3    H153039   5.299   5.146  13.733 -0.2529  0.7434  0.3257
10516TIP3    H253040   5.208   5.134  13.612 -0.7154 -0.9054  0.8092
10517TIP3   OH253041   4.733   5.767  15.884  0.4313  0.1459 -0.2496
10517TIP3    H153042   4.788   5.846  15.882 -0.2715  0.6290 -1.2048
10517TIP3    H253043   4.783   5.705  15.937  1.4102  0.9314 -0.2143
10518TIP3   OH253044   1.305   6.451  11.530  0.0185 -0.4636  0.7718
10518TIP3    H153045   1.306   6.368  11.579  0.5333 -0.2883  1.0549
10518TIP3    H253046   1.378   6.501  11.564  0.3841 -0.3282 -0.1703
10519TIP3   OH253047   2.576   0.497   3.296 -0.4515 -0.2640 -0.6800
10519TIP3    H153048   2.516   0.441   3.246  0.4014 -1.4435 -0.4325
10519TIP3    H253049   2.658   0.448   3.298  0.9401  1.8446 -2.0724
10520TIP3   OH253050   2.902   1.286  11.266  0.4206  0.3188  0.1850
10520TIP3    H153051   2.903   1.377  11.236  2.1362 -0.5596 -2.8205
10520TIP3    H253052   2.848   1.240  11.201  0.7699 -1.0447  0.8223
10521TIP3   OH253053   0.268   0.430  14.788 -0.0001  0.0550 -0.0601
10521TIP3    H153054   0.306   0.500  14.735  0.5232  1.2707  1.8044
10521TIP3    H253055   0.175   0.452  14.793  0.0085  0.1242 -0.1957
10522TIP3   OH253056   6.060   3.836   2.367  0.0406  0.4205  0.2310
10522TIP3    H153057   6.016   3.919   2.350  1.6443  1.4727  0.9090
10522TIP3    H253058   6.055   3.788   2.284 -2.0112  0.6278  0.2030
10523TIP3   OH253059   6.713   6.367  12.717 -0.3584  0.1834  0.2003
10523TIP3    H153060   6.773   6.438  12.742 -0.7654  0.9751 -0.9495
10523TIP3    H253061   6.634   6.413  12.689  0.3191 -0.4860 -3.2409
10524TIP3   OH253062   0.648   2.190  15.895 -0.2884 -0.3820  0.4017
10524TIP3    H153063   0.582   2.204  15.963  0.8878 -1.1809  1.7854
10524TIP3    H253064   0.655   2.095  15.888  0.5690 -0.3077  0.1561
10525TIP3   OH253065   2.019   5.011  16.286 -0.0088 -0.2925  0.5097
10525TIP3    H153066   2.040   4.923  16.255 -0.4817 -0.8080  1.5873
10525TIP3    H253067   1.943   5.037  16.234  1.5784  0.5265 -1.5567
10526TIP3   OH253068   3.574   2.413   0.082 -0.3762  0.1162 -0.1087
10526TIP3    H153069   3.620   2.334   0.050 -0.8528 -0.1352 -0.1894
10526TIP3    H253070   3.631   2.449   0.149  0.2490  0.1729 -0.6618
10527TIP3   OH253071   4.905   3.228  14.512 -0.6035  0.1474 -0.0289
10527TIP3    H153072   4.889   3.169  14.438  1.6265 -0.0753 -0.4167
10527TIP3    H253073   4.996   3.212  14.535 -0.5918  1.8852  1.2899
10528TIP3   OH253074   2.949   5.760  15.287 -0.0166 -0.0203  0.0568
10528TIP3    H153075   2.928   5.757  15.380  1.8855  1.6434  0.6126
10528TIP3    H253076   2.878   5.811  15.248 -0.5734 -0.3118  0.6780
10529TIP3   OH253077   6.113   2.650  16.881 -0.1245 -0.1517  0.3404
10529TIP3    H153078   6.103   2.557  16.862  0.2385 -0.2524  0.6194
10529TIP3    H253079   6.184   2.653  16.945 -0.7088  0.2445  0.9903
10530TIP3   OH253080   5.372   2.409  13.268  0.1914 -0.1417 -0.0635
10530TIP3    H153081   5.431   2.434  13.340  0.2219 -0.3158 -0.0290
10530TIP3    H253082   5.416   2.440  13.189  0.1065  0.1479  0.0020
10531TIP3   OH253083   6.717   6.818  16.471 -0.2327  0.0675  0.0448
10531TIP3    H153084   6.813   6.825  16.470 -0.1606 -0.6114 -1.6345
10531TIP3    H253085   6.698   6.747  16.410 -1.7999 -0.1912  0.7961
10532TIP3   OH253086   5.413   3.236   0.794  0.0180 -0.1046  0.3918
10532TIP3    H153087   5.430   3.213   0.885  0.9729 -1.4172 -0.0813
10532TIP3    H253088   5.495   3.214   0.748  0.0518  1.7968 -0.5812
10533TIP3   OH253089   3.267   0.513   2.302 -0.2256 -0.4623  0.2999
10533TIP3    H153090   3.220   0.500   2.384  0.6759  0.2141  0.9484
10533TIP3    H253091   3.215   0.467   2.237 -0.9805 -0.9828  1.2438
10534TIP3   OH253092   4.041   0.277  11.072 -0.0228 -0.4444  0.0832
10534TIP3    H153093   4.043   0.330  11.152 -0.3772  1.0309 -0.8452
10534TIP3    H253094   4.115   0.308  11.020 -1.4986  0.7503 -1.4281
10535TIP3   OH253095   1.840   1.632  14.484  0.2462  0.3274 -0.2129
10535TIP3    H153096   1.928   1.667  14.475  0.6617 -0.4584  0.6020
10535TIP3    H253097   1.837   1.558  14.423  0.6704 -0.5707  0.8214
10536TIP3   OH253098   5.062   3.507   4.506  0.6738  0.5053 -0.0013
10536TIP3    H153099   5.006   3.441   4.547  2.2224  0.2463  1.8185
10536TIP3    H253100   5.141   3.509   4.560  1.2637  2.8642 -0.8200
10537TIP3   OH253101   5.239   3.253   3.284  0.2498 -0.0863  0.1069
10537TIP3    H153102   5.281   3.263   3.369  0.5933 -0.3016 -0.0373
10537TIP3    H253103   5.245   3.339   3.243 -0.4977  0.1896  0.5658
10538TIP3   OH253104   0.330   1.165  13.690  1.0085 -0.5788 -0.1149
10538TIP3    H153105   0.337   1.227  13.763 -1.4652 -0.2807 -0.0236
10538TIP3    H253106   0.413   1.174  13.643  2.5597 -0.5224  2.4168
10539TIP3   OH253107   6.417   3.714  13.553  0.2744  0.2508  0.6041
10539TIP3    H153108   6.477   3.648  13.587 -0.6430 -0.3519  1.0722
10539TIP3    H253109   6.408   3.693  13.460  0.0047 -0.2703  0.7461
10540TIP3   OH253110   5.485   3.228  15.418  0.2232 -0.1803  0.5281
10540TIP3    H153111   5.565   3.263  15.379 -0.0400  0.1822  0.3042
10540TIP3    H253112   5.433   3.306  15.439  0.4569 -0.3544  1.8219
10541TIP3   OH253113   6.526   0.519  14.793  0.1612 -0.2335  0.5523
10541TIP3    H153114   6.457   0.555  14.738 -0.5785 -0.8362  1.0596
10541TIP3    H253115   6.561   0.595  14.840  0.8068  0.2854 -0.7172
10542TIP3   OH253116   3.732   1.965   2.650 -0.0688  0.3845 -0.5817
10542TIP3    H153117   3.647   1.985   2.609 -0.0616  1.6678 -0.0331
10542TIP3    H253118   3.791   2.033   2.616  0.2317  0.7308  0.6046
10543TIP3   OH253119   4.733   1.998   2.789  0.6464  0.3894  0.4550
10543TIP3    H153120   4.669   1.960   2.729 -0.6477  0.8727  1.4750
10543TIP3    H253121   4.752   1.927   2.851  0.6253  0.4319  0.5100
10544TIP3   OH253122   2.081   1.501  12.278 -0.2874 -0.0429 -0.7987
10544TIP3    H153123   2.127   1.478  12.359  1.0128  1.3265 -1.0942
10544TIP3    H253124   1.997   1.536  12.307 -0.6666 -1.3825 -0.1741
10545TIP3   OH253125   3.044   6.723   4.345 -0.2001 -0.4001 -0.1886
10545TIP3    H153126   3.085   6.760   4.267 -0.0785  0.2149  0.1626
10545TIP3    H253127   3.109   6.737   4.414 -0.3050 -0.9497  0.0214
10546TIP3   OH253128   0.464   1.418   3.809  0.6951  0.0987  0.4227
10546TIP3    H153129   0.536   1.363   3.780 -0.3808 -0.6096 -1.0496
10546TIP3    H253130   0.492   1.507   3.789  1.3539 -0.1303  0.2987
10547TIP3   OH253131   5.847   0.996  15.975 -0.6088 -0.3073 -0.2918
10547TIP3    H153132   5.900   0.974  15.898 -1.4901 -0.6581 -0.8142
10547TIP3    H253133   5.897   0.961  16.049  0.7847  0.9996 -0.5737
10548TIP3   OH253134   1.839   0.498  14.801  0.7908 -0.1134 -0.2004
10548TIP3    H153135   1.802   0.557  14.736  2.0545  1.1357  0.1627
10548TIP3    H253136   1.860   0.419  14.753  0.0951  0.1303 -0.9308
10549TIP3   OH253137   2.793   6.016   4.980  0.0175 -0.4322 -0.3401
10549TIP3    H153138   2.852   6.091   4.980 -0.4030 -0.0013  1.8879
10549TIP3    H253139   2.849   5.941   4.963  0.9420  0.1198  0.1564
10550TIP3   OH253140   5.337   3.925   3.556 -0.2448  0.3774 -0.3500
10550TIP3    H153141   5.401   3.854   3.547 -0.6420  0.0277 -0.4255
10550TIP3    H253142   5.255   3.882   3.578  0.2731  1.0394  3.5731
10551TIP3   OH253143   2.658   0.755   3.726  0.4435  1.1359  0.1105
10551TIP3    H153144   2.747   0.718   3.722  0.1703  0.2402  1.6969
10551TIP3    H253145   2.609   0.705   3.661  0.8885  1.0216 -0.1445
10552TIP3   OH253146   0.031   3.507  15.391  0.5457  0.6512  0.3875
10552TIP3    H153147  -0.029   3.468  15.455  0.5016  1.5271  0.8904
10552TIP3    H253148   0.056   3.591  15.429  0.9788  0.9291 -0.4837
10553TIP3   OH253149   1.462   5.321   3.981  0.7196 -0.0574 -0.2668
10553TIP3    H153150   1.518   5.322   4.059  0.6759  0.6858 -0.2375
10553TIP3    H253151   1.451   5.414   3.958 -0.7525 -0.1585 -0.0853
10554TIP3   OH253152   6.123   2.197  11.608  0.4777 -0.0258 -0.1154
10554TIP3    H153153   6.128   2.111  11.566 -0.6848  0.5939 -1.5763
10554TIP3    H253154   6.046   2.192  11.664  1.1971 -0.3600  0.8850
10555TIP3   OH253155   4.081   2.742  14.061  0.0369  0.2255 -0.0539
10555TIP3    H153156   3.992   2.724  14.091  0.1264  0.3515  0.2864
10555TIP3    H253157   4.134   2.747  14.141  0.1880  1.0512 -0.1957
10556TIP3   OH253158   0.554   4.774   2.015 -0.0719 -0.2300  0.0397
10556TIP3    H153159   0.566   4.836   2.088 -1.9275 -0.6568  0.7783
10556TIP3    H253160   0.642   4.759   1.981  0.5757  1.7846  0.6907
10557TIP3   OH253161   3.458   4.948   5.689 -0.6405  0.0089  0.2397
10557TIP3    H153162   3.395   4.899   5.636  0.0713  0.8389 -1.4792
10557TIP3    H253163   3.542   4.936   5.643 -0.1997  1.7048  0.5119
10558TIP3   OH253164   4.579   4.298  13.978 -0.0755  0.4641 -0.4359
10558TIP3    H153165   4.668   4.274  14.004  0.4518  2.7266  0.0581
10558TIP3    H253166   4.522   4.248  14.036  0.9388  0.3541  0.4923
10559TIP3   OH253167   0.243   6.144   0.133  0.2829  0.7274  0.1286
10559TIP3    H153168   0.283   6.069   0.177  0.5177  1.3985  1.0850
10559TIP3    H253169   0.149   6.123   0.131  0.0048  1.4852  2.6416
10560TIP3   OH253170   5.773   6.107   3.402  0.3063  0.4687 -0.2395
10560TIP3    H153171   5.807   6.192   3.376  1.3583 -0.0043 -0.4729
10560TIP3    H253172   5.814   6.089   3.486  0.6687 -0.1287 -0.5375
10561TIP3   OH253173   2.662   5.076   0.081 -0.1692 -0.1839  0.1193
10561TIP3    H153174   2.624   5.068  -0.006 -2.9399 -0.1386  1.2238
10561TIP3    H253175   2.672   4.986   0.112  0.3197 -0.1813 -0.0133
10562TIP3   OH253176   2.525   1.546   2.970  0.5599  0.3424 -0.4225
10562TIP3    H153177   2.617   1.548   2.995  0.7293  1.3297 -1.0779
10562TIP3    H253178   2.509   1.456   2.943  0.5494 -0.6368  2.4783
10563TIP3   OH253179   2.553   4.740   1.608 -0.0266  0.5251 -0.1060
10563TIP3    H153180   2.589   4.785   1.685 -0.4932  1.0390 -0.1831
10563TIP3    H253181   2.471   4.702   1.638 -2.1621  3.8620 -1.2033
10564TIP3   OH253182   1.346   0.994   1.053 -0.3833  0.1558  0.0397
10564TIP3    H153183   1.402   1.068   1.032 -0.4335 -0.0807 -0.9601
10564TIP3    H253184   1.268   1.006   0.998 -1.0159  0.1097  0.8974
10565TIP3   OH253185   4.181   5.298   3.998 -0.1119  0.2292  0.4137
10565TIP3    H153186   4.257   5.349   4.025 -0.2659  0.9097 -0.3793
10565TIP3    H253187   4.209   5.207   4.005  0.4870  0.4460  0.9435
10566TIP3   OH253188   6.712   6.107  12.794  0.1564 -0.4186  0.4724
10566TIP3    H153189   6.718   6.200  12.773 -1.0508 -0.2856  0.6304
10566TIP3    H253190   6.777   6.065  12.738  1.9842  0.6919  1.6538
10567TIP3   OH253191   5.189   2.350  15.608 -0.1267  0.0546  0.1776
10567TIP3    H153192   5.261   2.403  15.643 -0.3224 -0.2170  1.0160
10567TIP3    H253193   5.156   2.302  15.684 -0.4089 -0.7391 -0.4333
10568TIP3   OH253194   5.246   5.889   0.355  0.4657  0.2129  0.2167
10568TIP3    H153195   5.309   5.915   0.423  0.0563  1.4665  0.1364
10568TIP3    H253196   5.264   5.947   0.282 -0.3337  0.1232 -0.0614
10569TIP3   OH253197   0.617   2.505   3.050 -0.3266  0.4642 -0.3559
10569TIP3    H153198   0.542   2.489   3.108 -0.5152  0.3643 -0.6248
10569TIP3    H253199   0.597   2.455   2.971 -0.3404  1.0545 -0.7302
10570TIP3   OH253200   6.129   2.710  12.619  0.4296  0.3316 -0.0217
10570TIP3    H153201   6.172   2.795  12.605  0.7560  0.6226  2.4029
10570TIP3    H253202   6.198   2.654  12.653 -0.1032 -0.5253 -0.3409
10571TIP3   OH253203   5.668   1.209  11.558  0.3608 -0.0502 -0.3544
10571TIP3    H153204   5.649   1.302  11.570  0.4777 -0.2630  1.8358
10571TIP3    H253205   5.588   1.173  11.519 -0.5673  0.5765  0.9250
10572TIP3   OH253206   6.364   2.751  15.291 -0.0473  0.5059  0.4301
10572TIP3    H153207   6.332   2.674  15.244  1.0298  0.7659 -0.7471
10572TIP3    H253208   6.298   2.818  15.274 -1.1482 -0.1890  1.7001
10573TIP3   OH253209   1.511   4.376   3.062  0.6454 -0.6622 -0.0716
10573TIP3    H153210   1.594   4.387   3.016  0.4599  0.5435 -0.1560
10573TIP3    H253211   1.476   4.465   3.069  0.5694 -0.8308  2.2439
10574TIP3   OH253212   2.900   6.270   0.112 -0.6625  0.1015  1.0862
10574TIP3    H153213   2.860   6.354   0.135  0.1780  0.7391  0.2537
10574TIP3    H253214   2.826   6.217   0.080 -0.8719  1.2895 -0.5146
10575TIP3   OH253215   1.341   4.154   4.922 -0.0936  0.1776 -0.2865
10575TIP3    H153216   1.255   4.186   4.948 -0.7098 -0.3327 -1.6416
10575TIP3    H253217   1.354   4.188   4.833  1.1225  0.2773 -0.0909
10576TIP3   OH253218   4.825   2.553   0.723 -0.4009 -0.2228 -0.3917
10576TIP3    H153219   4.906   2.509   0.747 -0.8214 -1.2199 -0.7700
10576TIP3    H253220   4.764   2.482   0.702 -1.3975  0.5004 -0.0318
10577TIP3   OH253221   3.572   4.503  11.537 -0.4468 -0.1612  0.0968
10577TIP3    H153222   3.517   4.513  11.460  0.4985 -0.7524 -0.6836
10577TIP3    H253223   3.591   4.410  11.541  1.9512  0.2208 -0.7354
10578TIP3   OH253224   3.478   5.448  15.137  0.1221 -0.1688 -0.1310
10578TIP3    H153225   3.544   5.517  15.130 -2.1645  2.0159 -1.4770
10578TIP3    H253226   3.460   5.443  15.231  0.7547  0.6022  0.0475
10579TIP3   OH253227   5.251   6.023  11.528 -0.4637  0.2541 -0.2870
10579TIP3    H153228   5.233   6.024  11.622  0.3533 -0.2822 -0.1147
10579TIP3    H253229   5.304   6.102  11.513  1.4521 -0.8764  0.1582
10580TIP3   OH253230   0.940   0.066   5.481  0.2508 -0.0978 -0.5311
10580TIP3    H153231   0.876   0.021   5.536  0.4933 -1.4324 -1.3016
10580TIP3    H253232   1.025   0.033   5.511  0.3594 -1.3244 -2.0663
10581TIP3   OH253233   3.204   4.518  14.681 -0.4692 -0.1503  0.1188
10581TIP3    H153234   3.153   4.470  14.615  0.0742  0.8813 -1.0848
10581TIP3    H253235   3.287   4.471  14.686  0.1830  0.7862 -1.2886
10582TIP3   OH253236   0.567   0.415  11.748 -0.1661 -0.2710  0.0676
10582TIP3    H153237   0.548   0.405  11.841 -2.6701 -0.5108 -0.4121
10582TIP3    H253238   0.562   0.327  11.713 -0.0337 -0.0801 -0.4351
10583TIP3   OH253239   3.144   4.564   5.673 -0.4429 -0.4122  0.2199
10583TIP3    H153240   3.141   4.573   5.578  3.0206 -1.2668 -0.1077
10583TIP3    H253241   3.100   4.642   5.706 -0.9729  0.3449 -2.0888
10584TIP3   OH253242   1.722   2.909   5.436  0.7810  0.5101 -0.9359
10584TIP3    H153243   1.653   2.960   5.479 -0.2301  0.2991 -2.2584
10584TIP3    H253244   1.755   2.851   5.504  0.1890  1.1462 -0.0851
10585TIP3   OH253245   0.152   2.408   5.904  0.0128 -0.3147  0.4445
10585TIP3    H153246   0.144   2.353   5.826 -1.3273 -1.6670  1.4868
10585TIP3    H253247   0.153   2.346   5.977 -0.1107  0.9864  1.5887
10586TIP3   OH253248   0.550   4.049   4.998 -0.6956 -0.1663 -0.9924
10586TIP3    H153249   0.529   3.967   4.952 -0.9638 -0.9561  0.4866
10586TIP3    H253250   0.591   4.021   5.080  1.5556  1.2459 -1.5575
10587TIP3   OH253251   5.536   4.432   5.956  0.6441  0.2483  0.1155
10587TIP3    H153252   5.538   4.489   6.032 -2.8350  0.3809  0.2745
10587TIP3    H253253   5.533   4.343   5.992  3.0570  0.0282 -0.0641
10588TIP3   OH253254   6.694   3.080  14.888  0.4548  0.2938  0.7130
10588TIP3    H153255   6.617   3.023  14.891 -0.2593  1.1563 -0.5017
10588TIP3    H253256   6.757   3.031  14.834 -0.6313  1.1392 -1.4439
10589TIP3   OH253257   5.898   4.240   1.138 -0.1524 -0.1829  0.1217
10589TIP3    H153258   5.821   4.201   1.179  0.0387 -1.4333 -0.6519
10589TIP3    H253259   5.972   4.200   1.184  0.0502 -0.9889 -0.8765
10590TIP3   OH253260   5.629   0.807  11.649 -0.7702 -0.0397  0.1199
10590TIP3    H153261   5.542   0.840  11.671 -0.2251  1.3244  0.3287
10590TIP3    H253262   5.633   0.720  11.689 -1.7834  0.1640  0.6854
10591TIP3   OH253263   6.413   3.792  11.093  0.1777  0.6431  0.4756
10591TIP3    H153264   6.325   3.790  11.130  0.1933  0.7622  0.5201
10591TIP3    H253265   6.407   3.740  11.013  0.1295  0.4238  0.6174
10592TIP3   OH253266   0.148   1.769   0.840 -0.2844  0.1102 -0.1561
10592TIP3    H153267   0.201   1.699   0.802  0.3552  0.5358 -0.0530
10592TIP3    H253268   0.058   1.743   0.821 -0.0130 -0.2260 -1.0184
10593TIP3   OH253269   6.113   6.767  12.211 -0.2508  0.0013 -0.2093
10593TIP3    H153270   6.146   6.837  12.155 -0.3412  1.3463  1.3753
10593TIP3    H253271   6.170   6.767  12.287 -0.9650 -0.8865  0.3566
10594TIP3   OH253272   6.033   2.961  11.267 -0.1776 -0.0130  0.1968
10594TIP3    H153273   6.070   2.952  11.355  1.6338  0.2393 -0.4971
10594TIP3    H253274   6.105   2.994  11.214 -1.1105 -0.5546 -1.4804
10595TIP3   OH253275   3.022   5.861   5.519 -0.0210 -0.2357  0.1956
10595TIP3    H153276   2.969   5.787   5.491 -1.0219  0.1555  0.9863
10595TIP3    H253277   2.962   5.917   5.568  1.3856 -0.3667  2.1985
10596TIP3   OH253278   5.665   5.037  14.569 -0.7401  0.0822 -0.8550
10596TIP3    H153279   5.615   5.044  14.650  0.4359  2.6694 -0.2389
10596TIP3    H253280   5.740   5.095  14.582  1.7601 -2.5713 -2.2473
10597TIP3   OH253281   5.205   3.309  11.175  1.0512  0.3668  0.3127
10597TIP3    H153282   5.243   3.396  11.188 -0.8307  1.7044 -2.2465
10597TIP3    H253283   5.129   3.324  11.118 -1.6665 -2.4582  2.8188
10598TIP3   OH253284   0.666   6.612  16.308 -0.4534 -0.1847  0.0404
10598TIP3    H153285   0.687   6.538  16.365 -2.8302 -2.3151 -1.6298
10598TIP3    H253286   0.573   6.630  16.324 -0.9836 -0.3008 -2.4479
10599TIP3   OH253287   5.362   4.708   4.755  0.2816  0.3638 -0.4777
10599TIP3    H153288   5.288   4.647   4.761  1.8775 -2.1153 -3.1005
10599TIP3    H253289   5.331   4.777   4.696  0.1684 -1.0554 -2.1822
10600TIP3   OH253290   0.205   6.167   4.693  0.1940  0.5022  0.0427
10600TIP3    H153291   0.186   6.245   4.745  1.6687  1.3502 -0.6343
10600TIP3    H253292   0.122   6.119   4.690 -0.8420  2.2182  0.1683
10601TIP3   OH253293   0.839   2.581  15.349 -0.5857 -0.4152  0.4278
10601TIP3    H153294   0.898   2.549  15.417  0.3429 -1.6056 -0.9072
10601TIP3    H253295   0.825   2.673  15.372  1.9263 -0.0327  0.7161
10602TIP3   OH253296   0.956   3.660  16.348  0.0866 -0.4529 -0.5010
10602TIP3    H153297   1.008   3.632  16.272 -1.7365 -0.6326 -1.7555
10602TIP3    H253298   0.893   3.589  16.360  0.9203 -0.8670  1.8219
10603TIP3   OH253299   5.044   0.501   1.148  0.0274 -0.1349  0.6920
10603TIP3    H153300   4.997   0.418   1.153 -0.6398  0.1633 -0.3569
10603TIP3    H253301   5.134   0.479   1.173  0.3288 -1.5754 -1.4533
10604TIP3   OH253302   1.393   4.372  14.688 -0.0796 -0.2221  0.4855
10604TIP3    H153303   1.467   4.341  14.636 -0.6988  1.4299 -1.5005
10604TIP3    H253304   1.328   4.302  14.681  0.6692 -0.9921  0.9487
10605TIP3   OH253305   0.583   4.360  12.919 -0.2724 -0.3538  0.0694
10605TIP3    H153306   0.580   4.392  12.829  0.6769  0.3142  0.2634
10605TIP3    H253307   0.669   4.320  12.927 -0.8643 -1.6561  0.2864
10606TIP3   OH253308   2.900   4.663   0.275 -0.4712 -0.3657 -0.7179
10606TIP3    H153309   2.850   4.740   0.248  0.5525  0.8147  0.5846
10606TIP3    H253310   2.963   4.649   0.204  0.2647  0.8967 -0.3592
10607TIP3   OH253311   2.321   4.876  14.605 -0.2387 -0.1997 -0.0729
10607TIP3    H153312   2.354   4.914  14.686 -0.0575 -1.2233  0.3470
10607TIP3    H253313   2.364   4.927  14.535  2.0450 -1.2806  0.4500
10608TIP3   OH253314   6.087   3.098   6.322 -0.1867  0.2146 -0.0049
10608TIP3    H153315   6.100   3.051   6.239 -0.5479 -1.0203  0.6009
10608TIP3    H253316   6.010   3.055   6.361 -1.7278  2.5558 -0.2474
10609TIP3   OH253317   0.565   2.207   2.629  0.0534 -0.3988 -0.4329
10609TIP3    H153318   0.551   2.260   2.550 -1.3652 -1.1915 -0.7583
10609TIP3    H253319   0.559   2.116   2.598 -1.4721 -0.7323  0.6995
10610TIP3   OH253320   5.275   3.724  15.038 -0.1371  0.1781 -0.1164
10610TIP3    H153321   5.368   3.731  15.017  0.1754 -1.6008  0.5543
10610TIP3    H253322   5.262   3.787  15.109  1.1151 -1.1846  1.4023
10611TIP3   OH253323   1.907   5.096   2.969 -0.6627 -0.0631 -0.2805
10611TIP3    H153324   1.967   5.099   3.044  0.6299 -0.9786 -1.2480
10611TIP3    H253325   1.851   5.021   2.987  0.3012 -0.9068 -0.6792
10612TIP3   OH253326   5.868   6.621   3.433 -0.0237  0.1888 -0.5319
10612TIP3    H153327   5.926   6.633   3.358 -0.4495 -0.2484 -0.9385
10612TIP3    H253328   5.870   6.705   3.479  1.1978  0.0799 -0.3388
10613TIP3   OH253329   4.998   6.670  14.837 -0.4686  0.2924  0.3407
10613TIP3    H153330   4.955   6.600  14.886 -0.5776 -1.7346 -2.4362
10613TIP3    H253331   4.947   6.678  14.756  2.2552  0.2244 -1.5129
10614TIP3   OH253332   6.439   6.182   0.643  0.0124  0.1181 -0.0795
10614TIP3    H153333   6.532   6.166   0.660 -0.1044 -1.4531 -0.7522
10614TIP3    H253334   6.411   6.108   0.588 -1.6425  0.5482  0.1208
10615TIP3   OH253335   1.722   3.648   2.832 -0.3122  0.6842 -0.7286
10615TIP3    H153336   1.662   3.645   2.758 -0.2452  1.4645 -0.8224
10615TIP3    H253337   1.723   3.558   2.866 -0.7374  0.4382 -1.3516
10616TIP3   OH253338   2.385   2.506   5.003  0.2702 -0.2268 -0.6700
10616TIP3    H153339   2.329   2.438   5.039 -1.6239  2.0758  1.0825
10616TIP3    H253340   2.466   2.500   5.053  0.0342 -1.0571 -0.3777
10617TIP3   OH253341   4.984   2.552  10.971  0.2266 -0.6242 -0.1427
10617TIP3    H153342   4.945   2.562  10.884  1.9445  0.0773 -0.8667
10617TIP3    H253343   5.078   2.548  10.955  0.6347  0.3600  1.7611
10618TIP3   OH253344   3.354   1.100   4.264 -0.0655 -0.2935 -0.3047
10618TIP3    H153345   3.391   1.158   4.330 -0.1001  0.1687 -0.6894
10618TIP3    H253346   3.410   1.022   4.266 -0.4063 -0.5310  0.6719
10619TIP3   OH253347   6.168   3.715  13.979  0.4347 -0.4468 -0.0639
10619TIP3    H153348   6.098   3.772  14.010  0.4388  0.9473 -2.3376
10619TIP3    H253349   6.172   3.732  13.885  2.8014 -1.6495 -0.2527
10620TIP3   OH253350   2.898   2.404  14.586  0.0943 -0.3812  0.1337
10620TIP3    H153351   2.912   2.428  14.494 -0.3848  0.9474  0.3830
10620TIP3    H253352   2.821   2.454  14.612  1.0479  0.3676  1.6575
10621TIP3   OH253353   2.530   4.527   2.601 -0.2030 -0.0054  0.4979
10621TIP3    H153354   2.447   4.556   2.637 -0.5557 -1.3006  0.7885
10621TIP3    H253355   2.520   4.432   2.592  0.5121  0.0578 -1.3520
10622TIP3   OH253356   2.794   6.178   1.746  0.4602 -0.2515  0.0033
10622TIP3    H153357   2.841   6.256   1.776  2.6117 -1.7267  0.7130
10622TIP3    H253358   2.848   6.142   1.676  0.1678 -1.7349  0.4915
10623TIP3   OH253359   5.914   2.866   4.187  0.5490  0.4584  0.1991
10623TIP3    H153360   5.931   2.874   4.281  1.2511  0.0882  0.1135
10623TIP3    H253361   5.956   2.943   4.148  0.6035  0.4064  0.1537
10624TIP3   OH253362   6.538   4.146   1.709  0.6557  0.3511  0.2879
10624TIP3    H153363   6.627   4.113   1.722  0.7735  0.2039 -0.7972
10624TIP3    H253364   6.487   4.105   1.780  0.9969 -1.4459 -0.4425
10625TIP3   OH253365   5.304   0.555  16.093  0.6218  0.1003  0.0797
10625TIP3    H153366   5.369   0.621  16.116  0.5749 -0.2210  1.1691
10625TIP3    H253367   5.312   0.545  15.998  2.1330  0.1016  0.1912
10626TIP3   OH253368   5.784   2.955  15.617 -0.0819  0.3956 -0.2580
10626TIP3    H153369   5.690   2.962  15.600 -0.2171 -0.9123 -0.1819
10626TIP3    H253370   5.796   2.863  15.643  0.6234  1.3446  3.3101
10627TIP3   OH253371   3.093   0.287  13.997  0.1331 -0.0554  0.5317
10627TIP3    H153372   3.101   0.380  14.014  0.1853  0.2291 -0.9540
10627TIP3    H253373   3.044   0.253  14.073 -0.1836  1.2205  0.9178
10628TIP3   OH253374   5.601   4.175  11.544 -0.4604 -0.3465  0.8528
10628TIP3    H153375   5.628   4.238  11.477  0.9154 -0.7911  0.9593
10628TIP3    H253376   5.511   4.151  11.519 -0.9267  1.4195  0.6629
10629TIP3   OH253377   0.025   3.990  13.983 -0.4218 -0.3750 -0.3804
10629TIP3    H153378  -0.035   4.050  13.939  0.1238  0.1690 -0.3949
10629TIP3    H253379   0.014   4.009  14.076  0.9933  0.9657 -0.4632
10630TIP3   OH253380   1.390   1.320  13.941 -0.1494  0.0784  0.6182
10630TIP3    H153381   1.483   1.298  13.948 -0.3513 -1.7040 -1.1053
10630TIP3    H253382   1.346   1.235  13.944 -1.3721  0.4940 -2.3813
10631TIP3   OH253383   0.161   0.635  11.320  0.3578  0.1963 -0.4700
10631TIP3    H153384   0.216   0.573  11.367 -0.0416  0.6969  0.6853
10631TIP3    H253385   0.099   0.668  11.385 -0.2977  0.8150 -1.3719
10632TIP3   OH253386   0.253   1.905   2.938  0.2022 -0.2431 -0.1172
10632TIP3    H153387   0.159   1.901   2.953 -0.1173  2.0782 -1.0400
10632TIP3    H253388   0.272   1.828   2.884 -1.1460 -0.8091  0.1791
10633TIP3   OH253389   6.678   1.772  11.579  0.6210  0.3614 -0.2310
10633TIP3    H153390   6.710   1.810  11.498  1.4012 -0.0130 -0.1012
10633TIP3    H253391   6.668   1.846  11.638 -0.3685  0.6968 -0.7872
10634TIP3   OH253392   4.963   6.326  13.050 -0.5391 -0.0481  0.5720
10634TIP3    H153393   4.979   6.382  12.974 -0.5226  1.7779  1.8808
10634TIP3    H253394   4.938   6.386  13.120  2.2450 -1.3204  2.8421
10635TIP3   OH253395   6.705   2.919  17.045 -0.1464  0.2957  0.4112
10635TIP3    H153396   6.671   2.830  17.053 -0.4871  0.4874  1.1296
10635TIP3    H253397   6.725   2.946  17.134  1.9994  0.1693  0.0249
10636TIP3   OH253398   1.533   5.953  14.569  0.5979  0.5988 -0.4936
10636TIP3    H153399   1.573   5.930  14.485  0.0846 -0.6921 -0.4154
10636TIP3    H253400   1.439   5.947  14.553  0.4611  1.8405 -0.2132
10637TIP3   OH253401   0.294   2.890   1.936  0.2700 -0.2341 -0.7085
10637TIP3    H153402   0.361   2.834   1.976  0.5020  1.3364  1.2530
10637TIP3    H253403   0.339   2.931   1.861  1.8452  1.3310  0.9739
10638TIP3   OH253404   2.245   2.551  13.836  0.0355 -0.0204  0.1298
10638TIP3    H153405   2.191   2.609  13.890  0.3696  1.7025 -1.2867
10638TIP3    H253406   2.205   2.554  13.749 -0.3482 -2.5511  0.1583
10639TIP3   OH253407   1.339   6.733   2.838  0.3460 -0.1947  0.1733
10639TIP3    H153408   1.331   6.789   2.761 -1.7509  0.7069  0.9508
10639TIP3    H253409   1.364   6.793   2.908  1.6764 -0.9086  0.3423
10640TIP3   OH253410   3.152   1.487   5.696 -0.3417  0.2576 -0.4398
10640TIP3    H153411   3.159   1.397   5.729  1.5076  0.7931  0.8028
10640TIP3    H253412   3.076   1.523   5.743  0.9610  0.3393  1.7569
10641TIP3   OH253413   5.137   3.464   2.371  0.5755 -0.5989  0.1012
10641TIP3    H153414   5.178   3.400   2.313  1.4975 -0.9201  1.0805
10641TIP3    H253415   5.044   3.438   2.372  0.9678 -2.1198  0.6964
10642TIP3   OH253416   0.325   3.769  13.297  0.0264 -0.2151 -0.2306
10642TIP3    H153417   0.395   3.705  13.308 -1.5973 -2.1067 -0.3869
10642TIP3    H253418   0.248   3.728  13.335 -1.1888  1.4779 -0.7368
10643TIP3   OH253419   2.623   1.326   4.655 -0.3135  0.0261 -0.1542
10643TIP3    H153420   2.686   1.398   4.644 -0.4433 -0.1252 -2.2513
10643TIP3    H253421   2.671   1.259   4.703  1.1041 -0.0009 -1.5352
10644TIP3   OH253422   3.029   5.863  15.828 -0.4697  0.0221 -0.2583
10644TIP3    H153423   2.955   5.919  15.851 -1.4653 -2.3492  3.0660
10644TIP3    H253424   3.085   5.865  15.906  1.1607 -1.0266 -1.3439
10645TIP3   OH253425   0.142   4.998  12.407 -0.5445 -0.0805  1.0086
10645TIP3    H153426   0.119   5.084  12.372  0.6846 -0.0168  0.3225
10645TIP3    H253427   0.066   4.943  12.386 -1.5012  0.8931  1.7831
10646TIP3   OH253428   1.795   2.363   2.747  0.0894 -0.0940 -0.0644
10646TIP3    H153429   1.843   2.446   2.738 -1.9557  1.0644 -1.0722
10646TIP3    H253430   1.853   2.298   2.706  1.1010  1.1028 -0.6364
10647TIP3   OH253431   4.517   0.327   6.627  0.1464  0.0268  0.0855
10647TIP3    H153432   4.509   0.379   6.547 -1.9082  1.2313  1.0024
10647TIP3    H253433   4.507   0.236   6.598  2.6476  0.1264 -1.3866
10648TIP3   OH253434   2.176   5.982   2.033 -0.2776  0.1331 -0.1254
10648TIP3    H153435   2.223   5.899   2.032 -1.5791 -0.6521 -1.2211
10648TIP3    H253436   2.202   6.025   1.951 -1.1821 -0.1757 -0.5939
10649TIP3   OH253437   6.340   0.932   2.535 -0.1568  0.3019 -0.5748
10649TIP3    H153438   6.392   1.012   2.529 -0.8824  0.7693 -0.8620
10649TIP3    H253439   6.349   0.890   2.450 -0.5512  0.5884 -0.7649
10650TIP3   OH253440   6.052   4.810  13.018  0.2552  0.2369  0.2268
10650TIP3    H153441   6.018   4.882  12.965 -1.4745 -0.2879  0.5568
10650TIP3    H253442   6.106   4.853  13.084 -1.1262  1.3051  0.7139
10651TIP3   OH253443   1.107   0.575  16.825 -0.5239  0.3384 -0.2836
10651TIP3    H153444   1.195   0.552  16.795  0.2886  1.6455  0.9725
10651TIP3    H253445   1.049   0.513  16.780  1.0675 -0.8355 -0.8002
10652TIP3   OH253446   0.009   6.594   1.599  0.1501  0.0867  0.1042
10652TIP3    H153447  -0.009   6.680   1.636 -0.9162  0.1896 -0.6089
10652TIP3    H253448   0.073   6.611   1.529  0.0166  0.2859  0.0304
10653TIP3   OH253449   0.405   0.630  12.092 -0.2276  0.3673 -0.6673
10653TIP3    H153450   0.501   0.633  12.095 -0.2669  1.9576 -0.1111
10653TIP3    H253451   0.385   0.538  12.071  1.4307  0.2576 -2.0462
10654TIP3   OH253452   6.406   1.715  11.999  1.1988  0.1579  0.7978
10654TIP3    H153453   6.428   1.802  11.965  0.5353  0.5398  1.3176
10654TIP3    H253454   6.311   1.718  12.011  1.3283 -0.2166  1.9897
10655TIP3   OH253455   4.067   3.342   2.731  0.3656 -0.5738 -0.3039
10655TIP3    H153456   3.976   3.352   2.759  0.0565 -2.0528 -0.6997
10655TIP3    H253457   4.093   3.429   2.702 -1.2441 -0.3316 -1.1154
10656TIP3   OH253458   0.627   2.078   0.560 -0.3028 -0.6347  0.1545
10656TIP3    H153459   0.617   1.984   0.544  1.8137 -1.1215  1.2632
10656TIP3    H253460   0.587   2.120   0.484 -0.9408 -2.4331 -0.5607
10657TIP3   OH253461   6.506   0.825  16.146 -0.0641  1.2505  0.0624
10657TIP3    H153462   6.559   0.768  16.090  0.8884 -0.8651  2.8935
10657TIP3    H253463   6.532   0.913  16.121  1.3641  0.3751 -1.8069
10658TIP3   OH253464   4.368   5.886  14.980  0.0484 -0.6888  0.3341
10658TIP3    H153465   4.437   5.948  15.006  1.3225 -2.5107  1.6245
10658TIP3    H253466   4.385   5.809  15.035 -2.2465 -1.6988 -0.2843
10659TIP3   OH253467   1.167   1.546  15.809  0.3217 -0.3441  0.0702
10659TIP3    H153468   1.147   1.626  15.858 -0.2782  0.3326 -1.2381
10659TIP3    H253469   1.083   1.500  15.802  0.8499 -1.6339  1.7043
10660TIP3   OH253470   3.279   0.652  16.332 -0.6201  0.1327  0.0829
10660TIP3    H153471   3.323   0.668  16.416  2.5278  2.2079 -1.7267
10660TIP3    H253472   3.224   0.729  16.319  1.4366  1.5219 -1.0677
10661TIP3   OH253473   0.496   6.779  15.350 -0.5070 -0.1324 -0.1743
10661TIP3    H153474   0.587   6.771  15.379 -0.9317 -1.5903  0.8878
10661TIP3    H253475   0.451   6.820  15.424 -0.6637  0.8770 -0.8207
10662TIP3   OH253476   5.466   2.706   2.008 -0.1679 -0.5856 -0.6435
10662TIP3    H153477   5.451   2.770   2.078 -0.0843 -0.9270 -0.3115
10662TIP3    H253478   5.559   2.716   1.986  0.4664 -2.2222  1.0540
10663TIP3   OH253479   0.626   4.545  16.019 -0.2829 -0.4930 -0.5734
10663TIP3    H153480   0.621   4.635  15.988  2.3406 -0.0965 -0.0665
10663TIP3    H253481   0.550   4.502  15.980 -0.5916  1.4833 -2.3156
10664TIP3   OH253482   6.075   0.752   5.736  0.1566 -0.1986  0.1739
10664TIP3    H153483   6.082   0.724   5.644  1.6358  0.0011  0.2039
10664TIP3    H253484   6.071   0.847   5.732  4.1082  0.1414  0.3903
10665TIP3   OH253485   0.523   3.030  10.544 -0.5716  0.3715  0.1770
10665TIP3    H153486   0.614   3.015  10.570 -0.3673  0.4338 -0.4926
10665TIP3    H253487   0.515   2.986  10.459 -0.3972  2.7093 -1.1130
10666TIP3   OH253488   3.199   1.715  13.756  0.3016 -0.2798 -0.5663
10666TIP3    H153489   3.137   1.692  13.687  0.8386 -0.9074 -0.8418
10666TIP3    H253490   3.212   1.809  13.745  1.2749 -0.5548 -2.0808
10667TIP3   OH253491   3.167   1.294  14.655 -0.0903  0.3253  0.2604
10667TIP3    H153492   3.087   1.327  14.613  0.1669  0.7100  0.0643
10667TIP3    H253493   3.175   1.204  14.623  1.4910  1.3658 -2.6489
10668TIP3   OH253494   2.686   5.289  15.792  0.2954 -0.3110 -0.0667
10668TIP3    H153495   2.679   5.281  15.697 -0.0670  0.1547 -0.0811
10668TIP3    H253496   2.598   5.269  15.824  0.7046 -1.7159  0.2675
10669TIP3   OH253497   1.031   3.170   3.605 -0.3663  0.2584 -0.4136
10669TIP3    H153498   0.949   3.181   3.557 -0.6547 -1.1857 -0.3088
10669TIP3    H253499   1.064   3.258   3.617  0.8829  0.7291 -5.2084
10670TIP3   OH253500   5.105   3.105  16.747  0.1650 -0.3448 -0.0344
10670TIP3    H153501   5.122   3.137  16.658 -0.4954 -2.7997 -1.1321
10670TIP3    H253502   5.191   3.107  16.790  0.2496  2.1922 -0.2125
10671TIP3   OH253503   4.349   2.030  11.250  0.7854 -0.0928  0.1352
10671TIP3    H153504   4.255   2.046  11.262  0.7138 -0.7106  0.4306
10671TIP3    H253505   4.369   2.070  11.165  0.1838 -0.2435 -0.0820
10672TIP3   OH253506   5.829   1.198  14.199  0.6011  0.4071  0.3348
10672TIP3    H153507   5.797   1.228  14.114 -0.1450 -0.0574  0.4367
10672TIP3    H253508   5.750   1.188  14.252  0.7596 -1.8212  0.2707
10673TIP3   OH253509   3.662   3.374   2.281  0.1886 -0.6422  0.2478
10673TIP3    H153510   3.626   3.460   2.302  0.7624 -0.1737 -0.6355
10673TIP3    H253511   3.753   3.379   2.311  0.6431 -0.4182 -1.1191
10674TIP3   OH253512   2.630   2.739  11.461 -0.2153 -0.0918  0.2855
10674TIP3    H153513   2.642   2.692  11.378 -0.7137  0.7433 -0.2751
10674TIP3    H253514   2.542   2.715  11.490 -0.9077  1.2972 -0.5576
10675TIP3   OH253515   1.172   5.520  14.848  0.1116 -0.5981  0.1520
10675TIP3    H153516   1.226   5.557  14.918 -0.5847 -1.7476  1.3494
10675TIP3    H253517   1.233   5.504  14.776  1.7216 -3.0879  1.9138
10676TIP3   OH253518   5.689   2.665   1.768  0.0473  0.1433 -0.4792
10676TIP3    H153519   5.753   2.684   1.699 -0.0973  0.1562 -0.6109
10676TIP3    H253520   5.614   2.722   1.747 -1.4081 -2.2418 -2.2963
10677TIP3   OH253521   3.175   6.617  16.958 -0.2125  0.3440  0.0821
10677TIP3    H153522   3.136   6.703  16.943  0.6352  0.9797  1.2550
10677TIP3    H253523   3.226   6.628  17.039 -1.2513 -1.6614  1.0870
10678TIP3   OH253524   3.707   2.064   5.079 -0.0406 -0.5607  0.1536
10678TIP3    H153525   3.624   2.111   5.073  0.7120  0.9385  0.9483
10678TIP3    H253526   3.704   2.000   5.007 -0.9958  0.8847 -1.1580
10679TIP3   OH253527   3.399   1.893   1.254  0.6131  0.0434  0.1801
10679TIP3    H153528   3.464   1.844   1.304  0.9547 -0.9285 -1.1587
10679TIP3    H253529   3.401   1.853   1.167 -0.7566  0.9425 -0.2943
10680TIP3   OH253530   1.841   5.525  13.721 -0.1194  0.0638 -0.2399
10680TIP3    H153531   1.838   5.587  13.793 -2.2006  0.1427 -0.3292
10680TIP3    H253532   1.805   5.573  13.646 -1.2981 -1.0652 -0.4353
10681TIP3   OH253533   4.504   3.943   2.018 -0.1249 -1.0137  0.2642
10681TIP3    H153534   4.462   3.874   2.070  1.1613 -1.5721  0.5832
10681TIP3    H253535   4.514   4.016   2.079  0.1488 -1.1857  0.4263
10682TIP3   OH253536   0.427   0.447   0.928  0.7388 -0.0690  0.2643
10682TIP3    H153537   0.472   0.531   0.942  0.6060 -0.2210  1.8703
10682TIP3    H253538   0.498   0.383   0.919  0.8389  0.1795 -0.8251
10683TIP3   OH253539   6.139   3.581   2.979 -0.3689 -0.1511 -0.2588
10683TIP3    H153540   6.047   3.563   3.000 -0.1093 -0.1941  0.9364
10683TIP3    H253541   6.162   3.516   2.912 -1.1026 -0.3847 -0.2889
10684TIP3   OH253542   6.226   0.136   6.496 -0.5897  0.6786 -0.4004
10684TIP3    H153543   6.292   0.111   6.431  0.1301 -0.5571  0.7594
10684TIP3    H253544   6.158   0.070   6.487  0.5990 -0.9401  1.6274
10685TIP3   OH253545   6.166   5.892  16.813 -0.0182 -0.4204 -0.5371
10685TIP3    H153546   6.246   5.842  16.801  0.6221  0.6669 -0.9164
10685TIP3    H253547   6.152   5.936  16.729 -1.1286 -0.7559 -0.5464
10686TIP3   OH253548   0.897   5.857   2.599  0.2841 -0.3719 -0.0641
10686TIP3    H153549   0.867   5.788   2.539  0.0342 -0.4342  0.1297
10686TIP3    H253550   0.885   5.938   2.551  1.8948 -0.5467 -0.8376
10687TIP3   OH253551   4.064   2.441   4.067  0.6207  0.0743 -0.0269
10687TIP3    H153552   4.078   2.411   4.157 -0.9199  0.2104  0.2870
10687TIP3    H253553   4.040   2.362   4.019  0.0314  0.2266  0.0106
10688TIP3   OH253554   0.827   4.412   4.554 -0.1789 -0.1089  0.0283
10688TIP3    H153555   0.786   4.354   4.490 -0.7246 -0.2373  0.4877
10688TIP3    H253556   0.826   4.499   4.512  0.6031 -0.4144 -0.6421
10689TIP3   OH253557   4.733   2.124   2.271 -0.6217 -0.0908 -0.3185
10689TIP3    H153558   4.653   2.176   2.282 -0.6511 -0.1673 -0.1592
10689TIP3    H253559   4.779   2.132   2.355 -0.8353 -0.6656 -0.1395
10690TIP3   OH253560   1.708   3.444  13.769 -0.3079  0.0829  0.1338
10690TIP3    H153561   1.725   3.408  13.856  0.1468  0.4527  0.2046
10690TIP3    H253562   1.790   3.430  13.721 -0.0492  1.1858  0.2251
10691TIP3   OH253563   3.429   2.827  15.456 -0.0604  0.7659 -0.5703
10691TIP3    H153564   3.479   2.908  15.461  1.3193 -0.0405 -0.8776
10691TIP3    H253565   3.494   2.759  15.438 -1.2447 -0.3514 -0.7959
10692TIP3   OH253566   4.861   4.920  12.492 -0.1364  0.2157 -0.0049
10692TIP3    H153567   4.791   4.859  12.514  1.9073 -2.0863  0.6383
10692TIP3    H253568   4.839   5.001  12.538 -1.7405 -0.8338  1.1629
10693TIP3   OH253569   1.627   6.272   2.247  0.1806 -0.4468  0.2648
10693TIP3    H153570   1.549   6.327   2.258  0.6849  0.5992 -1.2132
10693TIP3    H253571   1.630   6.220   2.328 -0.1759  1.8346  1.8404
10694TIP3   OH253572   0.552   6.217   0.258  0.0448  0.0971 -0.3176
10694TIP3    H153573   0.495   6.279   0.212  0.0589  0.5082  0.2096
10694TIP3    H253574   0.616   6.189   0.193  0.4837  1.1936 -0.3716
10695TIP3   OH253575   4.731   6.044  16.778 -0.0930  0.0312 -0.1129
10695TIP3    H153576   4.798   6.111  16.793  0.2401 -0.2656 -0.2744
10695TIP3    H253577   4.714   6.007  16.865 -0.9006  0.9053  0.1211
10696TIP3   OH253578   0.913   3.581  11.086  0.2210 -0.2756  0.2356
10696TIP3    H153579   0.955   3.661  11.118  1.8181 -0.1316 -1.9790
10696TIP3    H253580   0.980   3.513  11.095 -0.4398 -0.9462  0.2499
10697TIP3   OH253581   6.495   3.629  10.425  0.6137  0.7601  0.4410
10697TIP3    H153582   6.457   3.613  10.512  0.0666 -0.3317  0.0238
10697TIP3    H253583   6.420   3.645  10.369  0.9244  0.8705  0.0565
10698TIP3   OH253584   6.431   2.056   2.976 -0.5891 -0.1073 -0.4307
10698TIP3    H153585   6.437   2.006   3.057 -0.3980  0.3980 -0.1323
10698TIP3    H253586   6.521   2.060   2.943 -0.5338  0.4289 -0.2182
10699TIP3   OH253587   3.021   3.065  16.752 -0.1757  0.8161 -0.4869
10699TIP3    H153588   3.105   3.019  16.749 -0.6458 -0.0413 -1.1257
10699TIP3    H253589   2.975   3.026  16.826 -0.1396  1.0503 -0.3435
10700TIP3   OH253590   1.128   5.436   2.409  0.2442  0.0279  0.3609
10700TIP3    H153591   1.166   5.349   2.404 -0.3354 -0.3717  2.1750
10700TIP3    H253592   1.175   5.479   2.480 -0.4281  0.6936  0.4247
10701TIP3   OH253593   0.955   4.450  16.403  0.5377  0.4073 -0.5316
10701TIP3    H153594   0.879   4.422  16.352  0.9535 -0.1557 -0.8536
10701TIP3    H253595   0.981   4.372  16.452 -1.5696  1.5770  2.8338
10702TIP3   OH253596   4.906   1.417   2.542  0.4300 -0.1702  0.3324
10702TIP3    H153597   4.964   1.493   2.535 -1.5417  1.3313 -0.7013
10702TIP3    H253598   4.893   1.406   2.636 -1.3111  2.5698  0.5513
10703TIP3   OH253599   3.994   6.346  13.730 -0.9258  0.0372 -0.3881
10703TIP3    H153600   4.048   6.269  13.713 -1.6351 -0.4892 -0.2972
10703TIP3    H253601   4.046   6.419  13.698  0.8831 -0.1911  1.7891
10704TIP3   OH253602   2.703   1.085   4.176 -0.2960 -0.5261  0.1219
10704TIP3    H153603   2.731   1.014   4.233 -1.2217  0.2927  1.6774
10704TIP3    H253604   2.612   1.101   4.200 -0.4208  0.5017 -0.9188
10705TIP3   OH253605   2.669   3.433  14.521 -0.5673 -0.4599 -0.4671
10705TIP3    H153606   2.739   3.466  14.577  0.6029 -1.3857 -1.3109
10705TIP3    H253607   2.606   3.393  14.580 -0.5018  0.5947  0.3299
10706TIP3   OH253608   5.372   1.697   2.171 -0.4450  0.0991  0.6848
10706TIP3    H153609   5.360   1.752   2.093 -0.1863 -0.6790  0.0833
10706TIP3    H253610   5.329   1.614   2.149 -1.4953  0.2832  1.8673
10707TIP3   OH253611   6.219   0.331  14.159 -0.4688 -0.2744  0.4271
10707TIP3    H153612   6.241   0.376  14.078 -0.7225 -1.0167 -0.0655
10707TIP3    H253613   6.194   0.401  14.220  0.6615  0.3636  0.1742
10708TIP3   OH253614   3.414   5.919  16.684  0.5925 -0.0939  0.1953
10708TIP3    H153615   3.354   5.948  16.752 -2.3650 -1.4643 -1.6209
10708TIP3    H253616   3.463   5.847  16.725 -0.2756 -0.1229  1.2311
10709TIP3   OH253617   3.021   1.487  12.373  0.3959 -0.1399  0.1360
10709TIP3    H153618   3.074   1.547  12.320 -0.5537  1.4346  0.9085
10709TIP3    H253619   2.932   1.519  12.363 -0.0473 -1.0353  1.1036
10710TIP3   OH253620   3.694   3.622   1.896  0.1514  0.3117  0.3107
10710TIP3    H153621   3.624   3.566   1.929  0.0953  0.9487  1.2764
10710TIP3    H253622   3.714   3.682   1.967  2.1750 -0.3029  0.3323
10711TIP3   OH253623   2.052   1.900  12.003  0.0973 -0.1078  0.5554
10711TIP3    H153624   2.120   1.919  12.067  0.3147  1.2879 -0.0436
10711TIP3    H253625   2.023   1.987  11.973  1.1368 -0.6421 -2.3855
10712TIP3   OH253626   5.933   0.019   5.574  0.0521 -0.4542 -0.1624
10712TIP3    H153627   5.936   0.115   5.579 -0.5438 -0.4514  0.2967
10712TIP3    H253628   6.022  -0.007   5.551  0.0470  0.2512 -1.0160
10713TIP3   OH253629   5.336   2.903   0.065  0.3719  0.1143 -0.1650
10713TIP3    H153630   5.314   2.954   0.144  4.1349 -0.8377  1.7420
10713TIP3    H253631   5.276   2.828   0.068  0.0899  0.3507  1.5705
10714TIP3   OH253632   3.277   1.389   3.384 -0.0973 -0.5149 -0.2274
10714TIP3    H153633   3.362   1.433   3.375 -0.2032 -0.7026 -3.1116
10714TIP3    H253634   3.295   1.317   3.445  1.5040  0.1734  0.1815
10715TIP3   OH253635   0.883   6.653   1.238  0.0075  0.3101 -0.0375
10715TIP3    H153636   0.851   6.695   1.159 -0.1034 -1.4227 -0.9361
10715TIP3    H253637   0.814   6.592   1.264  0.7612 -0.3654  0.4295
10716TIP3   OH253638   5.885   0.397   3.537  0.2609  0.2976  0.3967
10716TIP3    H153639   5.903   0.472   3.481 -0.3179  0.4533  0.4142
10716TIP3    H253640   5.802   0.361   3.504  1.0506 -0.9775 -0.2971
10717TIP3   OH253641   2.557   4.878   2.364 -0.6872 -0.2401 -0.1071
10717TIP3    H153642   2.615   4.803   2.376 -1.4163 -0.4972  2.3827
10717TIP3    H253643   2.608   4.939   2.311  0.6179 -1.7299 -0.6657
10718TIP3   OH253644   4.188   6.362  15.438  0.4089  0.2469  0.3140
10718TIP3    H153645   4.234   6.284  15.469  0.9773 -0.1474 -1.4185
10718TIP3    H253646   4.248   6.434  15.455  0.8549 -0.0093 -0.1594
10719TIP3   OH253647   0.510   3.941  15.699  0.0524  0.0860  0.2746
10719TIP3    H153648   0.543   3.882  15.768  1.9042 -0.4953 -1.0263
10719TIP3    H253649   0.580   3.942  15.634 -1.2409  1.3858 -1.1526
10720TIP3   OH253650   5.160   3.144  14.248  0.3099 -0.1883 -0.0586
10720TIP3    H153651   5.155   3.167  14.155  0.3611  1.8238  0.3951
10720TIP3    H253652   5.229   3.200  14.283 -2.1875  1.9024  1.9140
10721TIP3   OH253653   4.941   0.231   1.120  0.2209 -0.0712  0.0482
10721TIP3    H153654   4.979   0.255   1.035 -0.9679  2.4247  0.1300
10721TIP3    H253655   4.847   0.244   1.108 -0.0992 -0.9990  1.3717
10722TIP3   OH253656   0.311   4.607   0.472  0.1840  0.3755  0.3512
10722TIP3    H153657   0.273   4.612   0.559  2.0872 -3.1412  1.6130
10722TIP3    H253658   0.256   4.544   0.425  2.3491 -2.3685  1.1812
10723TIP3   OH253659   1.505   5.758  10.808 -0.5969 -0.1930 -1.0927
10723TIP3    H153660   1.550   5.841  10.791 -0.9761 -0.0916 -1.6116
10723TIP3    H253661   1.453   5.743  10.729 -2.2456  0.1927 -0.1172
10724TIP3   OH253662   3.493   6.674  14.698 -0.4701  0.3263  0.1575
10724TIP3    H153663   3.419   6.702  14.644 -2.3387 -0.2151  2.2941
10724TIP3    H253664   3.483   6.722  14.780  0.3365 -1.3079  1.2691
10725TIP3   OH253665   0.366   0.932  11.380 -0.8524  0.2106  1.2409
10725TIP3    H153666   0.314   0.902  11.306  0.6712  0.5864 -0.0337
10725TIP3    H253667   0.446   0.880  11.377  1.3340  3.3470 -0.3220
10726TIP3   OH253668   0.265   4.252  16.624 -0.0608  0.3194  0.2462
10726TIP3    H153669   0.247   4.255  16.529 -0.5272  0.0150  0.3194
10726TIP3    H253670   0.315   4.332  16.641  2.5290 -0.9890 -0.7439
10727TIP3   OH253671   4.477   6.521   4.358  0.0155  0.4353  0.6701
10727TIP3    H153672   4.502   6.456   4.292  2.4819  0.8981  1.0644
10727TIP3    H253673   4.399   6.484   4.400 -0.1058 -1.0610 -0.7828
10728TIP3   OH253674   4.315   3.906  14.117  0.6396 -0.5251  0.7100
10728TIP3    H153675   4.297   3.838  14.182  0.2762  0.0080  1.1848
10728TIP3    H253676   4.263   3.881  14.041 -0.7584  0.0551  1.4435
10729TIP3   OH253677   4.758   3.535   3.947 -0.1024 -0.3005  0.4439
10729TIP3    H153678   4.840   3.529   3.898 -0.9425 -0.6523 -0.9878
10729TIP3    H253679   4.704   3.464   3.912 -0.2822 -1.4396  2.8610
10730TIP3   OH253680   0.943   4.706   4.677 -0.5442 -0.7294 -0.7732
10730TIP3    H153681   0.891   4.757   4.739 -1.4108 -1.0318 -1.2270
10730TIP3    H253682   0.879   4.673   4.614  0.2296 -0.9724 -1.4528
10731TIP3   OH253683   4.158   4.581   1.006  0.3712 -0.3474  0.1135
10731TIP3    H153684   4.155   4.530   1.087  1.0261  0.9013  0.9506
10731TIP3    H253685   4.073   4.625   1.001 -0.0377 -1.1568 -0.4008
10732TIP3   OH253686   4.234   1.438   3.110 -0.3177  0.8329 -0.0010
10732TIP3    H153687   4.181   1.442   3.030  0.8099  1.0680 -0.7671
10732TIP3    H253688   4.314   1.393   3.083  0.5206  1.8310  0.7337
10733TIP3   OH253689   0.642   0.968  10.654  0.4210 -0.2027 -0.4076
10733TIP3    H153690   0.683   0.933  10.733  0.1396 -1.6138 -0.8567
10733TIP3    H253691   0.696   0.935  10.582 -1.1858 -1.7376 -0.9837
10734TIP3   OH253692   1.074   3.172   4.480  0.6289 -0.1559 -0.5478
10734TIP3    H153693   0.982   3.154   4.500  0.7232  0.8364  0.9267
10734TIP3    H253694   1.106   3.091   4.440 -0.9627 -0.3912 -1.4338
10735TIP3   OH253695   5.465   6.826   1.686 -0.2909 -0.5903 -0.1934
10735TIP3    H153696   5.414   6.903   1.710  0.6104 -0.0472  0.0420
10735TIP3    H253697   5.400   6.762   1.657 -1.0794  0.1385 -0.0784
10736TIP3   OH253698   0.535   2.893  11.334  0.5033 -0.2843 -0.1770
10736TIP3    H153699   0.498   2.953  11.268 -0.1699 -1.7177 -1.1594
10736TIP3    H253700   0.591   2.834  11.283  2.6248  0.6051  1.0243
10737TIP3   OH253701   5.535   2.821  14.304  0.8598 -0.3645  0.2381
10737TIP3    H153702   5.551   2.741  14.355 -0.1715 -1.2202 -0.7106
10737TIP3    H253703   5.476   2.792  14.234 -2.2179  1.8630  1.6963
10738TIP3   OH253704   0.791   0.458   6.266 -0.7983 -0.4684 -0.0398
10738TIP3    H153705   0.795   0.404   6.344 -0.4032 -0.1619  0.1545
10738TIP3    H253706   0.820   0.544   6.295 -0.7347 -0.3317 -0.5044
10739TIP3   OH253707   6.130   1.970  10.512  0.3830  0.3441  0.5431
10739TIP3    H153708   6.056   1.920  10.478  0.7960 -0.2713  0.5364
10739TIP3    H253709   6.196   1.904  10.534  1.6809  0.9506 -1.2428
10740TIP3   OH253710   2.138   3.511  13.915 -0.1192  0.0737 -0.2271
10740TIP3    H153711   2.126   3.451  13.988  0.7529  0.9933  0.7041
10740TIP3    H253712   2.223   3.488  13.878 -0.3691 -0.1123 -0.6986
10741TIP3   OH253713   4.973   1.707   5.347  0.1197  0.6743 -0.4529
10741TIP3    H153714   4.966   1.758   5.427 -1.8356  0.3323 -0.3663
10741TIP3    H253715   4.885   1.706   5.310  0.3336 -1.6163 -1.0762
10742TIP3   OH253716   3.271   2.023  11.815 -0.0508 -0.0152  0.9571
10742TIP3    H153717   3.222   2.023  11.733 -0.4493  0.3266  1.1849
10742TIP3    H253718   3.361   2.003  11.790 -0.4467 -1.5002  0.6275
10743TIP3   OH253719   0.355   5.630   0.021  0.0970  0.2216 -0.3322
10743TIP3    H153720   0.299   5.693   0.066  0.9683 -0.3035  1.5756
10743TIP3    H253721   0.386   5.678  -0.056 -0.6524  1.5092  0.1228
10744TIP3   OH253722   0.604   3.479   2.131  0.1701 -0.1382  0.8598
10744TIP3    H153723   0.535   3.470   2.198 -1.1756  2.8403  0.0478
10744TIP3    H253724   0.556   3.493   2.050  1.7932 -0.6322 -0.2281
10745TIP3   OH253725   0.677   4.128  14.628  0.1681 -0.0901  0.3926
10745TIP3    H153726   0.743   4.116  14.560 -0.5595 -1.4494 -0.1051
10745TIP3    H253727   0.685   4.221  14.652  1.2945  0.1139 -0.6362
10746TIP3   OH253728   4.653   6.450  16.548 -0.2096 -0.5680  0.5350
10746TIP3    H153729   4.716   6.505  16.594 -1.1535 -1.0490  2.5089
10746TIP3    H253730   4.648   6.488  16.460  0.4225  1.4594  1.3197
10747TIP3   OH253731   2.189   0.417   5.080 -0.1549 -0.3452  0.0392
10747TIP3    H153732   2.274   0.460   5.088 -0.4289  0.3808 -0.7730
10747TIP3    H253733   2.203   0.347   5.016 -0.2933  0.1026 -0.4785
10748TIP3   OH253734   2.852   4.689  10.951 -0.6290 -0.5906  0.6291
10748TIP3    H153735   2.797   4.614  10.926  1.0438 -1.6953  0.1128
10748TIP3    H253736   2.911   4.655  11.018 -0.6775  0.6207  1.3125
10749TIP3   OH253737   5.279   1.278  16.708  0.1318 -0.2380  0.3840
10749TIP3    H153738   5.304   1.358  16.754 -0.0898 -0.1017  0.2697
10749TIP3    H253739   5.349   1.265  16.643  1.2471 -1.2603  1.7403
10750TIP3   OH253740   2.968   4.553   5.142  0.4438  1.1035 -0.0591
10750TIP3    H153741   2.914   4.626   5.173 -1.9810 -0.0504 -1.3056
10750TIP3    H253742   2.917   4.475   5.162  1.7503 -0.0704 -1.1341
10751TIP3   OH253743   2.924   2.389  14.985 -0.1040  0.4853 -0.3488
10751TIP3    H153744   2.830   2.388  15.005 -0.0940 -2.0003 -0.1376
10751TIP3    H253745   2.934   2.326  14.914  1.5864 -0.4886  0.6835
10752TIP3   OH253746   4.800   5.248  10.704 -0.1837 -0.1378 -0.2189
10752TIP3    H153747   4.792   5.256  10.609 -1.7647  1.5281 -0.0142
10752TIP3    H253748   4.710   5.255  10.736  0.3696 -0.1462  1.4211
10753TIP3   OH253749   5.896   1.241  14.952 -0.0048 -0.7498  0.4126
10753TIP3    H153750   5.825   1.241  14.889  0.1800  1.7887  0.1093
10753TIP3    H253751   5.857   1.210  15.033 -1.3734  0.1746  0.1347
10754TIP3   OH253752   4.208   4.254  11.435 -0.8957 -0.1172 -0.2505
10754TIP3    H153753   4.226   4.177  11.489  0.9137  0.5132  0.1187
10754TIP3    H253754   4.154   4.309  11.491  1.1846  0.6553  1.1326
10755TIP3   OH253755   5.162   5.827   1.738  0.0772  0.4984 -0.2080
10755TIP3    H153756   5.093   5.886   1.708 -2.3741 -2.9759 -2.0379
10755TIP3    H253757   5.126   5.785   1.816 -0.5805 -2.2372 -1.8621
10756TIP3   OH253758   1.275   1.771   2.793 -0.3599 -0.1799  0.4674
10756TIP3    H153759   1.247   1.683   2.816  0.9975 -0.6971  0.2773
10756TIP3    H253760   1.198   1.826   2.805 -1.3798 -1.4828  0.0625
10757TIP3   OH253761   5.925   6.368   0.967  0.1156  0.1378 -0.3828
10757TIP3    H153762   5.995   6.416   1.010 -2.1922  1.5557  2.1394
10757TIP3    H253763   5.961   6.281   0.952  2.5585  0.9554  0.3220
10758TIP3   OH253764   3.539   1.363  11.846 -0.2730  0.3889  0.8699
10758TIP3    H153765   3.506   1.358  11.757  0.1252 -1.7563  0.7893
10758TIP3    H253766   3.626   1.402  11.837 -0.6841  1.2463  0.4837
10759TIP3   OH253767   0.691   2.457   2.364 -0.6477 -0.6342  0.1111
10759TIP3    H153768   0.601   2.424   2.368 -1.7633  2.1107 -0.4439
10759TIP3    H253769   0.705   2.478   2.272  0.1405  0.0712  0.3813
10760TIP3   OH253770   1.782   2.074   1.958  0.1856 -0.5164  0.0305
10760TIP3    H153771   1.850   2.125   1.913  0.8644 -1.2808  0.1660
10760TIP3    H253772   1.716   2.057   1.890 -0.1629  0.7113  0.0374
10761TIP3   OH253773   4.276   4.172   1.181 -0.2530 -0.1148 -0.0255
10761TIP3    H153774   4.355   4.130   1.149  0.4337  1.9943 -1.3134
10761TIP3    H253775   4.214   4.167   1.108 -0.5310  0.1811  0.1841
10762TIP3   OH253776   6.204   1.142   3.832 -0.6332 -0.0411  0.5194
10762TIP3    H153777   6.144   1.147   3.758 -0.4548 -0.8816  0.3049
10762TIP3    H253778   6.262   1.218   3.822  0.4146 -0.9844 -1.1291
10763TIP3   OH253779   1.557   4.936   4.731  0.0132 -0.4033 -0.2251
10763TIP3    H153780   1.479   4.936   4.787 -0.2893  3.2674 -0.4630
10763TIP3    H253781   1.524   4.918   4.643 -0.6621  1.4043 -0.3691
10764TIP3   OH253782   2.690   5.747  14.380 -0.0067 -0.0237 -0.0938
10764TIP3    H153783   2.717   5.834  14.350  1.8226 -0.6400 -0.3682
10764TIP3    H253784   2.772   5.698  14.387 -1.1571 -2.4648 -2.2452
10765TIP3   OH253785   0.704   2.898   3.937  0.1310 -0.2435  0.2690
10765TIP3    H153786   0.781   2.954   3.931 -0.3710  0.5438  0.8835
10765TIP3    H253787   0.676   2.905   4.028 -0.6317 -0.5635  0.0703
10766TIP3   OH253788   4.022   6.350  12.055 -0.1589  0.0481 -0.0240
10766TIP3    H153789   4.109   6.343  12.094  0.2745  0.0755 -0.9457
10766TIP3    H253790   4.032   6.310  11.968 -0.9665  0.3985 -0.2865
10767TIP3   OH253791   4.342   3.634  16.354 -0.1809 -0.6472 -0.1109
10767TIP3    H153792   4.401   3.560  16.338 -1.2649 -1.2978 -1.3492
10767TIP3    H253793   4.400   3.707  16.375  0.9198 -1.8419  1.1863
10768TIP3   OH253794   2.895   0.210   3.491 -0.0804  0.2260  0.0609
10768TIP3    H153795   2.878   0.299   3.521 -2.2561  0.5907 -1.9520
10768TIP3    H253796   2.914   0.219   3.398  1.5566 -1.2955  0.1821
10769TIP3   OH253797   4.746   1.355   2.811  0.1869 -0.5933 -0.0049
10769TIP3    H153798   4.725   1.283   2.752 -2.4018 -0.6770  0.8933
10769TIP3    H253799   4.827   1.329   2.853 -0.6109 -2.9581  0.2090
10770TIP3   OH253800   3.119   1.297   3.195 -0.2744  0.3121 -0.1209
10770TIP3    H153801   3.030   1.295   3.231 -0.6197 -0.7897 -0.9974
10770TIP3    H253802   3.175   1.319   3.270 -1.1901  0.1282  0.6283
10771TIP3   OH253803   6.583   4.747   0.591  0.0456  0.1455  0.7738
10771TIP3    H153804   6.558   4.665   0.633  0.8500 -0.4338  0.1284
10771TIP3    H253805   6.659   4.726   0.538 -0.3798  1.0830 -0.2451
10772TIP3   OH253806   1.342   3.400  14.279  0.4743 -0.2234 -0.7338
10772TIP3    H153807   1.380   3.487  14.276 -1.3427  0.6289 -0.5927
10772TIP3    H253808   1.416   3.342  14.296  1.6628  1.3254 -0.3751
10773TIP3   OH253809   4.360   2.738  16.455  0.3735 -0.1052 -0.6579
10773TIP3    H153810   4.352   2.805  16.522 -0.2334 -0.7410 -0.0728
10773TIP3    H253811   4.451   2.708  16.460  0.3954  0.0217 -0.2808
10774TIP3   OH253812   1.166   5.812   6.776  0.3302 -0.3817  0.1644
10774TIP3    H153813   1.191   5.887   6.830 -0.6524  0.1466 -0.0893
10774TIP3    H253814   1.211   5.738   6.816  2.5581  0.5531 -0.4754
10775TIP3   OH253815   5.716   0.859  13.887 -0.6332 -0.2368 -0.0993
10775TIP3    H153816   5.675   0.783  13.928  0.0400 -1.2478 -1.2335
10775TIP3    H253817   5.776   0.893  13.954 -1.3886 -0.3244  0.6360
10776TIP3   OH253818   4.360   5.559  12.237  0.1990  0.1028  0.6554
10776TIP3    H153819   4.370   5.464  12.238 -0.9381 -0.0199  0.8650
10776TIP3    H253820   4.281   5.576  12.287 -0.1755  1.0866 -0.2284
10777TIP3   OH253821   0.712   1.482   3.461  1.1095  0.0250  0.4192
10777TIP3    H153822   0.716   1.477   3.366 -0.2086 -0.1158  0.3571
10777TIP3    H253823   0.715   1.390   3.490  1.0738  0.0442  0.4849
10778TIP3   OH253824   5.896   5.587  13.214 -0.8975 -0.3444  0.1633
10778TIP3    H153825   5.978   5.580  13.166 -1.4754  0.6426 -1.0238
10778TIP3    H253826   5.914   5.547  13.299  0.3937 -1.3701 -0.5654
10779TIP3   OH253827   6.746   2.178  11.217 -0.3615 -0.2513 -0.1026
10779TIP3    H153828   6.732   2.122  11.140 -0.4946  0.1463 -0.3715
10779TIP3    H253829   6.823   2.141  11.260  1.6446  1.3372 -2.1279
10780TIP3   OH253830   6.703   1.044  16.913  0.0781 -0.5679  0.0175
10780TIP3    H153831   6.742   1.000  16.837  0.1907 -0.8735  0.2469
10780TIP3    H253832   6.779   1.076  16.962  0.0438 -1.0592  0.4042
10781TIP3   OH253833   2.362   5.260  16.348  0.2156 -0.0726 -0.0043
10781TIP3    H153834   2.452   5.289  16.358 -0.0615  0.5105  0.9301
10781TIP3    H253835   2.361   5.171  16.385  0.3844 -0.0469  0.0626
10782TIP3   OH253836   4.905   3.592   2.176  0.4937  0.1379  0.3739
10782TIP3    H153837   4.943   3.505   2.163  0.1916  0.0206  0.2663
10782TIP3    H253838   4.811   3.580   2.164  0.6690  1.0369 -2.8255
10783TIP3   OH253839   4.817   4.633   1.978 -0.6010 -0.0961 -0.2040
10783TIP3    H153840   4.779   4.719   1.994 -1.4383 -0.7500  1.5570
10783TIP3    H253841   4.909   4.643   2.002 -0.3179  0.6871 -1.5233
10784TIP3   OH253842   2.420   2.392   0.599  0.0759  0.4161 -0.2525
10784TIP3    H153843   2.471   2.375   0.521 -0.2306  0.6356 -0.5046
10784TIP3    H253844   2.485   2.410   0.667  0.3275  1.3564 -0.7187
10785TIP3   OH253845   3.510   5.175   0.450  0.0359 -0.0832  0.5689
10785TIP3    H153846   3.538   5.255   0.495  0.5921  0.0046  0.0890
10785TIP3    H253847   3.443   5.138   0.506 -1.2189  1.4345  0.1520
10786TIP3   OH253848   0.860   4.906   4.879  0.7881  0.3707  0.1323
10786TIP3    H153849   0.771   4.925   4.908  0.6762  0.1834 -0.0840
10786TIP3    H253850   0.914   4.915   4.958  0.1464 -2.5964  1.0332
10787TIP3   OH253851   1.925   6.243  12.007  0.0911  0.5844 -0.4067
10787TIP3    H153852   1.859   6.291  11.957 -0.4954  0.1366 -0.0736
10787TIP3    H253853   1.932   6.291  12.090 -0.0158  0.4708 -0.3324
10788TIP3   OH253854   4.279   2.284  12.488 -0.6838  0.5863 -0.1728
10788TIP3    H153855   4.346   2.348  12.512  0.9382 -0.5836 -1.3260
10788TIP3    H253856   4.224   2.328  12.424  0.4347  0.8570 -0.9793
10789TIP3   OH253857   5.167   4.387   2.023  0.1757  0.6312  0.0612
10789TIP3    H153858   5.258   4.413   2.012  0.3392 -0.6126 -2.2216
10789TIP3    H253859   5.170   4.291   2.027 -0.9302  0.6310  1.3228
10790TIP3   OH253860   2.147   5.219   3.526  0.4648  0.6323  0.2719
10790TIP3    H153861   2.217   5.285   3.531 -0.2664  1.3961  0.5201
10790TIP3    H253862   2.066   5.270   3.522 -0.2867 -0.2094  2.7899
10791TIP3   OH253863   0.936   2.686  13.822 -0.0552 -0.6640 -0.4812
10791TIP3    H153864   0.880   2.761  13.843 -1.9551 -1.6680 -1.7308
10791TIP3    H253865   0.971   2.705  13.735  0.5517 -0.6212 -0.2315
10792TIP3   OH253866   0.165   0.604   3.649  0.0617 -0.0922  0.3022
10792TIP3    H153867   0.095   0.663   3.676 -0.7705 -1.1652  0.5888
10792TIP3    H253868   0.183   0.551   3.727  0.3713 -0.6189 -0.1181
10793TIP3   OH253869   3.220   0.461   2.558 -0.2063  0.3620  0.3266
10793TIP3    H153870   3.266   0.532   2.605 -1.8008  1.8873 -0.2985
10793TIP3    H253871   3.140   0.448   2.608 -0.9531  0.5575 -0.7925
10794TIP3   OH253872   0.559   4.478  14.337 -0.1973  0.2444 -0.3486
10794TIP3    H153873   0.641   4.500  14.381 -0.7163 -0.3921  0.9888
10794TIP3    H253874   0.549   4.546  14.270  1.4167  0.3185 -0.5451
10795TIP3   OH253875   0.326   4.514   2.941  0.2792 -0.1700  0.4888
10795TIP3    H153876   0.312   4.605   2.914 -0.6589 -0.4920 -0.1663
10795TIP3    H253877   0.363   4.520   3.028  1.3391  0.8695 -0.0124
10796TIP3   OH253878   2.369   0.648  10.765 -0.2555  0.2085  0.2699
10796TIP3    H153879   2.409   0.678  10.847  1.0044  0.7127 -0.4922
10796TIP3    H253880   2.385   0.554  10.763  0.4153  0.3164  0.2499
10797TIP3   OH253881   3.718   3.678  15.274 -0.4730 -0.9634 -0.1357
10797TIP3    H153882   3.712   3.589  15.240  0.3035 -2.1520  2.6256
10797TIP3    H253883   3.791   3.676  15.336  0.8776  2.1279 -1.3824
10798TIP3   OH253884   5.759   2.038   3.524  0.0572  0.5817 -0.0746
10798TIP3    H153885   5.831   2.094   3.554  0.1980 -0.1046  0.9271
10798TIP3    H253886   5.758   2.049   3.429  2.2640 -0.2960 -0.2433
10799TIP3   OH253887   3.141   3.738  11.937  0.2324  0.2167  0.1138
10799TIP3    H153888   3.115   3.684  12.012  1.8956 -0.0555  0.5290
10799TIP3    H253889   3.075   3.719  11.870 -0.8968 -0.0559  1.2597
10800TIP3   OH253890   2.210   4.117   6.061  0.0662  0.1849  0.4628
10800TIP3    H153891   2.204   4.076   6.147 -0.4696  0.7379  0.6985
10800TIP3    H253892   2.267   4.193   6.075  1.0573 -0.4595  0.0303
10801TIP3   OH253893   3.290   6.342  11.629  0.4240 -0.2960  0.0693
10801TIP3    H153894   3.216   6.308  11.679  0.6003 -3.2154 -1.4407
10801TIP3    H253895   3.366   6.292  11.661  1.0664  0.0064 -0.9281
10802TIP3   OH253896   2.818   1.782   4.824  1.1441  0.5318  0.4412
10802TIP3    H153897   2.901   1.755   4.862 -0.5115 -1.8457  2.7722
10802TIP3    H253898   2.753   1.765   4.893 -1.3758  1.5945 -1.4932
10803TIP3   OH253899   6.327   0.705  13.369  0.2861 -0.1465  0.8249
10803TIP3    H153900   6.403   0.730  13.421  0.2578 -1.7563  1.7217
10803TIP3    H253901   6.257   0.695  13.433  0.0555 -1.4132  0.3966
10804TIP3   OH253902   2.356   4.775  16.175  0.4986 -0.3696 -0.8664
10804TIP3    H153903   2.411   4.849  16.203  0.1009 -0.2661 -0.3366
10804TIP3    H253904   2.283   4.775  16.237  0.1281 -0.7782 -1.2963
10805TIP3   OH253905   3.502   6.786   2.335  0.1988 -0.5022 -0.3724
10805TIP3    H153906   3.523   6.877   2.312  0.6227 -0.5008 -0.0022
10805TIP3    H253907   3.438   6.793   2.406  1.6878 -0.4505  1.0249
10806TIP3   OH253908   6.220   3.676   1.221 -0.4078  0.2106  0.0583
10806TIP3    H153909   6.255   3.762   1.244 -2.0905  1.0238 -0.2329
10806TIP3    H253910   6.133   3.675   1.260  0.4913 -2.4453  2.3430
10807TIP3   OH253911   4.210   6.053   6.274  0.0200 -0.0524  0.1817
10807TIP3    H153912   4.165   5.978   6.233 -4.1346  0.8275  2.5050
10807TIP3    H253913   4.182   6.129   6.222  2.3173  0.2358 -0.7516
10808TIP3   OH253914   3.711   0.048   5.744 -0.3193  0.7388  0.2455
10808TIP3    H153915   3.627   0.089   5.766 -0.7815  0.8754 -1.6077
10808TIP3    H253916   3.695  -0.045   5.755  0.0623  0.8694  2.2868
10809TIP3   OH253917   3.722   2.263  14.531  0.2258 -0.0538  0.4464
10809TIP3    H153918   3.714   2.257  14.627 -0.0837 -1.5040  0.3527
10809TIP3    H253919   3.767   2.346  14.516 -0.9843  0.9026  1.7802
10810TIP3   OH253920   1.690   5.770   6.312 -0.2787  0.1117 -0.3095
10810TIP3    H153921   1.635   5.826   6.367 -0.9086 -0.4364 -0.3726
10810TIP3    H253922   1.778   5.806   6.322 -0.5539  0.6472  0.2478
10811TIP3   OH253923   2.424   5.466  15.112 -0.1182  0.5674  0.2725
10811TIP3    H153924   2.342   5.473  15.161 -0.0134  2.3468  0.2273
10811TIP3    H253925   2.487   5.430  15.175 -1.0578 -1.5431  0.0970
10812TIP3   OH253926   2.029   4.586  13.178 -0.4877  0.4063  0.2421
10812TIP3    H153927   2.020   4.653  13.110 -1.7122 -0.3618 -0.3863
10812TIP3    H253928   2.069   4.511  13.134  1.6933  0.9570  1.1445
10813TIP3   OH253929   5.267   3.313  10.748 -0.0366 -0.8582 -0.1533
10813TIP3    H153930   5.191   3.318  10.806 -0.1489  1.4831 -0.4051
10813TIP3    H253931   5.234   3.342  10.663  1.4346  1.9815  0.1322
10814TIP3   OH253932   3.912   5.781  12.093 -0.2632  0.3740  0.2080
10814TIP3    H153933   3.868   5.760  12.175  1.3447  1.0522  1.3083
10814TIP3    H253934   3.979   5.845  12.117  0.8044 -0.0229 -1.4901
10815TIP3   OH253935   2.138   6.787  12.468 -0.1859 -0.3617  0.2826
10815TIP3    H153936   2.186   6.799  12.386  0.9385  0.1415  0.9837
10815TIP3    H253937   2.190   6.834  12.533 -1.0111 -0.8174  1.3005
10816TIP3   OH253938   5.698   5.097   2.501 -0.2785  0.0314  0.2995
10816TIP3    H153939   5.742   5.013   2.512  1.7100  0.8922 -0.6513
10816TIP3    H253940   5.727   5.149   2.576 -0.3668  0.3351  0.1246
10817TIP3   OH253941   3.442   1.283   6.040  0.6113 -0.2413  0.7143
10817TIP3    H153942   3.407   1.222   6.105 -0.5770  0.5045  0.8000
10817TIP3    H253943   3.401   1.367   6.061 -0.8015 -0.2349 -1.7115
10818TIP3   OH253944   3.474   0.721  10.354 -0.6710 -0.1120 -0.0888
10818TIP3    H153945   3.446   0.812  10.341 -1.0917 -0.0679  0.9890
10818TIP3    H253946   3.567   0.728  10.373 -1.0797  0.3470  2.0750
10819TIP3   OH253947   1.426   0.467  12.530 -1.0282  0.2323  0.0461
10819TIP3    H153948   1.481   0.473  12.608 -1.7529  1.3347  0.4921
10819TIP3    H253949   1.410   0.373  12.519 -1.8720  0.1206  1.9254
10820TIP3   OH253950   4.554   4.570   3.324 -0.0853 -0.1018  0.5391
10820TIP3    H153951   4.628   4.561   3.384  1.2977  1.4409 -0.8521
10820TIP3    H253952   4.498   4.636   3.364  0.9870  1.1479  0.0242
10821TIP3   OH253953   1.482   0.453  13.117  0.1060 -0.3922 -0.5902
10821TIP3    H153954   1.422   0.447  13.042  0.9125 -0.3920 -1.2449
10821TIP3    H253955   1.454   0.533  13.163 -0.0676 -0.0985 -1.1885
10822TIP3   OH253956   3.925   2.526  16.750 -0.2843 -0.2709  0.7905
10822TIP3    H153957   4.017   2.523  16.721  0.3081 -1.5144  2.6563
10822TIP3    H253958   3.917   2.453  16.811 -2.0958  0.8137  1.9133
10823TIP3   OH253959   0.945   3.013  14.883  0.6552 -0.3205 -0.0018
10823TIP3    H153960   0.878   3.072  14.917  2.8519  2.4276 -0.1605
10823TIP3    H253961   0.896   2.952  14.827 -1.8905  0.4919  1.1693
10824TIP3   OH253962   1.490   2.136   0.538  0.5692 -0.2555  0.1311
10824TIP3    H153963   1.537   2.209   0.578  0.6000 -1.0072  1.5455
10824TIP3    H253964   1.529   2.058   0.578 -0.0082 -1.0195 -0.7501
10825TIP3   OH253965   1.044   1.486   2.052  0.4161 -0.1378 -0.1347
10825TIP3    H153966   0.963   1.522   2.016  0.3146 -1.7886 -1.6799
10825TIP3    H253967   1.069   1.547   2.121 -1.7091  0.8295 -0.1635
10826TIP3   OH253968   5.638   3.379  13.222 -0.2359  0.6645  0.4465
10826TIP3    H153969   5.694   3.305  13.242 -0.0875  0.5996 -0.1713
10826TIP3    H253970   5.698   3.451  13.206 -0.2269  0.3109 -1.4004
10827TIP3   OH253971   1.522   2.829   0.074 -0.1041 -0.1753 -0.1540
10827TIP3    H153972   1.504   2.916   0.039 -0.3869  0.3923  1.3258
10827TIP3    H253973   1.575   2.845   0.152  2.5645 -1.5230 -1.5411
10828TIP3   OH253974   2.646   6.051   4.324  0.4865  0.5354  0.9847
10828TIP3    H153975   2.633   5.956   4.333  3.4789  0.0607  1.0528
10828TIP3    H253976   2.617   6.070   4.234  1.2109 -0.7376  0.4577
10829TIP3   OH253977   2.335   3.261   0.044 -0.0691  0.4113 -0.2272
10829TIP3    H153978   2.338   3.169   0.069  1.4689  0.6318  0.5199
10829TIP3    H253979   2.359   3.263  -0.048 -0.3722  0.0449 -0.3129
10830TIP3   OH253980   6.729   1.863   0.018  0.0934 -0.0634  0.1285
10830TIP3    H153981   6.719   1.814  -0.064  1.1958  0.9128 -0.6148
10830TIP3    H253982   6.684   1.946   0.002 -0.5311 -0.2542  0.8700
10831TIP3   OH253983   6.427   5.192   6.004  0.2840 -0.1789 -0.1136
10831TIP3    H153984   6.333   5.200   5.992  0.3171 -0.4146 -0.5334
10831TIP3    H253985   6.442   5.218   6.095 -0.0297  1.1372 -0.4236
10832TIP3   OH253986   4.636   3.753  15.803 -0.4321  0.5443  0.1390
10832TIP3    H153987   4.607   3.670  15.840 -1.2797  0.6789 -0.2030
10832TIP3    H253988   4.600   3.754  15.714  0.4692  0.8092 -0.2332
10833TIP3   OH253989   1.929   3.602  13.127  0.2408  0.5982  0.0341
10833TIP3    H153990   1.952   3.537  13.194  1.2786  0.0655 -0.8068
10833TIP3    H253991   1.864   3.658  13.169  0.6566  0.1031  1.3880
10834TIP3   OH253992   0.231   6.698  15.948  0.0494  0.6586 -0.3887
10834TIP3    H153993   0.277   6.724  15.868  1.9440 -0.2723  0.3158
10834TIP3    H253994   0.302   6.673  16.008 -1.4196 -2.7204  0.1424
10835TIP3   OH253995   0.294   0.493  15.776 -0.0031 -0.2125  0.0342
10835TIP3    H153996   0.253   0.423  15.829 -0.5434 -0.3223 -0.5126
10835TIP3    H253997   0.372   0.517  15.825  0.5802 -1.6973 -0.1068
10836TIP3   OH253998   2.532   2.407  13.108  0.0614  0.1621  0.0810
10836TIP3    H153999   2.565   2.483  13.061  1.6630  0.7808  2.0489
10836TIP3    H254000   2.556   2.423  13.199 -0.5163 -2.2006  0.7153
10837TIP3   OH254001   5.598   2.683  11.132 -0.0124  0.0192  0.2922
10837TIP3    H154002   5.550   2.713  11.055  1.2012  0.4986 -0.3106
10837TIP3    H254003   5.596   2.587  11.126  0.1386  0.0529 -0.3896
10838TIP3   OH254004   3.407   6.106   2.075 -0.0042 -0.6028 -0.3664
10838TIP3    H154005   3.360   6.190   2.078 -1.3375 -1.3550  0.9062
10838TIP3    H254006   3.448   6.099   2.161 -0.5558 -1.5989 -0.1717
10839TIP3   OH254007   5.939   5.798   2.625  0.7352  0.6850  0.4066
10839TIP3    H154008   5.874   5.857   2.662  0.4563 -0.7756  2.3978
10839TIP3    H254009   5.889   5.722   2.597  1.2067  0.9575 -1.3091
10840TIP3   OH254010   6.320   1.932  14.294 -0.3442  0.3495 -0.5310
10840TIP3    H154011   6.315   1.837  14.298  0.8041  0.3147  1.1105
10840TIP3    H254012   6.248   1.962  14.350 -0.4953  0.4413 -0.7736
10841TIP3   OH254013   2.924   4.648   1.173 -0.2073  0.2935  0.1055
10841TIP3    H154014   2.965   4.733   1.155 -0.9050  0.5111 -0.5310
10841TIP3    H254015   2.986   4.583   1.140 -0.5419  0.6314 -1.2515
10842TIP3   OH254016   1.730   6.601  12.871  0.2642 -0.3047  0.4875
10842TIP3    H154017   1.669   6.529  12.888 -0.1133 -0.0617  0.1996
10842TIP3    H254018   1.703   6.670  12.932 -0.9814  0.5039 -0.8871
10843TIP3   OH254019   2.939   1.413   6.016  0.5984  0.0176  0.3637
10843TIP3    H154020   2.966   1.325   5.989  1.6241  0.7133 -0.9851
10843TIP3    H254021   2.987   1.429   6.097  1.3852 -0.1996 -0.0470
10844TIP3   OH254022   2.961   1.291  17.115  0.1277 -0.2700  0.3677
10844TIP3    H154023   3.030   1.292  17.049 -0.0842  1.4739  0.1085
10844TIP3    H254024   2.990   1.228  17.180  2.0241  0.4914  0.3066
10845TIP3   OH254025   0.808   0.911   5.690  0.5536 -0.1943 -0.0390
10845TIP3    H154026   0.903   0.912   5.680  0.5564 -1.6916 -0.3981
10845TIP3    H254027   0.781   0.827   5.652 -0.8831  0.0897  0.3066
10846TIP3   OH254028   2.882   6.684   2.919 -0.4299 -0.6166  0.6176
10846TIP3    H154029   2.812   6.750   2.917  0.7591  0.6832  0.1751
10846TIP3    H254030   2.863   6.631   2.996 -2.1527 -0.6034  0.2609
10847TIP3   OH254031   6.041   1.576   3.969 -0.3312 -0.4612  0.0577
10847TIP3    H154032   6.069   1.567   4.060 -0.8513 -1.4462  0.1251
10847TIP3    H254033   6.063   1.667   3.947 -0.0861 -0.2461  1.1204
10848TIP3   OH254034   4.692   2.245  13.327  0.3867  0.6348 -0.3066
10848TIP3    H154035   4.728   2.295  13.254  0.8505  2.4061  1.0578
10848TIP3    H254036   4.714   2.296  13.405 -0.3386 -1.0242  1.0723
10849TIP3   OH254037   1.935   4.715   0.854  0.3040 -0.1224  0.0862
10849TIP3    H154038   1.987   4.795   0.864  0.0001  0.0769  0.0902
10849TIP3    H254039   1.948   4.667   0.936 -0.3762  0.4399  0.5373
10850TIP3   OH254040   5.475   6.757  10.866  0.3384 -0.6354 -0.0293
10850TIP3    H154041   5.451   6.756  10.958 -1.6907 -1.0353 -0.5110
10850TIP3    H254042   5.566   6.730  10.864  0.8142  0.6219  1.9400
10851TIP3   OH254043   6.274   1.185   4.996 -0.5616 -0.0742 -0.3124
10851TIP3    H154044   6.349   1.180   4.938  0.9585  0.0127  1.5481
10851TIP3    H254045   6.240   1.096   5.000 -1.2342  0.0627 -1.9127
10852TIP3   OH254046   2.241   4.878  14.295  0.2086 -0.2517 -0.7431
10852TIP3    H154047   2.316   4.909  14.345 -1.8235  0.8503  1.8285
10852TIP3    H254048   2.206   4.956  14.253 -1.2232 -0.1223  0.5894
10853TIP3   OH254049   1.506   4.973  15.064 -0.3957  0.7413 -0.1350
10853TIP3    H154050   1.548   4.956  15.148  0.3618  0.4790 -0.5547
10853TIP3    H254051   1.542   5.058  15.036 -0.9815  1.0406  0.0071
10854TIP3   OH254052   3.829   2.638  17.039  0.6708 -0.1459  0.0795
10854TIP3    H154053   3.880   2.579  17.094  1.4304 -1.6796 -2.1351
10854TIP3    H254054   3.760   2.582  17.001 -0.3338  1.0386  0.0913
10855TIP3   OH254055   5.721   5.701   5.114 -0.0499 -0.2118 -0.5564
10855TIP3    H154056   5.626   5.706   5.113 -0.0902  0.1707  1.2980
10855TIP3    H254057   5.750   5.792   5.110  0.2367 -0.3144 -0.8767
10856TIP3   OH254058   2.693   1.825   4.391  0.2346  0.5566 -0.0338
10856TIP3    H154059   2.702   1.752   4.331  1.5232 -0.0242  0.8116
10856TIP3    H254060   2.623   1.799   4.451  1.3251 -0.4504  0.8521
10857TIP3   OH254061   0.434   2.395  13.793  0.9072  0.6835  0.0478
10857TIP3    H154062   0.523   2.412  13.824  1.0179 -1.6974  1.2486
10857TIP3    H254063   0.383   2.380  13.873  0.2319 -1.4188 -0.6983
10858TIP3   OH254064   4.150   1.126  12.091 -0.4356  0.9566 -0.2339
10858TIP3    H154065   4.121   1.197  12.149 -0.0553 -0.8053  2.3184
10858TIP3    H254066   4.246   1.130  12.094 -0.3843 -0.1593  0.7343
10859TIP3   OH254067   3.275   2.118  12.129 -0.1002  0.0422 -0.1261
10859TIP3    H154068   3.294   2.206  12.162  0.7217  0.4506 -1.6222
10859TIP3    H254069   3.207   2.131  12.063 -2.1971 -0.8426  1.7067
10860TIP3   OH254070   4.662   2.635  13.333 -0.4499  0.1526 -0.0012
10860TIP3    H154071   4.640   2.690  13.408 -1.0459 -0.2586  0.1306
10860TIP3    H254072   4.757   2.642  13.325 -0.6705  2.7790 -1.2037
10861TIP3   OH254073   0.390   1.623   0.244  0.2156 -0.6346  0.1864
10861TIP3    H154074   0.433   1.657   0.322  0.6948 -1.8048  0.4553
10861TIP3    H254075   0.427   1.675   0.172  0.8108 -0.4769  0.5961
10862TIP3   OH254076   4.438   0.360   5.790  0.4103 -0.1565 -0.2914
10862TIP3    H154077   4.349   0.390   5.775  1.0406  0.7598 -2.6851
10862TIP3    H254078   4.461   0.394   5.877 -1.5158 -0.3808  0.3454
10863TIP3   OH254079   0.028   2.521   4.116  0.5141  0.4648 -0.4132
10863TIP3    H154080   0.021   2.617   4.121 -2.8249  0.3944 -1.6987
10863TIP3    H254081   0.030   2.493   4.207  0.2400  1.7114  0.0023
10864TIP3   OH254082   2.614   0.301  11.769  0.0439 -1.2103 -0.1740
10864TIP3    H154083   2.554   0.262  11.833 -0.0388 -0.1870  0.4102
10864TIP3    H254084   2.698   0.260  11.787  0.3569  0.1225  1.6314
10865TIP3   OH254085   3.917   4.472  14.894  0.4637 -0.3965  0.9643
10865TIP3    H154086   3.866   4.539  14.848 -0.9054 -2.3186 -0.4857
10865TIP3    H254087   4.007   4.485  14.864  0.3781  1.2273  1.3057
10866TIP3   OH254088   4.815   2.661   1.444 -0.3781  0.3147  0.0394
10866TIP3    H154089   4.783   2.571   1.448 -0.6647  0.4051 -0.2354
10866TIP3    H254090   4.906   2.653   1.414 -1.2383  0.2906 -2.8342
10867TIP3   OH254091   1.241   3.072  11.101 -0.5452 -0.7657 -0.1629
10867TIP3    H154092   1.238   3.120  11.019 -0.2346 -2.8493 -1.4850
10867TIP3    H254093   1.333   3.074  11.127 -0.7799  0.6182  0.6255
10868TIP3   OH254094   4.810   5.388   5.732 -0.3044  0.0727  0.2483
10868TIP3    H154095   4.774   5.403   5.819 -1.2664  0.9841 -0.2796
10868TIP3    H254096   4.895   5.432   5.733  0.0472 -0.6161  0.9720
10869TIP3   OH254097   0.663   5.592  15.149  0.1417  0.2660  0.0434
10869TIP3    H154098   0.731   5.561  15.209  1.6770  0.3801 -1.5621
10869TIP3    H254099   0.706   5.596  15.064 -1.8505  0.5160 -1.0128
10870TIP3   OH254100   2.306   0.738   3.177  0.2162  0.1105  0.1102
10870TIP3    H154101   2.390   0.780   3.194 -0.8622  1.9719  1.1729
10870TIP3    H254102   2.295   0.678   3.250 -0.4522  1.6973  1.3750
10871TIP3   OH254103   3.710   0.423  13.249  0.2613  0.1628 -0.2616
10871TIP3    H154104   3.775   0.353  13.239  2.5866  1.7195  2.2436
10871TIP3    H254105   3.734   0.488  13.183 -0.9546 -0.7164 -1.5964
10872TIP3   OH254106   4.054   3.267  14.177  0.0731  0.8846  0.2413
10872TIP3    H154107   3.994   3.330  14.216 -0.8074  1.1213 -1.3908
10872TIP3    H254108   4.080   3.307  14.094 -2.2105 -1.7352 -1.9205
10873TIP3   OH254109   6.292   6.622  16.398  0.0891 -0.4923 -0.2165
10873TIP3    H154110   6.365   6.678  16.424 -0.8370 -0.1010  1.6925
10873TIP3    H254111   6.316   6.535  16.429 -0.0877 -0.4270  0.1118
10874TIP3   OH254112   0.309   6.252  16.227 -0.8866  0.5674 -0.0637
10874TIP3    H154113   0.304   6.301  16.146 -0.6066 -0.8781 -1.0022
10874TIP3    H254114   0.402   6.230  16.237 -0.8761  0.9526  0.7912
10875TIP3   OH254115   3.458   3.655  15.809  0.3218  0.3257  0.2120
10875TIP3    H154116   3.525   3.720  15.789 -0.1836  1.2372  1.3941
10875TIP3    H254117   3.506   3.584  15.852  0.6683  0.5122  0.1380
10876TIP3   OH254118   3.679   4.733  15.737 -0.1908  0.8368  0.2647
10876TIP3    H154119   3.757   4.730  15.792  0.0003  0.5320 -0.0152
10876TIP3    H254120   3.630   4.809  15.768  0.5659  1.4527 -0.0292
10877TIP3   OH254121   5.553   0.046   5.825 -0.0578  0.1886  0.0533
10877TIP3    H154122   5.591   0.087   5.903 -0.0457 -1.7421  1.1333
10877TIP3    H254123   5.585   0.099   5.752  0.0444  1.9805  1.3372
10878TIP3   OH254124   3.635   3.957  16.279 -0.0092 -0.2987  0.1339
10878TIP3    H154125   3.594   3.969  16.365 -0.1981 -0.8984  0.1335
10878TIP3    H254126   3.668   4.044  16.256  0.2901 -0.1869  0.9377
10879TIP3   OH254127   4.413   2.324   0.165  0.0387  1.0076  0.3891
10879TIP3    H154128   4.418   2.353   0.074 -0.1085 -0.0032  0.0404
10879TIP3    H254129   4.325   2.348   0.193 -1.4250 -2.0633 -1.0108
10880TIP3   OH254130   1.269   4.478   5.096  0.0667 -0.3653 -0.7109
10880TIP3    H154131   1.217   4.543   5.048  0.6914 -0.9704 -2.2744
10880TIP3    H254132   1.343   4.460   5.038  1.7874  0.0909  1.2315
10881TIP3   OH254133   6.392   1.016   5.226 -0.7284  0.3479 -0.4538
10881TIP3    H154134   6.358   1.095   5.184 -2.4902  0.4099  0.9554
10881TIP3    H254135   6.343   0.945   5.185 -0.6977  0.1893 -0.2160
10882TIP3   OH254136   5.091   1.221  11.079 -0.0593  0.1403  0.0817
10882TIP3    H154137   5.109   1.314  11.090  0.7082  0.5131 -3.3709
10882TIP3    H254138   5.172   1.184  11.045 -1.7893 -0.6654 -3.5894
10883TIP3   OH254139   0.937   1.009  12.371 -0.5666 -0.0627  0.3281
10883TIP3    H154140   1.028   1.038  12.366 -0.9918  1.3189  0.0383
10883TIP3    H254141   0.890   1.066  12.309 -1.4998 -1.2953 -0.1330
10884TIP3   OH254142   3.478   5.845   6.455 -0.2260  0.1885 -0.4507
10884TIP3    H154143   3.560   5.863   6.410  0.4560  0.0372  0.7105
10884TIP3    H254144   3.440   5.932   6.471  0.2946  0.3170  0.0903
10885TIP3   OH254145   4.931   3.990   1.917 -0.1572 -0.0772  0.2644
10885TIP3    H154146   4.866   3.950   1.859  0.4852  0.6928 -1.0177
10885TIP3    H254147   4.893   3.981   2.004 -0.8535 -1.8463 -0.1773
10886TIP3   OH254148   4.053   4.321  15.309  0.0982  0.2936 -0.1645
10886TIP3    H154149   4.069   4.380  15.383 -0.4123 -2.1096  2.0188
10886TIP3    H254150   4.139   4.304  15.273  0.2381  2.4613 -0.9964
10887TIP3   OH254151   5.372   6.471  14.849 -0.0946  0.1627 -0.7845
10887TIP3    H154152   5.343   6.489  14.759 -1.0501 -0.5756 -0.6430
10887TIP3    H254153   5.319   6.530  14.903 -0.6251 -0.4712 -0.6005
10888TIP3   OH254154   4.018   3.095   5.728  1.1714 -0.5015  0.1900
10888TIP3    H154155   4.020   3.188   5.750 -0.8308 -0.4980  0.4795
10888TIP3    H254156   3.967   3.090   5.648 -0.7567 -1.5376  1.4103
10889TIP3   OH254157   2.135   0.738   1.740  0.2735  0.0837  0.0972
10889TIP3    H154158   2.164   0.740   1.831 -1.5942 -1.8061  0.8061
10889TIP3    H254159   2.070   0.808   1.734 -0.4412 -0.5239  0.5635
10890TIP3   OH254160   5.010   0.696   3.681 -0.2979 -0.1109  0.0569
10890TIP3    H154161   5.092   0.647   3.673  1.1819  2.1387  0.6150
10890TIP3    H254162   5.035   0.788   3.670 -2.8086  0.6334 -0.0673
10891TIP3   OH254163   3.548   2.169   1.984 -0.5430 -0.2723 -0.9071
10891TIP3    H154164   3.514   2.246   1.940 -1.5124  0.0396  0.3242
10891TIP3    H254165   3.507   2.095   1.939 -2.0502  0.0650 -0.1360
10892TIP3   OH254166   6.670   1.866   2.008  0.4409  0.1919 -0.1369
10892TIP3    H154167   6.676   1.770   2.009 -0.7508  0.0924  1.3957
10892TIP3    H254168   6.761   1.895   2.012  0.8485 -0.8608 -1.1988
10893TIP3   OH254169   0.915   2.857  11.123  0.0131  0.4845 -0.2926
10893TIP3    H154170   0.851   2.805  11.173  1.9372  0.5417  2.4120
10893TIP3    H254171   0.891   2.841  11.031 -0.7220 -3.6186  0.4203
10894TIP3   OH254172   0.842   0.710   6.324  0.2732 -0.2308 -0.3674
10894TIP3    H154173   0.804   0.798   6.331 -0.5420 -0.5978  0.0550
10894TIP3    H254174   0.909   0.707   6.392 -1.1916 -0.6388  1.1273
10895TIP3   OH254175   4.125   5.795   4.390  0.1637 -0.1577  0.3322
10895TIP3    H154176   4.100   5.748   4.469 -2.2678  0.3773 -0.0553
10895TIP3    H254177   4.194   5.741   4.351 -0.5896 -1.9270  1.3254
10896TIP3   OH254178   5.987   1.759  16.921  0.0614 -0.1817 -0.5938
10896TIP3    H154179   5.941   1.796  16.996  1.2007  0.0767  0.0006
10896TIP3    H254180   5.964   1.816  16.848 -1.7195 -0.9102 -0.6483
10897TIP3   OH254181   2.476   1.744   0.468  0.1225 -0.1777 -0.1492
10897TIP3    H154182   2.489   1.788   0.384 -0.3738  1.4411  0.5809
10897TIP3    H254183   2.511   1.805   0.533 -0.1519 -1.0824  0.8789
10898TIP3   OH254184   3.462   6.250  15.714  0.0633 -0.1571 -0.2283
10898TIP3    H154185   3.376   6.282  15.684  0.6816  1.5432 -0.2753
10898TIP3    H254186   3.519   6.262  15.639  0.4590 -0.8363 -0.0405
10899TIP3   OH254187   2.642   4.456  13.039  0.7792  0.0570 -0.2512
10899TIP3    H154188   2.705   4.410  12.983  1.3486 -0.6220  0.9251
10899TIP3    H254189   2.696   4.499  13.105  0.0202 -0.4582  0.7195
10900TIP3   OH254190   3.546   6.227   2.323 -0.3479  0.1916 -0.0696
10900TIP3    H154191   3.641   6.219   2.329 -0.5093 -1.7351  0.3775
10900TIP3    H254192   3.530   6.321   2.327  1.4735  0.5105  0.8085
10901TIP3   OH254193   3.799   2.246   6.018 -0.0573  0.1759  0.5961
10901TIP3    H154194   3.704   2.235   6.017 -0.1790  0.8470 -1.8745
10901TIP3    H254195   3.830   2.193   5.945  1.7845 -1.8529  2.6871
10902TIP3   OH254196   3.079   2.785   2.376 -0.1298  0.2368  0.3329
10902TIP3    H154197   3.045   2.858   2.427 -0.4840  0.4768 -0.2482
10902TIP3    H254198   3.053   2.707   2.426  0.4085  0.4984  1.0485
10903TIP3   OH254199   2.128   4.214   3.473 -0.5311  0.2963  0.0459
10903TIP3    H154200   2.155   4.127   3.444 -0.9606  0.0276  0.4326
10903TIP3    H254201   2.134   4.210   3.568 -3.4177 -0.3287  0.2984
10904TIP3   OH254202   3.940   2.356   5.736  0.0574  0.1406  0.2817
10904TIP3    H154203   4.016   2.312   5.695 -0.2928 -0.2186  0.0087
10904TIP3    H254204   3.894   2.397   5.663  0.0561  0.4693  0.4652
10905TIP3   OH254205   1.975   1.774  11.441 -0.4300 -0.4222 -0.2208
10905TIP3    H154206   1.882   1.765  11.461 -1.0216  1.1723 -1.9817
10905TIP3    H254207   1.979   1.773  11.345  1.2521  0.5078 -0.1958
10906TIP3   OH254208   0.738   2.383   4.538  0.5279 -0.1786 -0.4017
10906TIP3    H154209   0.711   2.469   4.506  1.4459 -0.1052 -1.0104
10906TIP3    H254210   0.739   2.392   4.634 -0.5027  0.1319 -0.4160
10907TIP3   OH254211   3.010   2.539   6.201 -0.2315 -0.5887 -0.1740
10907TIP3    H154212   2.974   2.454   6.175 -0.9671 -0.0868 -0.8592
10907TIP3    H254213   3.096   2.542   6.159 -0.9741 -0.2343 -1.7602
10908TIP3   OH254214   1.975   3.924  12.448 -0.3115  0.3516 -0.0272
10908TIP3    H154215   1.942   3.888  12.530  1.0674 -1.7127 -0.3129
10908TIP3    H254216   1.904   3.911  12.385 -1.7395  2.7686  0.9396
10909TIP3   OH254217   3.698   4.229  17.122  0.4119 -0.1231  1.0314
10909TIP3    H154218   3.663   4.305  17.075  3.5522  1.7690  1.4780
10909TIP3    H254219   3.739   4.175  17.054 -0.8338 -0.8935  0.8597
10910TIP3   OH254220   0.482   3.542  16.342  0.1706 -0.1988  0.0421
10910TIP3    H154221   0.502   3.626  16.302 -0.5496 -0.1358 -0.1945
10910TIP3    H254222   0.508   3.477  16.277  0.6289 -0.1592  0.1818
10911TIP3   OH254223   1.549   6.796   6.324 -0.1964 -0.0139  0.1136
10911TIP3    H154224   1.488   6.722   6.326  0.5164 -0.6015  0.4838
10911TIP3    H254225   1.510   6.861   6.381 -0.1965 -0.6117  0.8052
10912TIP3   OH254226   2.707   4.817   0.149  0.0469  0.0624  0.4410
10912TIP3    H154227   2.729   4.788   0.060 -1.3362 -1.9360  0.6679
10912TIP3    H254228   2.621   4.777   0.166  0.2636  0.4441  2.6559
10913TIP3   OH254229   0.072   0.213   4.374 -0.2613 -0.3688  0.4017
10913TIP3    H154230  -0.007   0.258   4.406  0.5748  1.0387  0.5832
10913TIP3    H254231   0.142   0.247   4.429  0.5370 -1.3396  0.0123
10914TIP3   OH254232   0.758   4.698   4.455  0.4682 -0.1932 -0.0909
10914TIP3    H154233   0.787   4.708   4.365  1.2205 -2.2745 -0.1393
10914TIP3    H254234   0.670   4.659   4.448  0.2185  0.3343  0.0757
10915TIP3   OH254235   1.494   3.360  11.740  0.1922  0.4268 -0.6372
10915TIP3    H154236   1.520   3.282  11.690 -1.1955  0.2725 -1.1604
10915TIP3    H254237   1.550   3.429  11.705  0.8013 -0.1438 -0.8210
10916TIP3   OH254238   4.153   0.555  10.498  0.1775 -0.1281 -0.4808
10916TIP3    H154239   4.109   0.632  10.534 -0.6369  0.8977 -3.4013
10916TIP3    H254240   4.236   0.588  10.463  1.6594 -1.3748  1.6122
10917TIP3   OH254241   6.245   1.818  10.770 -0.0232  0.2548  0.3139
10917TIP3    H154242   6.329   1.861  10.786 -0.0747  0.5775 -0.2506
10917TIP3    H254243   6.266   1.744  10.713 -0.2193  0.7960 -0.4759
10918TIP3   OH254244   1.501   4.299  12.468  0.3090 -0.1592  0.2454
10918TIP3    H154245   1.445   4.252  12.407  0.8807  0.0850 -0.4783
10918TIP3    H254246   1.520   4.236  12.537  1.0148 -0.9810 -0.6809
10919TIP3   OH254247   6.769   2.981   0.156  0.0623 -0.2266  0.3780
10919TIP3    H154248   6.793   2.982   0.249  0.2706 -0.4461  0.3260
10919TIP3    H254249   6.839   2.932   0.113  0.2940  0.4212  0.0112
10920TIP3   OH254250   3.403   5.343  13.505 -0.0124 -0.0642  0.2521
10920TIP3    H154251   3.391   5.266  13.450  0.0763  0.3758 -0.3926
10920TIP3    H254252   3.452   5.405  13.450 -1.3929  1.0326  0.2024
10921TIP3   OH254253   6.704   2.643  12.539 -0.2342 -0.3641 -0.5192
10921TIP3    H154254   6.693   2.581  12.610 -0.5733  1.0363  0.7148
10921TIP3    H254255   6.790   2.623  12.502 -0.1725 -1.2847  0.1036
10922TIP3   OH254256   3.165   1.620  16.636  0.2784  0.4530  0.0902
10922TIP3    H154257   3.249   1.608  16.591 -0.2229  1.0900 -1.0592
10922TIP3    H254258   3.142   1.532  16.667  1.1649  0.1995  0.0742
10923TIP3   OH254259   2.334   5.112   4.052 -0.4992 -0.3253  0.1210
10923TIP3    H154260   2.323   5.110   3.957 -0.7306 -1.6252  0.1545
10923TIP3    H254261   2.333   5.205   4.074  0.0453  0.0223 -1.2005
10924TIP3   OH254262   4.611   4.761   3.631  0.2187  0.6881  0.1142
10924TIP3    H154263   4.636   4.772   3.723 -0.4443  1.8536  0.1765
10924TIP3    H254264   4.642   4.840   3.588 -2.1082  1.6102 -0.0427
10925TIP3   OH254265   5.137   4.008   0.958 -0.1748 -0.1253  0.3566
10925TIP3    H154266   5.201   4.079   0.952  0.5289 -0.8573 -1.9791
10925TIP3    H254267   5.098   4.018   1.044  1.4139  1.7917  0.9299
10926TIP3   OH254268   0.739   4.694  14.228 -0.1093  0.1289  0.4396
10926TIP3    H154269   0.648   4.723  14.235  0.1173  0.6102  1.6172
10926TIP3    H254270   0.791   4.770  14.251  0.6797  0.3181 -1.7513
10927TIP3   OH254271   4.292   4.732  13.303  0.3187 -0.4732  0.3220
10927TIP3    H154272   4.310   4.704  13.214 -0.1757  0.9111 -0.2302
10927TIP3    H254273   4.359   4.797  13.322 -0.7519  0.6971  0.2205
10928TIP3   OH254274   4.114   5.940   5.270  0.3935  0.4090 -0.2455
10928TIP3    H154275   4.036   5.933   5.215 -0.0455  0.1977  0.3906
10928TIP3    H254276   4.186   5.912   5.213 -0.0628  0.1123 -0.6886
10929TIP3   OH254277   1.453   0.719  17.123 -0.6790  1.0267  0.0444
10929TIP3    H154278   1.465   0.812  17.103 -0.0532  0.8930 -0.2183
10929TIP3    H254279   1.423   0.680  17.041  1.2455  0.5995 -0.4943
10930TIP3   OH254280   4.539   4.687  14.739  0.6009 -0.3541 -0.2959
10930TIP3    H154281   4.545   4.648  14.826  0.1560  0.8286  0.2881
10930TIP3    H254282   4.627   4.721  14.723  0.8775 -1.2000 -0.6312
10931TIP3   OH254283   1.078   1.718  16.373 -0.3449 -0.0169  0.2009
10931TIP3    H154284   1.002   1.733  16.430  0.0988  0.5012  0.6698
10931TIP3    H254285   1.074   1.625  16.352 -1.9522  0.2741 -1.0082
10932TIP3   OH254286   0.899   3.963  13.349  0.2275  0.1419 -0.2333
10932TIP3    H154287   0.931   4.014  13.274 -0.4127  1.1391  0.1522
10932TIP3    H254288   0.933   4.010  13.425 -0.7339  0.2433  0.1417
10933TIP3   OH254289   0.484   4.102  16.283 -0.3333  0.1122  0.0933
10933TIP3    H154290   0.410   4.134  16.231  0.4477 -0.6688 -1.5590
10933TIP3    H254291   0.560   4.110  16.226  1.2476  2.3957  2.2802
10934TIP3   OH254292   1.510   0.002   5.116  0.6346 -0.1608 -0.0405
10934TIP3    H154293   1.504   0.001   5.021 -0.7133  0.2187  0.0083
10934TIP3    H254294   1.475   0.088   5.141 -2.4401 -1.5413  0.9101
10935TIP3   OH254295   5.980   3.886  13.304 -0.1701  0.0418  0.5465
10935TIP3    H154296   6.042   3.821  13.269 -0.9641 -0.2107 -0.4103
10935TIP3    H254297   5.970   3.950  13.234 -1.0065  0.0752  0.6956
10936TIP3   OH254298   6.340   2.012  16.580 -0.2190 -0.3547 -0.3271
10936TIP3    H154299   6.411   2.070  16.551 -1.1301  0.6703 -0.6091
10936TIP3    H254300   6.262   2.069  16.581 -0.3598 -0.3148  3.9533
10937TIP3   OH254301   4.293   0.143   1.878 -0.0823  0.6253  0.1313
10937TIP3    H154302   4.353   0.082   1.921 -0.7331 -0.6759 -0.7555
10937TIP3    H254303   4.261   0.199   1.950  0.5545 -0.0403  0.9546
10938TIP3   OH254304   5.577   6.686   4.878 -0.0164  0.0261  0.0207
10938TIP3    H154305   5.550   6.766   4.833  0.0469 -0.1178 -0.2752
10938TIP3    H254306   5.495   6.648   4.911 -0.2449 -0.5911 -1.1738
10939TIP3   OH254307   2.514   5.321   2.730  0.2444  0.3294  0.0357
10939TIP3    H154308   2.490   5.261   2.801  1.7601  0.1210  0.4037
10939TIP3    H254309   2.592   5.281   2.690  1.6152  2.2772  0.6150
10940TIP3   OH254310   0.515   3.795  11.013  0.2544  0.2077  0.1165
10940TIP3    H154311   0.505   3.848  11.092 -0.8657 -0.7254  0.6250
10940TIP3    H254312   0.537   3.708  11.045 -0.1565 -0.1683 -0.5946
10941TIP3   OH254313   6.013   2.988  16.257 -0.3935 -0.0827 -0.3030
10941TIP3    H154314   5.933   3.015  16.212  0.9102  1.4717 -1.8211
10941TIP3    H254315   6.049   2.918  16.202  1.0756  1.6583 -1.7183
10942TIP3   OH254316   6.654   5.763  11.796  0.4590 -0.3571 -0.4047
10942TIP3    H154317   6.706   5.682  11.792 -0.0071 -0.7120  0.3922
10942TIP3    H254318   6.576   5.738  11.847  0.8185  0.8641  0.8079
10943TIP3   OH254319   3.223   5.998   5.639 -0.6868  0.4314  0.1338
10943TIP3    H154320   3.152   5.957   5.590 -0.6918 -0.3581  0.7818
10943TIP3    H254321   3.291   5.930   5.644 -0.4714  0.6825  0.7503
10944TIP3   OH254322   1.888   5.787  15.557  0.4749  0.0510 -0.1991
10944TIP3    H154323   1.819   5.848  15.584  1.4744  0.6213  1.2121
10944TIP3    H254324   1.969   5.832  15.579  1.3251 -0.5957 -1.8583
10945TIP3   OH254325   4.831   2.059  12.197  0.9049 -0.6686  0.1362
10945TIP3    H154326   4.807   1.996  12.129 -0.5533 -0.9438  0.8458
10945TIP3    H254327   4.860   2.136  12.150  1.6267 -1.4658 -0.7660
10946TIP3   OH254328   0.350   3.745   4.098  0.0465 -0.2767  0.0426
10946TIP3    H154329   0.333   3.685   4.026 -0.4908 -0.0334 -0.0387
10946TIP3    H254330   0.403   3.815   4.058  1.2274 -1.0036  0.2826
10947TIP3   OH254331   5.840   4.144   5.598  0.0698 -0.2104 -0.0586
10947TIP3    H154332   5.882   4.062   5.625 -1.3941 -0.7268  0.7419
10947TIP3    H254333   5.774   4.117   5.534  0.6570  0.5421 -0.9972
10948TIP3   OH254334   5.606   2.859   3.211 -0.5793  0.4514  0.2269
10948TIP3    H154335   5.634   2.769   3.227 -0.0634  0.3833 -0.9451
10948TIP3    H254336   5.566   2.886   3.293  1.6430  0.0526  1.5475
10949TIP3   OH254337   6.511   0.100   2.611 -0.0476 -0.6515  0.2585
10949TIP3    H154338   6.526   0.012   2.645  1.3772 -1.8135 -2.9400
10949TIP3    H254339   6.417   0.103   2.591 -0.1517 -1.3566  0.6443
10950TIP3   OH254340   2.508   6.753  16.619 -0.3120 -0.0867  0.6825
10950TIP3    H154341   2.578   6.699  16.657  0.2544  0.3493  0.2673
10950TIP3    H254342   2.454   6.778  16.694  1.1632  1.3157  1.3428
10951TIP3   OH254343   6.366   2.911  16.185 -0.6483 -0.6206 -0.5240
10951TIP3    H154344   6.280   2.872  16.197 -1.1251  0.2293 -1.0399
10951TIP3    H254345   6.350   2.987  16.128  0.6718 -1.3397 -1.9174
10952TIP3   OH254346   5.144   4.479  17.005 -0.2921  0.7484 -0.1469
10952TIP3    H154347   5.112   4.401  17.051 -1.4821  0.9088 -0.6492
10952TIP3    H254348   5.101   4.476  16.920 -1.2183  2.4673  0.1909
10953TIP3   OH254349   5.258   2.738   4.121  0.1473 -0.7647 -0.5612
10953TIP3    H154350   5.234   2.798   4.051 -1.3775 -2.0493 -1.2023
10953TIP3    H254351   5.261   2.652   4.080  3.0744 -1.1211  0.1516
10954TIP3   OH254352   2.235   0.700   3.881  0.8996 -0.1783  0.1055
10954TIP3    H154353   2.326   0.729   3.872  0.8701 -0.2522 -0.5030
10954TIP3    H254354   2.228   0.670   3.972  1.2685  0.5402  0.3777
10955TIP3   OH254355   0.512   6.307   1.737 -0.0116 -0.1165 -0.1440
10955TIP3    H154356   0.474   6.371   1.797 -0.2640  1.0977 -1.5465
10955TIP3    H254357   0.452   6.233   1.738 -0.1814  0.0246  0.8228
10956TIP3   OH254358   0.729   1.972  12.034  0.0671  0.0931  1.3935
10956TIP3    H154359   0.699   1.903  11.975 -0.0650  0.5090  0.9680
10956TIP3    H254360   0.771   1.925  12.106  2.9235 -0.3882 -0.4312
10957TIP3   OH254361   3.620   3.465  15.932 -0.8257  0.1317 -0.4919
10957TIP3    H154362   3.636   3.441  15.841 -0.6101  0.5653 -0.5703
10957TIP3    H254363   3.691   3.424  15.981  0.4001  1.7806 -0.7991
10958TIP3   OH254364   0.756   3.256   0.123 -0.0004 -0.2379 -0.5475
10958TIP3    H154365   0.706   3.337   0.114 -0.3961 -0.4911 -0.6404
10958TIP3    H254366   0.774   3.228   0.033 -0.3167 -0.5306 -0.5205
10959TIP3   OH254367   2.673   0.016   2.897  0.0789 -0.0534  0.1901
10959TIP3    H154368   2.593  -0.010   2.943  0.5264 -2.3250 -0.1685
10959TIP3    H254369   2.654  -0.003   2.805  0.8095 -0.0150  0.0294
10960TIP3   OH254370   1.603   1.625  12.084 -0.2287  0.0949  0.3987
10960TIP3    H154371   1.530   1.616  12.023 -0.6137  1.3855  0.6465
10960TIP3    H254372   1.665   1.683  12.039  2.1735 -3.3011 -1.1658
10961TIP3   OH254373   5.143   0.522  17.158 -0.0301  0.1573 -0.0249
10961TIP3    H154374   5.101   0.564  17.083  0.8703 -2.5154 -2.1806
10961TIP3    H254375   5.236   0.520  17.136  0.2387 -0.7991  1.0750
10962TIP3   OH254376   1.366   4.971  14.754  0.7117  0.0960  0.1635
10962TIP3    H154377   1.431   4.957  14.685  2.0398 -1.2706  1.6142
10962TIP3    H254378   1.405   5.039  14.810 -0.7836  1.9081 -0.8470
10963TIP3   OH254379   6.722   0.341  16.009  0.1260  0.8885  0.4467
10963TIP3    H154380   6.813   0.367  16.017  0.0441  1.1490  0.5185
10963TIP3    H254381   6.699   0.305  16.094  0.2238  0.6152  0.3611
10964TIP3   OH254382   4.278   5.351   4.630 -0.5085  0.2489  0.0254
10964TIP3    H154383   4.234   5.275   4.668  0.0916 -0.8038 -1.2658
10964TIP3    H254384   4.321   5.316   4.551 -1.1159  2.1605 -1.2226
10965TIP3   OH254385   1.505   2.128   5.514 -0.2443  0.3051 -0.4013
10965TIP3    H154386   1.502   2.099   5.606 -1.3728 -0.2073 -0.5696
10965TIP3    H254387   1.570   2.071   5.473  0.3154  0.5805  0.0875
10966TIP3   OH254388   2.502   0.836  13.244  0.1396  0.1135 -0.1528
10966TIP3    H154389   2.436   0.883  13.193  0.4007  0.7279  0.0711
10966TIP3    H254390   2.453   0.800  13.318  0.1548  1.0376  0.3090
10967TIP3   OH254391   6.598   4.105  11.172 -0.8033  0.2466  0.2656
10967TIP3    H154392   6.584   4.093  11.078 -3.7610 -2.1172  0.8592
10967TIP3    H254393   6.661   4.038  11.197  0.2863  1.1303 -0.0432
10968TIP3   OH254394   4.807   1.742  15.729  0.4755 -0.0905 -0.0792
10968TIP3    H154395   4.725   1.704  15.699  1.9564 -2.4359 -1.5230
10968TIP3    H254396   4.786   1.834  15.748 -2.8271 -1.0119  1.3837
10969TIP3   OH254397   3.853   3.339  15.431 -0.1510  0.5839 -0.3068
10969TIP3    H154398   3.891   3.403  15.371  1.2200  0.4442  0.3645
10969TIP3    H254399   3.835   3.262  15.376  1.8798  0.1469 -0.4366
10970TIP3   OH254400   0.336   4.685   5.863 -0.4173 -0.1839 -0.0563
10970TIP3    H154401   0.352   4.657   5.773 -3.3478 -0.0200 -0.7429
10970TIP3    H254402   0.263   4.631   5.893  1.1188 -0.9360  2.6449
10971TIP3   OH254403   2.389   6.700  16.340 -0.9277 -0.0130  0.2665
10971TIP3    H154404   2.446   6.691  16.263 -2.4392 -0.8954 -0.7997
10971TIP3    H254405   2.386   6.612  16.378 -0.1773  0.4232  1.3717
10972TIP3   OH254406   5.673   0.842   5.358 -0.3001  0.4391 -0.0279
10972TIP3    H154407   5.591   0.821   5.312  1.0488 -1.3866 -1.7299
10972TIP3    H254408   5.683   0.936   5.346 -1.7669  0.5840 -0.4105
10973TIP3   OH254409   6.550   1.568   2.461 -0.2363 -0.1931 -0.3780
10973TIP3    H154410   6.488   1.502   2.431  0.3444 -0.9992  0.1393
10973TIP3    H254411   6.636   1.530   2.442  0.1122  0.1566  0.4454
10974TIP3   OH254412   0.658   4.530  10.704  0.0813  0.8628 -0.0658
10974TIP3    H154413   0.595   4.459  10.694 -0.2909  1.2144 -0.2343
10974TIP3    H254414   0.743   4.486  10.704 -0.0615  0.5127 -1.5021
10975TIP3   OH254415   6.041   4.018  16.350 -0.2425  0.5622  0.4123
10975TIP3    H154416   6.122   4.068  16.355 -0.5261  0.9050  2.8258
10975TIP3    H254417   5.988   4.062  16.283  0.5300  1.9042  0.6740
10976TIP3   OH254418   3.528   5.138  15.807 -0.3839 -0.2625  0.5523
10976TIP3    H154419   3.586   5.215  15.803  0.3163 -0.8191 -0.5483
10976TIP3    H254420   3.441   5.173  15.789  0.1719  0.0454 -1.7732
10977TIP3   OH254421   5.407   0.139   1.219  0.1557  0.3163 -0.0909
10977TIP3    H154422   5.352   0.215   1.238  1.6425  1.5489 -0.5294
10977TIP3    H254423   5.457   0.163   1.141 -0.7550 -1.9245 -1.4910
10978TIP3   OH254424   2.382   3.238  14.096  0.1593 -0.5802 -0.1704
10978TIP3    H154425   2.344   3.290  14.167  0.5925 -1.0250  0.3916
10978TIP3    H254426   2.311   3.182  14.066 -1.1421  2.0614 -2.5391
10979TIP3   OH254427   1.625   1.969   0.307 -0.3049 -0.0352 -0.3774
10979TIP3    H154428   1.679   1.923   0.371 -0.4330  0.1426 -0.1390
10979TIP3    H254429   1.610   1.905   0.237 -0.7215 -0.4573  0.0846
10980TIP3   OH254430   0.436   2.215   1.191 -0.2098 -0.5917  0.9735
10980TIP3    H154431   0.493   2.236   1.265  2.1727 -0.4897 -0.7683
10980TIP3    H254432   0.409   2.301   1.156  1.9721 -0.4577 -0.5956
10981TIP3   OH254433   5.398   5.678   0.146  0.0361  0.2154 -0.1387
10981TIP3    H154434   5.323   5.713   0.098  0.5552  3.4369  1.1339
10981TIP3    H254435   5.361   5.641   0.226 -0.2213  3.1706  1.2190
10982TIP3   OH254436   2.765   6.567  17.092 -0.1271  0.0810 -0.4567
10982TIP3    H154437   2.761   6.661  17.074  1.5924  0.1946 -0.4298
10982TIP3    H254438   2.747   6.526  17.007 -0.9710  0.4293 -0.4502
10983TIP3   OH254439   2.620   0.969  16.739  0.3909 -0.0617  0.1412
10983TIP3    H154440   2.676   1.036  16.778  0.3505 -0.9532  1.8321
10983TIP3    H254441   2.655   0.887  16.773 -0.9160 -0.7378 -0.1037
10984TIP3   OH254442   4.562   6.428   0.602 -0.0293  0.1289 -0.3369
10984TIP3    H154443   4.621   6.497   0.571 -0.5323  0.2523 -1.0431
10984TIP3    H254444   4.533   6.384   0.522 -0.7916 -0.0170  0.0097
10985TIP3   OH254445   2.849   1.056  15.947  0.3874  0.8400 -1.1886
10985TIP3    H154446   2.891   1.075  16.031  0.5486  1.7526 -1.4543
10985TIP3    H254447   2.762   1.095  15.954 -0.2480 -0.5895 -0.8309
10986TIP3   OH254448   1.188   1.962   2.062  0.0112 -0.5822 -0.4330
10986TIP3    H154449   1.209   1.998   2.148  1.2021 -2.9489  0.3358
10986TIP3    H254450   1.269   1.920   2.033 -0.0103  1.0697 -3.2505
10987TIP3   OH254451   3.995   6.372  10.739  0.2624  0.0391  0.6931
10987TIP3    H154452   3.989   6.376  10.835 -0.0339  1.3024  0.6466
10987TIP3    H254453   4.048   6.449  10.716 -2.2795  1.6133 -0.3291
10988TIP3   OH254454   2.416   1.706  12.019  0.1563  0.2633  0.4859
10988TIP3    H154455   2.359   1.717  11.943 -0.0580  1.5721  0.8123
10988TIP3    H254456   2.393   1.619  12.054  0.0044 -0.1982 -0.7157
10989TIP3   OH254457   1.177   5.938  11.634  0.3908  0.2853 -0.2623
10989TIP3    H154458   1.242   5.867  11.638 -0.7775 -0.7662  0.6614
10989TIP3    H254459   1.094   5.893  11.621 -0.0559  1.6737 -2.9416
10990TIP3   OH254460   1.018   2.944  11.963 -0.1068 -0.1699  0.4353
10990TIP3    H154461   1.093   2.973  11.911 -1.6626  2.3967 -0.5594
10990TIP3    H254462   0.970   2.884  11.907  0.4477 -0.7247  0.5480
10991TIP3   OH254463   5.880   4.673   2.072 -0.2835  0.2895  0.1482
10991TIP3    H154464   5.940   4.634   2.009 -0.7113 -2.5411  1.3735
10991TIP3    H254465   5.897   4.767   2.066  1.1552 -0.0634 -2.6286
10992TIP3   OH254466   1.925   2.870  14.123 -0.6408  0.0683  0.1862
10992TIP3    H154467   1.882   2.900  14.043  1.0085 -0.1330 -0.8307
10992TIP3    H254468   1.930   2.948  14.179  1.0406  1.0670 -1.2587
10993TIP3   OH254469   2.150   3.421  16.066 -0.7040 -0.3539  0.4898
10993TIP3    H154470   2.138   3.432  16.161 -1.7008  1.1648  0.2009
10993TIP3    H254471   2.154   3.510  16.031 -0.1364 -0.8925 -0.8971
10994TIP3   OH254472   3.686   4.009  13.935  0.0752  0.6739  0.1825
10994TIP3    H154473   3.773   3.974  13.917 -0.7695 -1.2722 -0.4050
10994TIP3    H254474   3.693   4.102  13.916  1.8396  0.4343 -0.5303
10995TIP3   OH254475   4.655   0.567  11.439 -0.0082 -0.4937  0.2860
10995TIP3    H154476   4.698   0.641  11.395  0.8090 -0.1364  1.6164
10995TIP3    H254477   4.596   0.608  11.502 -3.3332 -0.9416 -2.2418
10996TIP3   OH254478   0.306   6.655   4.782  0.6333 -0.3337 -0.4775
10996TIP3    H154479   0.228   6.710   4.780 -0.0433 -1.2267  0.4620
10996TIP3    H254480   0.378   6.716   4.804 -0.2540  0.0235  1.6212
10997TIP3   OH254481   1.313   1.840  13.809  0.2897 -0.4193 -0.2086
10997TIP3    H154482   1.363   1.824  13.730  1.0111 -0.6772  0.2926
10997TIP3    H254483   1.340   1.771  13.870  2.6709  1.9254  1.6221
10998TIP3   OH254484   3.454   5.615   3.981  0.3925 -0.7085  0.7988
10998TIP3    H154485   3.424   5.533   4.021 -0.7104  0.7142  3.0648
10998TIP3    H254486   3.541   5.629   4.019 -0.3379  0.2514  2.1940
10999TIP3   OH254487   2.380   0.944   4.618  0.6324 -0.4770  0.5203
10999TIP3    H154488   2.333   0.864   4.642 -0.3436 -0.7560 -2.0079
10999TIP3    H254489   2.385   0.941   4.523  1.4081  2.0338  0.4083
11000TIP3   OH254490   2.941   5.868  13.996  0.0198  0.1910  0.3408
11000TIP3    H154491   2.988   5.842  14.075 -1.0505  0.6262  1.1454
11000TIP3    H254492   2.996   5.936  13.957  1.0852 -0.7764  0.1144
11001TIP3   OH254493   6.620   5.338   4.665  0.0821 -0.5475 -0.3055
11001TIP3    H154494   6.632   5.313   4.756 -2.9785 -1.3182 -0.0102
11001TIP3    H254495   6.568   5.418   4.668  1.0033  0.1247 -1.3924
11002TIP3   OH254496   1.440   2.076  12.611 -0.3346  0.6050 -0.0994
11002TIP3    H154497   1.518   2.099  12.661  0.6622  1.2450 -1.8529
11002TIP3    H254498   1.449   1.982  12.593 -0.8159  0.3194  1.0633
11003TIP3   OH254499   4.434   5.929  12.820 -0.7063 -0.0471  0.3909
11003TIP3    H154500   4.525   5.933  12.850 -0.1233 -0.8513 -1.1248
11003TIP3    H254501   4.397   5.855  12.867 -0.3691 -0.1505  0.5007
11004TIP3   OH254502   6.317   4.300   3.145 -0.0622 -0.0228  0.1902
11004TIP3    H154503   6.330   4.209   3.172  0.7108 -0.2849 -1.0256
11004TIP3    H254504   6.276   4.294   3.059 -0.2580  0.7883  0.2186
11005TIP3   OH254505   6.487   6.795  13.306  0.0523 -0.3445 -0.3018
11005TIP3    H154506   6.516   6.867  13.361  1.2608  0.2123 -1.6141
11005TIP3    H254507   6.470   6.834  13.220 -0.5858 -1.3936 -0.6823
11006TIP3   OH254508   4.019   4.045  12.261  0.3153 -0.0594  0.2354
11006TIP3    H154509   4.033   4.050  12.356  0.1440  0.7049  0.2276
11006TIP3    H254510   3.928   4.016  12.253  0.0899  0.6054  0.3155
11007TIP3   OH254511   4.868   4.608  13.575  0.8588 -0.4755  0.0986
11007TIP3    H154512   4.902   4.697  13.587 -1.3126  0.3655  0.3164
11007TIP3    H254513   4.858   4.574  13.664  1.2178 -0.7592  0.0316
11008TIP3   OH254514   2.732   4.285   0.922  0.8184  0.1618 -0.0784
11008TIP3    H154515   2.703   4.277   0.831  1.4243  0.9743 -0.3642
11008TIP3    H254516   2.826   4.266   0.919  0.5414 -1.5093  0.6769
11009TIP3   OH254517   5.055   3.369  10.921 -0.3827  0.5357 -0.1603
11009TIP3    H154518   4.978   3.349  10.975 -0.2226  0.9244  0.2112
11009TIP3    H254519   5.019   3.413  10.844 -0.6569 -0.3901 -0.5884
11010TIP3   OH254520   3.798   0.680   5.171 -0.8317 -0.6022 -0.0854
11010TIP3    H154521   3.723   0.737   5.184 -0.7359 -0.8803  2.1722
11010TIP3    H254522   3.850   0.691   5.251  0.2197 -2.3379 -0.4819
11011TIP3   OH254523   5.719   6.201   1.801  0.4887 -0.3461 -0.3335
11011TIP3    H154524   5.809   6.209   1.833  0.5823  0.7082 -0.8249
11011TIP3    H254525   5.697   6.288   1.769 -0.4254 -0.7991 -0.9749
11012TIP3   OH254526   2.578   0.530  13.034  0.8060  0.4948 -0.4765
11012TIP3    H154527   2.610   0.468  12.968 -2.3538 -1.1304 -0.6603
11012TIP3    H254528   2.550   0.606  12.985  0.5973  0.2454 -0.7432
11013TIP3   OH254529   3.422   0.416   1.852 -0.2658  0.3387 -0.2217
11013TIP3    H154530   3.487   0.454   1.912 -0.7100  1.3338 -0.3469
11013TIP3    H254531   3.455   0.439   1.765 -0.9070  1.0782 -0.2786
11014TIP3   OH254532   1.641   4.108   4.856 -0.6044  0.0328 -0.8060
11014TIP3    H154533   1.720   4.054   4.859 -1.1224 -0.7815 -1.7505
11014TIP3    H254534   1.584   4.071   4.923 -0.3788  0.3374 -0.4396
11015TIP3   OH254535   3.393   5.433  14.372 -0.4115  0.1235  0.6844
11015TIP3    H154536   3.306   5.393  14.364 -0.3489  0.1123  0.0307
11015TIP3    H254537   3.433   5.389  14.447 -1.0600  0.2974  1.1408
11016TIP3   OH254538   4.185   2.126   3.841 -0.2231  0.2494  0.8002
11016TIP3    H154539   4.169   2.059   3.907 -0.7013 -0.3530  0.0797
11016TIP3    H254540   4.106   2.127   3.788  0.6739 -0.1971 -0.5785
11017TIP3   OH254541   0.123   4.440  16.050 -0.0754  0.0968 -0.1347
11017TIP3    H154542   0.031   4.466  16.043  0.2082  2.0729  2.1683
11017TIP3    H254543   0.172   4.521  16.031  1.0502 -0.1019  1.6946
11018TIP3   OH254544   4.103   4.674  11.616  0.1043  0.1221  0.3568
11018TIP3    H154545   4.075   4.689  11.706  0.2964  1.5297  0.2160
11018TIP3    H254546   4.071   4.587  11.594  1.7471 -1.0963  2.4387
11019TIP3   OH254547   6.295   6.761   3.104 -0.0344 -0.4728  0.4673
11019TIP3    H154548   6.376   6.775   3.054  0.1058 -0.6764  0.6355
11019TIP3    H254549   6.247   6.695   3.054 -1.2542  1.4256 -0.9844
11020TIP3   OH254550   3.859   0.940   4.538 -0.0118  0.0603  0.4915
11020TIP3    H154551   3.864   1.036   4.531 -0.1145 -0.0066 -0.7188
11020TIP3    H254552   3.774   0.924   4.577 -0.0679  0.4657  0.5447
11021TIP3   OH254553   6.367   1.406  16.202  0.1715 -0.0861 -0.7808
11021TIP3    H154554   6.437   1.419  16.265  0.6614  2.7223 -1.7656
11021TIP3    H254555   6.287   1.400  16.255  0.6521  1.4408  0.1493
11022TIP3   OH254556   0.827   1.226   1.917  0.8188  0.3041  0.0026
11022TIP3    H154557   0.827   1.232   2.013 -1.5247  0.2951  0.0477
11022TIP3    H254558   0.854   1.136   1.898  0.4505  0.0409  0.6988
11023TIP3   OH254559   3.750   5.100   3.160  0.6566 -0.0827 -0.2704
11023TIP3    H154560   3.771   5.033   3.095 -1.1709  0.3112 -1.3333
11023TIP3    H254561   3.811   5.171   3.142  3.2262 -1.7024  1.4342
11024TIP3   OH254562   1.426   6.199   3.455  0.3271 -0.5891  0.1666
11024TIP3    H154563   1.406   6.190   3.549 -0.7720  1.9746  0.2724
11024TIP3    H254564   1.344   6.177   3.411  0.0854  0.5750 -0.0034
11025TIP3   OH254565   5.082   0.082  15.429 -0.7293  0.2908  0.2776
11025TIP3    H154566   5.097   0.082  15.523  0.2298 -1.2875  0.1519
11025TIP3    H254567   5.127   0.160  15.397  0.6610 -0.2505  0.8840
11026TIP3   OH254568   2.848   0.260  12.649 -0.0629  0.8784 -0.1306
11026TIP3    H154569   2.817   0.177  12.685  1.7435  0.6743  1.0670
11026TIP3    H254570   2.869   0.240  12.558 -0.3193  0.2096 -0.0506
11027TIP3   OH254571   1.485   1.498   4.472  0.3482  0.0546  0.0988
11027TIP3    H154572   1.503   1.470   4.382 -1.0812  1.9850 -0.8773
11027TIP3    H254573   1.547   1.569   4.488  0.2593  0.0590  0.4328
11028TIP3   OH254574   0.748   6.025  12.021 -0.7604 -0.5306 -0.2580
11028TIP3    H154575   0.786   6.113  12.012  0.7627 -0.6602  3.3671
11028TIP3    H254576   0.804   5.970  11.966  1.4974  0.0482  1.3334
11029TIP3   OH254577   2.598   5.135  13.118  0.3192  0.1666  0.0155
11029TIP3    H154578   2.541   5.104  13.188 -0.3563 -0.9383 -0.9817
11029TIP3    H254579   2.687   5.114  13.148 -0.0283 -1.2766  0.0898
11030TIP3   OH254580   4.104   1.134   1.220 -0.7149  0.6106  0.3336
11030TIP3    H154581   4.124   1.052   1.266 -1.0531  0.1515 -0.3202
11030TIP3    H254582   4.055   1.186   1.284 -0.6727  0.2184  0.6900
11031TIP3   OH254583   0.554   0.660   5.266  0.4393 -0.5083 -0.1669
11031TIP3    H154584   0.506   0.601   5.209 -1.7477  1.0974 -0.1280
11031TIP3    H254585   0.536   0.629   5.355  0.3078 -0.5255 -0.1991
11032TIP3   OH254586   4.198   3.339   5.551 -0.1123 -0.3007  0.0600
11032TIP3    H154587   4.243   3.271   5.501 -0.1280 -0.4969  0.3116
11032TIP3    H254588   4.255   3.415   5.545 -0.3641 -0.1599 -0.7037
11033TIP3   OH254589   5.417   0.480   2.915 -0.0211  0.0800 -0.3691
11033TIP3    H154590   5.334   0.496   2.958  0.4499  0.7638  0.3135
11033TIP3    H254591   5.395   0.469   2.822 -1.1022 -1.8081  0.0540
11034TIP3   OH254592   0.261   1.713  12.989 -0.1262  0.6487  0.3817
11034TIP3    H154593   0.231   1.798  12.957  2.4620  1.5974  0.2262
11034TIP3    H254594   0.316   1.734  13.064  1.4619 -0.7356 -0.3209
11035TIP3   OH254595   4.270   6.330  12.175  0.7765 -0.2320  0.2332
11035TIP3    H154596   4.323   6.268  12.225  1.7001 -1.4735 -2.0999
11035TIP3    H254597   4.328   6.405  12.161  2.0049 -1.5322 -2.1981
11036TIP3   OH254598   0.298   0.603   5.068  0.0805  0.0754  0.4387
11036TIP3    H154599   0.294   0.635   5.158 -1.1334 -0.9602  0.7884
11036TIP3    H254600   0.322   0.679   5.016 -0.9704  1.1254  1.4391
11037TIP3   OH254601   3.655   1.922   4.346 -0.3431 -0.3125 -0.0095
11037TIP3    H154602   3.698   1.837   4.340  0.0859 -0.0098 -1.6075
11037TIP3    H254603   3.618   1.937   4.259 -1.3368  0.6645  0.5524
11038TIP3   OH254604   0.766   5.606  14.100 -0.3052  0.5555  0.1617
11038TIP3    H154605   0.807   5.520  14.088 -0.1840  0.5719  0.4645
11038TIP3    H254606   0.672   5.590  14.087 -0.2093  0.5144 -0.5115
11039TIP3   OH254607   4.363   4.343   2.534  0.0601 -0.2247  0.1062
11039TIP3    H154608   4.290   4.283   2.548  0.2241 -0.0859  1.7111
11039TIP3    H254609   4.337   4.424   2.578  1.3063 -0.2942  1.0454
11040TIP3   OH254610   2.697   6.741   5.745  0.1693 -0.0080  0.2131
11040TIP3    H154611   2.673   6.652   5.722  1.5120 -0.5709  0.8988
11040TIP3    H254612   2.770   6.732   5.806 -0.4656  1.5289  1.2749
11041TIP3   OH254613   4.927   6.557  16.161  0.5748  0.5174  0.2411
11041TIP3    H154614   4.875   6.498  16.106  0.4404  0.5572  0.3260
11041TIP3    H254615   4.867   6.628  16.183  0.2907 -0.0566  1.3670
11042TIP3   OH254616   5.839   4.905  16.833 -0.1680 -0.5549  0.4329
11042TIP3    H154617   5.748   4.927  16.813  0.4385  3.3295  1.0274
11042TIP3    H254618   5.840   4.892  16.928 -0.0114  0.3175  0.5631
11043TIP3   OH254619   3.166   0.615  13.742  0.1957 -0.1730  0.4433
11043TIP3    H154620   3.237   0.555  13.719  0.3644 -0.3460  1.3815
11043TIP3    H254621   3.205   0.677  13.803  0.1850  1.3062 -0.9832
11044TIP3   OH254622   1.915   1.465   5.216  0.6389 -0.1964 -0.0086
11044TIP3    H154623   1.956   1.396   5.164  0.8213  0.6063 -0.9622
11044TIP3    H254624   1.889   1.531   5.152  0.4552  0.6119  0.8786
11045TIP3   OH254625   4.639   3.854  12.370  0.2806 -0.0804 -0.2343
11045TIP3    H154626   4.735   3.862  12.377  0.1501  0.6430  1.0205
11045TIP3    H254627   4.605   3.915  12.436 -1.0783  0.5793 -1.4812
11046TIP3   OH254628   1.512   3.722   3.274 -0.2215  0.4602  0.8023
11046TIP3    H154629   1.554   3.748   3.192  1.2318 -1.6268  0.7972
11046TIP3    H254630   1.427   3.765   3.272  0.5531  2.0789 -0.8389
11047TIP3   OH254631   5.474   0.553  16.682 -0.2853  0.0384  0.2107
11047TIP3    H154632   5.569   0.547  16.669 -0.2239 -2.1001  1.1528
11047TIP3    H254633   5.456   0.487  16.749 -2.5660 -0.1959 -0.5768
11048TIP3   OH254634   1.442   6.276   2.457  0.3622 -0.1484  0.0411
11048TIP3    H154635   1.371   6.338   2.468 -0.5858 -1.5191  2.7442
11048TIP3    H254636   1.496   6.286   2.536  1.5428 -1.1179 -0.5891
11049TIP3   OH254637   1.657   4.979  15.302 -0.4161 -0.2689  0.3800
11049TIP3    H154638   1.685   4.937  15.383  0.0031  1.5266  1.2076
11049TIP3    H254639   1.729   4.962  15.241 -1.1850 -2.5232 -0.0082
11050TIP3   OH254640   3.564   0.907  12.001  0.4039 -0.2340  0.1630
11050TIP3    H154641   3.539   0.861  12.081 -0.6929 -1.6919 -0.9667
11050TIP3    H254642   3.550   1.000  12.022 -0.9573 -0.6486  1.3141
11051TIP3   OH254643   6.589   6.725  12.103  0.7700  0.3231  0.1968
11051TIP3    H154644   6.644   6.648  12.089 -2.5799 -2.3766  0.5284
11051TIP3    H254645   6.550   6.742  12.017  0.8868  1.1618  0.3030
11052TIP3   OH254646   1.552   2.526   1.472  0.2820  0.5975 -0.3019
11052TIP3    H154647   1.512   2.606   1.506 -1.5513 -0.4344  0.1237
11052TIP3    H254648   1.599   2.489   1.547  1.5542  1.5030 -0.6341
11053TIP3   OH254649   5.139   1.782  15.038  0.3714  0.6041 -0.0586
11053TIP3    H154650   5.058   1.792  14.989  0.7396  1.0722 -0.5886
11053TIP3    H254651   5.208   1.789  14.972  0.8151 -1.3465  0.1314
11054TIP3   OH254652   4.779   0.149   0.890 -0.8083  0.0639 -0.4376
11054TIP3    H154653   4.784   0.054   0.900 -2.1069  0.0226 -0.0679
11054TIP3    H254654   4.690   0.165   0.857 -0.7932  1.1927  0.0343
11055TIP3   OH254655   5.383   1.051  10.327 -0.3710  0.0793 -0.3297
11055TIP3    H154656   5.372   0.958  10.344  0.9873  0.1646  1.2193
11055TIP3    H254657   5.475   1.061  10.302 -0.7042  0.9109 -1.3163
11056TIP3   OH254658   2.537   3.519  12.509  0.1112 -0.1161 -0.2032
11056TIP3    H154659   2.579   3.570  12.440 -0.4243  1.4833  0.5728
11056TIP3    H254660   2.561   3.565  12.590 -1.3253 -0.4214  0.4391
11057TIP3   OH254661   4.026   1.216  13.079 -0.0525  0.0251  0.1675
11057TIP3    H154662   4.111   1.212  13.035 -0.1481  1.6845 -0.2204
11057TIP3    H254663   3.970   1.159  13.026  0.5187 -0.1497 -0.2635
11058TIP3   OH254664   0.108   6.195  13.516 -0.4248  0.3810  0.2638
11058TIP3    H154665   0.196   6.188  13.552  0.4616  2.3543 -1.2733
11058TIP3    H254666   0.106   6.132  13.444 -0.6660 -0.4301  0.9699
11059TIP3   OH254667   2.045   5.560  15.030  0.9718 -0.0711  0.4269
11059TIP3    H154668   2.089   5.634  14.987  1.0067 -1.3931 -1.9194
11059TIP3    H254669   1.952   5.582  15.027  1.1344  1.3112  2.6871
11060TIP3   OH254670   1.054   4.792   0.669 -0.1176  0.5004 -0.1889
11060TIP3    H154671   1.045   4.878   0.710  0.0925  1.2575 -1.6726
11060TIP3    H254672   0.966   4.771   0.638 -0.0044  0.5730 -0.5658
11061TIP3   OH254673   0.904   6.381   6.446  0.2287 -0.1139  0.5178
11061TIP3    H154674   0.851   6.430   6.384  2.4196  1.4936 -0.1989
11061TIP3    H254675   0.942   6.447   6.503  0.9654 -1.2511  1.3850
11062TIP3   OH254676   6.231   2.402   1.658  0.1852 -0.1109 -0.3223
11062TIP3    H154677   6.249   2.308   1.658  0.2932 -0.0914 -0.3814
11062TIP3    H254678   6.249   2.430   1.747 -1.2272 -0.3969  0.0617
11063TIP3   OH254679   1.745   5.936  17.057  0.2227 -0.4596  0.3459
11063TIP3    H154680   1.820   5.951  17.000 -0.3530 -0.9365 -0.5655
11063TIP3    H254681   1.733   5.841  17.057 -1.1007 -0.3287 -0.5071
11064TIP3   OH254682   2.089   0.480  12.795  0.0642  0.2422 -0.5053
11064TIP3    H154683   2.002   0.443  12.804  0.3402 -0.4724 -0.6979
11064TIP3    H254684   2.146   0.405  12.781  0.8736  0.6070  0.6925
11065TIP3   OH254685   4.398   1.603   5.721  0.0784 -0.3637  0.3977
11065TIP3    H154686   4.447   1.554   5.787 -0.9766 -1.4468  0.4223
11065TIP3    H254687   4.313   1.558   5.715 -1.0086  1.5466  0.4907
11066TIP3   OH254688   0.150   1.848  15.568  0.2014  0.6743  0.7311
11066TIP3    H154689   0.174   1.794  15.643 -0.8397 -0.9601 -0.0663
11066TIP3    H254690   0.233   1.866  15.524  0.5000 -0.8582  0.6399
11067TIP3   OH254691   1.215   0.743  13.766 -0.4895 -0.0889  0.3139
11067TIP3    H154692   1.128   0.728  13.728 -0.2432  1.4985 -0.9945
11067TIP3    H254693   1.197   0.795  13.845 -0.7421  0.2349  0.0482
11068TIP3   OH254694   2.746   5.362   2.159 -0.0336 -0.3730 -0.2106
11068TIP3    H154695   2.748   5.451   2.193  0.0096 -0.5961  0.3718
11068TIP3    H254696   2.748   5.306   2.236 -0.4612 -0.8797 -0.5565
11069TIP3   OH254697   3.769   3.313   4.195  0.3501  0.0653  0.4100
11069TIP3    H154698   3.848   3.262   4.175 -0.6442 -1.2473 -0.3578
11069TIP3    H254699   3.697   3.252   4.181 -0.7521  0.7402  2.6698
11070TIP3   OH254700   2.216   3.104  13.543  0.8674 -0.1949  0.1223
11070TIP3    H154701   2.142   3.161  13.565  2.8057  3.1891 -1.3044
11070TIP3    H254702   2.219   3.040  13.614 -0.2303  2.8366  3.1702
11071TIP3   OH254703   4.623   5.621   1.781  0.2958  0.4438 -0.5311
11071TIP3    H154704   4.604   5.635   1.874  1.6048  1.5653 -0.4130
11071TIP3    H254705   4.625   5.708   1.743 -1.6974 -0.0637 -1.9662
11072TIP3   OH254706   3.781   5.587   2.713  0.1374 -0.0195  0.5212
11072TIP3    H154707   3.727   5.653   2.756 -0.2338 -1.2349  2.0060
11072TIP3    H254708   3.718   5.527   2.673  0.4758  0.6886 -1.1210
11073TIP3   OH254709   2.878   3.854  15.211  0.7030 -0.4966  0.5665
11073TIP3    H154710   2.969   3.877  15.196  0.0665  1.5894 -0.4469
11073TIP3    H254711   2.833   3.938  15.219 -1.3236 -1.4511 -0.1319
11074TIP3   OH254712   6.796   4.004   2.317  0.2094  0.0993  0.2284
11074TIP3    H154713   6.790   4.093   2.281 -0.9390 -0.4633 -1.0425
11074TIP3    H254714   6.867   3.963   2.267 -1.3773 -0.6782 -1.4961
11075TIP3   OH254715   4.199   5.484  11.051 -0.8642  0.2541 -0.3325
11075TIP3    H154716   4.210   5.431  10.972  0.7292  1.8017 -1.2154
11075TIP3    H254717   4.201   5.574  11.020 -2.2023  0.8875  1.2783
11076TIP3   OH254718   3.769   4.234  12.560  0.0225 -0.2129  0.0031
11076TIP3    H154719   3.676   4.253  12.547  0.5904  3.3881  0.1713
11076TIP3    H254720   3.806   4.317  12.591  3.6381 -0.9671 -1.8254
11077TIP3   OH254721   3.192   5.798  16.949 -0.1484 -0.1556 -0.2814
11077TIP3    H154722   3.126   5.821  17.014 -0.2787 -0.9991 -0.1086
11077TIP3    H254723   3.150   5.733  16.893  0.2055  0.0380 -0.7819
11078TIP3   OH254724   4.609   0.387  15.083  0.0093 -0.6426  0.3104
11078TIP3    H154725   4.630   0.372  14.990  0.5146  0.6191  0.2041
11078TIP3    H254726   4.687   0.360  15.130  0.6796  0.9826  0.1670
11079TIP3   OH254727   1.126   2.064   4.658  0.1083  0.1765 -0.4978
11079TIP3    H154728   1.135   2.145   4.609  0.9618 -0.2491 -1.0745
11079TIP3    H254729   1.134   2.089   4.750  1.2123  0.6387 -0.7135
11080TIP3   OH254730   5.174   0.649   2.440  0.2068  0.4499  0.2823
11080TIP3    H154731   5.137   0.663   2.528  0.3310 -1.3510  0.6683
11080TIP3    H254732   5.253   0.702   2.439 -0.3645  1.3386  0.8643
11081TIP3   OH254733   6.303   4.880  16.904  0.1689 -0.7018 -0.0878
11081TIP3    H154734   6.367   4.915  16.966 -0.2076  1.3183 -0.7476
11081TIP3    H254735   6.243   4.953  16.888 -2.9609 -2.7517  1.2874
11082TIP3   OH254736   3.637   0.593   4.838  0.4378 -0.0578  0.2017
11082TIP3    H154737   3.636   0.510   4.886  0.0441 -0.9548 -1.2951
11082TIP3    H254738   3.610   0.658   4.903  0.0764 -1.1889  1.2356
11083TIP3   OH254739   0.249   2.259   3.620 -0.6601  0.3022 -0.4295
11083TIP3    H154740   0.278   2.346   3.596 -1.2230  0.7173  0.3447
11083TIP3    H254741   0.271   2.204   3.544 -1.9789  1.4605 -1.7113
11084TIP3   OH254742   0.197   4.262   4.414  0.5199  0.7061 -0.1016
11084TIP3    H154743   0.105   4.256   4.387  0.3578  0.2556  0.5412
11084TIP3    H254744   0.207   4.352   4.444 -0.6413 -0.1195  3.0956
11085TIP3   OH254745   5.393   0.895   1.334  0.1779  0.1447  0.2240
11085TIP3    H154746   5.474   0.859   1.368  0.9961  2.0632  0.4614
11085TIP3    H254747   5.389   0.865   1.243  1.5737  0.6624 -0.0251
11086TIP3   OH254748   2.509   1.000   6.478 -0.0105  0.3531 -0.0804
11086TIP3    H154749   2.435   1.059   6.462 -0.6782 -0.4535 -0.0265
11086TIP3    H254750   2.476   0.937   6.543  0.9168  0.3399  0.3915
11087TIP3   OH254751   0.728   5.542   5.799 -0.1278  0.3136  0.5395
11087TIP3    H154752   0.812   5.545   5.752 -0.6049 -1.0171 -0.4517
11087TIP3    H254753   0.743   5.479   5.869 -0.1116  0.5694  0.7687
11088TIP3   OH254754   1.804   4.976   4.337 -0.3296 -0.1877 -0.5711
11088TIP3    H154755   1.720   4.947   4.372 -0.1163  0.5049  0.5898
11088TIP3    H254756   1.843   5.028   4.408  2.0839 -2.3134 -0.1907
11089TIP3   OH254757   4.754   5.844  14.826 -0.0262 -0.0271 -0.7620
11089TIP3    H154758   4.817   5.907  14.790 -1.3315  0.9665 -1.3963
11089TIP3    H254759   4.672   5.866  14.782 -0.5426 -2.1245 -0.9145
11090TIP3   OH254760   6.022   6.017  13.679  0.0209  0.1794  0.0483
11090TIP3    H154761   6.062   5.963  13.610 -0.9104 -0.4095 -0.0439
11090TIP3    H254762   6.036   5.967  13.759 -1.9837 -0.8865 -0.2081
11091TIP3   OH254763   2.928   0.527   4.554 -0.4516 -0.2110  0.2005
11091TIP3    H154764   2.931   0.520   4.649  0.3992  0.4361  0.2315
11091TIP3    H254765   3.006   0.577   4.531 -0.0425 -1.3083 -0.9304
11092TIP3   OH254766   0.285   0.214  16.542  0.4896 -0.3612 -0.2731
11092TIP3    H154767   0.347   0.285  16.527 -0.8450  1.0885  0.8273
11092TIP3    H254768   0.246   0.233  16.627 -1.9076 -0.8549 -1.1806
11093TIP3   OH254769   3.291   2.765   2.217  0.3945  0.4673 -0.2607
11093TIP3    H154770   3.212   2.773   2.270 -1.3118  0.1551 -2.6005
11093TIP3    H254771   3.361   2.749   2.281 -1.5156  0.0019  1.8547
11094TIP3   OH254772   1.400   5.735   2.812  0.2402 -0.2037  0.0206
11094TIP3    H154773   1.310   5.722   2.782 -0.1810  1.1033  0.6426
11094TIP3    H254774   1.414   5.829   2.809  0.3577  0.0087  3.2590
11095TIP3   OH254775   4.279   5.794   1.120 -0.0760 -0.2481 -0.0364
11095TIP3    H154776   4.320   5.822   1.039 -0.8187 -1.2057 -0.7682
11095TIP3    H254777   4.223   5.867   1.147 -0.3967 -0.2092 -0.7944
11096TIP3   OH254778   5.979   5.454  11.420 -0.3845  0.1638  0.2754
11096TIP3    H154779   5.883   5.451  11.419 -0.3670 -0.5781  0.0355
11096TIP3    H254780   6.001   5.533  11.372 -0.8447 -0.9424 -1.9188
11097TIP3   OH254781   1.780   4.885  14.397  0.1844 -0.1742 -0.0992
11097TIP3    H154782   1.793   4.791  14.393  2.0396  0.0817 -0.9249
11097TIP3    H254783   1.813   4.918  14.314 -1.4295  1.1228 -0.2761
11098TIP3   OH254784   2.131   6.320   0.938  0.5352 -0.3708  0.6052
11098TIP3    H154785   2.169   6.389   0.992 -0.0181  0.2254  0.2559
11098TIP3    H254786   2.080   6.266   0.998 -2.7234  2.1042  0.3406
11099TIP3   OH254787   6.120   2.788   0.988 -0.3039 -0.3730  0.5558
11099TIP3    H154788   6.136   2.827   0.902 -1.2992  0.0060  0.5302
11099TIP3    H254789   6.200   2.740   1.008  0.4897  0.6983  0.0464
11100TIP3   OH254790   6.139   0.850   4.650 -0.0158  0.2499 -0.4032
11100TIP3    H154791   6.110   0.928   4.601 -0.8053  0.6822  0.7114
11100TIP3    H254792   6.061   0.822   4.697  0.4356 -0.8585 -0.3018
11101TIP3   OH254793   3.341   4.560  16.705 -0.2031  0.4276 -0.1952
11101TIP3    H154794   3.298   4.640  16.674  0.5325  1.3188  1.0136
11101TIP3    H254795   3.299   4.542  16.789 -0.5910 -0.6732 -0.6016
11102TIP3   OH254796   5.721   4.824   0.806  0.3800  0.1078 -0.0543
11102TIP3    H154797   5.731   4.919   0.810 -1.4869  0.3884 -0.7499
11102TIP3    H254798   5.775   4.797   0.732  2.2672  0.3695  1.1817
11103TIP3   OH254799   5.813   2.729  12.296  0.4830  0.2015  0.0882
11103TIP3    H154800   5.721   2.702  12.307  0.3303  0.0945 -1.2588
11103TIP3    H254801   5.817   2.762  12.207  1.2399  2.4095  0.8883
11104TIP3   OH254802   3.624   1.725  12.853 -0.3098  0.1761 -0.1059
11104TIP3    H154803   3.568   1.648  12.862  1.1976 -1.0028 -0.3096
11104TIP3    H254804   3.571   1.798  12.886 -2.4452 -0.6181 -1.5942
11105TIP3   OH254805   1.362   2.695  13.044  0.2508 -0.2669  0.4652
11105TIP3    H154806   1.304   2.652  13.107 -1.2733  1.0088  0.0042
11105TIP3    H254807   1.338   2.788  13.047  3.0304  0.5440  1.0153
11106TIP3   OH254808   0.909   6.177   4.902 -0.7882 -0.0295 -0.1916
11106TIP3    H154809   0.935   6.258   4.945  1.5584 -0.2076 -1.1347
11106TIP3    H254810   0.878   6.204   4.816 -1.4115 -0.0373  0.0226
11107TIP3   OH254811   2.612   0.990   0.403 -0.1408  0.6858  0.3729
11107TIP3    H154812   2.605   1.082   0.428  1.7416  0.8543  0.4265
11107TIP3    H254813   2.536   0.974   0.348 -1.9433  1.5362  2.4789
11108TIP3   OH254814   6.587   2.285  13.645 -0.3395  0.0837  0.7054
11108TIP3    H154815   6.653   2.216  13.648 -1.5371 -1.1068  0.5969
11108TIP3    H254816   6.637   2.366  13.632  1.0483 -0.8297  0.1588
11109TIP3   OH254817   4.276   4.728   4.853  0.0304 -0.4374 -0.0266
11109TIP3    H154818   4.335   4.767   4.917 -1.4273  0.6003  0.7490
11109TIP3    H254819   4.317   4.746   4.768  1.0583 -0.1643  0.5168
11110TIP3   OH254820   6.008   2.939  13.667 -0.0155  0.0681  0.1922
11110TIP3    H154821   6.061   2.874  13.621 -0.6536 -1.4196  1.4523
11110TIP3    H254822   5.920   2.926  13.631 -0.2089 -0.0253  0.6869
11111TIP3   OH254823   4.785   2.170   5.924 -0.3492 -0.2824  0.2887
11111TIP3    H154824   4.794   2.213   5.839 -1.1018 -0.9531 -0.1466
11111TIP3    H254825   4.691   2.175   5.943 -0.2800 -0.7211  0.7660
11112TIP3   OH254826   4.485   3.643  13.231  0.2853 -0.2415 -0.0207
11112TIP3    H154827   4.581   3.649  13.234  0.5706 -1.9601 -2.7882
11112TIP3    H254828   4.455   3.733  13.244  2.4735  1.0311 -2.7826
11113TIP3   OH254829   3.439   3.481   0.094  0.1167 -0.3195 -0.3348
11113TIP3    H154830   3.430   3.399   0.046 -0.6279  0.1136 -0.9574
11113TIP3    H254831   3.461   3.546   0.027  1.2361 -0.0933  0.2249
11114TIP3   OH254832   4.026   6.565  11.371 -0.1905 -0.3136 -0.0818
11114TIP3    H154833   4.058   6.653  11.351  0.8725 -0.7662 -0.4550
11114TIP3    H254834   3.954   6.579  11.432 -0.0932  0.8187 -0.2015
11115TIP3   OH254835   1.265   0.574  10.468  0.8136  0.1112 -0.1969
11115TIP3    H154836   1.232   0.495  10.510 -0.5771  1.6575  1.8179
11115TIP3    H254837   1.357   0.579  10.495 -0.1077  1.2463  3.2970
11116TIP3   OH254838   6.418   0.763  10.483  0.0128 -0.1638 -0.0812
11116TIP3    H154839   6.360   0.839  10.479  1.1548  0.7354 -0.5963
11116TIP3    H254840   6.412   0.724  10.396  0.8199  0.4708 -0.4443
11117TIP3   OH254841   3.284   2.363   3.754 -0.7243  0.0263 -0.4492
11117TIP3    H154842   3.316   2.384   3.842  1.6262  3.3761 -1.8813
11117TIP3    H254843   3.360   2.329   3.708 -1.4404  0.0196 -1.6662
11118TIP3   OH254844   4.601   4.531   4.885  0.0486  0.2196 -0.0351
11118TIP3    H154845   4.515   4.520   4.924  0.0493  1.2783  0.2934
11118TIP3    H254846   4.590   4.501   4.794  0.3575 -3.4349  0.9696
11119TIP3   OH254847   6.381   2.571  13.414 -0.2179 -0.4841 -0.1438
11119TIP3    H154848   6.296   2.552  13.454  0.2708 -0.3052  0.9994
11119TIP3    H254849   6.425   2.486  13.409  1.2821 -0.0914  3.3955
11120TIP3   OH254850   6.140   5.547  14.505 -0.7211  0.4072  0.3193
11120TIP3    H154851   6.077   5.609  14.468  0.0033  1.4194  0.7558
11120TIP3    H254852   6.127   5.553  14.599 -0.5657 -0.0332  0.3714
11121TIP3   OH254853   3.631   5.157  13.757  0.5025  0.4342 -0.2438
11121TIP3    H154854   3.607   5.250  13.766 -1.5097  0.0290 -0.9889
11121TIP3    H254855   3.623   5.122  13.846 -2.2604  0.2286 -0.5073
11122TIP3   OH254856   0.220   3.510   3.498 -0.6191 -0.1865 -0.3749
11122TIP3    H154857   0.313   3.497   3.517 -0.6352  0.5080  0.1863
11122TIP3    H254858   0.219   3.543   3.407 -0.2849  0.2116 -0.2384
11123TIP3   OH254859   5.959   5.544   5.558 -0.0864  0.8419  0.1391
11123TIP3    H154860   5.931   5.483   5.626 -0.2644  0.6995 -0.0600
11123TIP3    H254861   5.922   5.508   5.477  2.2041 -0.3607 -0.4332
11124TIP3   OH254862   4.529   3.528  14.990 -0.2199  0.4494 -0.0452
11124TIP3    H154863   4.521   3.445  15.037  1.4739 -1.4154 -2.7719
11124TIP3    H254864   4.466   3.522  14.918 -1.3843  2.3941  0.7324
11125TIP3   OH254865   6.042   6.547  12.080 -0.6274  0.2036 -0.1385
11125TIP3    H154866   6.086   6.627  12.108 -1.5885  0.4009  0.8618
11125TIP3    H254867   6.036   6.494  12.159 -2.0425  0.1299 -0.2715
11126TIP3   OH254868   4.391   1.216   4.379 -0.3547 -0.0627  0.4600
11126TIP3    H154869   4.342   1.214   4.461  1.0775 -1.0600  1.3403
11126TIP3    H254870   4.481   1.195   4.404  0.9030  3.0469 -0.8877
11127TIP3   OH254871   0.238   2.097   4.669  0.2128  0.4825  0.0079
11127TIP3    H154872   0.309   2.162   4.672  1.8874 -1.2864  1.5683
11127TIP3    H254873   0.264   2.038   4.598 -0.0158  0.1671  0.1851
11128TIP3   OH254874   4.664   6.767   4.403 -0.3793  0.4247  0.0577
11128TIP3    H154875   4.754   6.768   4.370  0.1130 -1.3166  1.2148
11128TIP3    H254876   4.620   6.700   4.350 -0.8001  0.7709 -0.0335
11129TIP3   OH254877   4.879   6.423   6.512  0.2039 -0.0325  1.0695
11129TIP3    H154878   4.818   6.480   6.558 -1.1547 -1.3025  0.9242
11129TIP3    H254879   4.824   6.354   6.475  1.6703 -0.9226  0.4475
11130TIP3   OH254880   6.751   6.699  15.578  1.0004 -0.4940  0.0717
11130TIP3    H154881   6.705   6.683  15.660  0.5090 -1.8512 -0.4376
11130TIP3    H254882   6.819   6.631  15.575  0.0839 -1.3905 -1.2989
11131TIP3   OH254883   6.666   6.621  16.286 -0.1900  0.0235  0.0915
11131TIP3    H154884   6.737   6.570  16.247  0.9788  0.9660  0.9157
11131TIP3    H254885   6.657   6.585  16.375  0.8202  1.3608  0.7697
11132TIP3   OH254886   5.300   1.628  11.312  0.0301  0.1889  0.2307
11132TIP3    H154887   5.278   1.715  11.279 -1.0105  0.3084  1.1967
11132TIP3    H254888   5.317   1.641  11.405  1.4417 -0.3959  0.0784
11133TIP3   OH254889   3.921   5.189   1.959  0.5359  0.1870 -0.1864
11133TIP3    H154890   3.957   5.278   1.951  0.1405  0.2022 -2.4139
11133TIP3    H254891   3.936   5.150   1.873 -0.3888 -1.5087  0.3887
11134TIP3   OH254892   6.029   6.299   4.784 -0.2791 -0.3262  0.2711
11134TIP3    H154893   5.935   6.316   4.781 -0.2652  1.0411  3.4349
11134TIP3    H254894   6.069   6.383   4.762  0.1581 -0.5323  0.2704
11135TIP3   OH254895   6.418   5.517  12.198  0.5225  0.3965 -0.2305
11135TIP3    H154896   6.512   5.523  12.183  0.3618  0.7157 -1.2337
11135TIP3    H254897   6.409   5.457  12.272  1.3698 -3.4091 -2.8586
11136TIP3   OH254898   3.756   2.809  13.742  0.5631 -0.0778  0.3401
11136TIP3    H154899   3.781   2.746  13.810  0.5638  1.7053  2.0598
11136TIP3    H254900   3.678   2.769  13.701  1.0155 -1.5432  0.8360
11137TIP3   OH254901   4.813   6.122  12.370  0.2146  0.4323  0.1512
11137TIP3    H154902   4.892   6.090  12.326  0.1778  1.3439 -0.6095
11137TIP3    H254903   4.847   6.185  12.435  0.2587 -0.8011  1.3681
11138TIP3   OH254904   0.840   1.421  11.591  0.2501  0.9024 -0.0160
11138TIP3    H154905   0.909   1.481  11.621  1.2293  0.6069 -1.5752
11138TIP3    H254906   0.773   1.426  11.659  1.6814  1.4103  1.4139
11139TIP3   OH254907   5.354   1.258   0.026 -0.4680  0.3202  0.5242
11139TIP3    H154908   5.430   1.297   0.069  3.0920 -2.8074 -2.1752
11139TIP3    H254909   5.332   1.318  -0.045  0.2452  0.7186  0.6351
11140TIP3   OH254910   4.923   6.650  14.573  0.5729 -0.4102  0.9075
11140TIP3    H154911   4.983   6.577  14.561  0.1055 -1.0621  2.3691
11140TIP3    H254912   4.959   6.719  14.516  0.5997 -1.9680 -1.0782
11141TIP3   OH254913   1.970   3.111  12.922 -0.3246  0.1540  0.5433
11141TIP3    H154914   2.000   3.131  13.011 -0.1463  1.0804  0.2929
11141TIP3    H254915   1.877   3.091  12.932  0.1537 -2.0444  1.2358
11142TIP3   OH254916   4.706   2.709   3.939  0.3582  0.0316  0.5624
11142TIP3    H154917   4.746   2.667   4.015  0.8027  0.1760  0.4101
11142TIP3    H254918   4.639   2.647   3.910 -0.1874  0.2109  1.3914
11143TIP3   OH254919   5.267   5.300   6.595  0.0287  0.2154 -0.5409
11143TIP3    H154920   5.340   5.238   6.585  0.8612  0.5558  2.3014
11143TIP3    H254921   5.306   5.386   6.577  0.8427  0.5505  2.2872
11144TIP3   OH254922   1.404   3.049  17.110  0.5313  0.5323  0.5573
11144TIP3    H154923   1.395   3.143  17.093  1.3268  0.6045  0.4723
11144TIP3    H254924   1.331   3.028  17.167 -0.1915  1.0108 -0.1630
11145TIP3   OH254925   1.554   6.174  13.434 -0.2363  0.3528 -0.2488
11145TIP3    H154926   1.489   6.197  13.501 -0.1467  1.1791 -0.4355
11145TIP3    H254927   1.521   6.092  13.396  0.2153 -0.6722  1.4572
11146TIP3   OH254928   3.517   3.803  15.129 -0.0134  0.1159  0.0150
11146TIP3    H154929   3.563   3.748  15.191 -1.2962  1.8210  2.6627
11146TIP3    H254930   3.433   3.759  15.114 -0.8265  0.9942  1.7277
11147TIP3   OH254931   6.785   2.003   1.287  0.3845 -0.7721  0.4644
11147TIP3    H154932   6.692   2.026   1.288 -0.0492 -2.3832  0.3205
11147TIP3    H254933   6.807   1.996   1.194  0.1117 -2.2625  0.4800
11148TIP3   OH254934   0.066   4.045   5.824  0.5769 -0.4433  0.0663
11148TIP3    H154935   0.031   4.104   5.756 -1.1639 -0.6140  0.7532
11148TIP3    H254936   0.060   4.095   5.905  1.1063 -0.8167  0.3414
11149TIP3   OH254937   4.964   3.767   0.321 -0.1400  0.5155  0.0354
11149TIP3    H154938   4.951   3.858   0.294 -0.4701  0.1639 -1.0477
11149TIP3    H254939   4.988   3.773   0.414  3.3396  1.9718 -0.7906
11150TIP3   OH254940   1.766   2.524   5.031 -0.1073  0.1381  0.5416
11150TIP3    H154941   1.694   2.462   5.025 -1.3700  1.5311  0.6297
11150TIP3    H254942   1.731   2.597   5.082  1.2262  1.0335  0.2383
11151TIP3   OH254943   2.486   4.689   0.232  0.1899  0.4383 -0.0656
11151TIP3    H154944   2.505   4.652   0.319  2.9629  2.3021  0.2534
11151TIP3    H254945   2.394   4.714   0.236 -0.8921 -3.1129  0.8570
11152TIP3   OH254946   2.276   4.149  12.736 -0.0362 -0.1904  0.4950
11152TIP3    H154947   2.191   4.144  12.693  0.6375  0.8604 -1.0551
11152TIP3    H254948   2.331   4.089  12.686  0.3269 -0.2932  1.0123
11153TIP3   OH254949   0.149   6.332   5.170  0.3005 -0.3451  0.1034
11153TIP3    H154950   0.112   6.377   5.094 -0.9401  0.0222  0.8914
11153TIP3    H254951   0.076   6.281   5.205  0.3210  0.8686  2.0545
11154TIP3   OH254952   6.178   1.062  15.426  0.0162 -0.1305 -0.1279
11154TIP3    H154953   6.160   1.156  15.432  1.5239  0.0783  1.9078
11154TIP3    H254954   6.133   1.035  15.346  0.1189  2.4495 -1.1669
11155TIP3   OH254955   4.789   5.707  12.072  0.1403  0.0488  0.3804
11155TIP3    H154956   4.860   5.702  12.136  0.2417  0.7171  0.3319
11155TIP3    H254957   4.717   5.657  12.112  1.0880 -1.8918 -0.2064
11156TIP3   OH254958   5.915   3.745   0.222 -0.1126  0.5286  0.1138
11156TIP3    H154959   5.944   3.832   0.193 -0.2640  0.6008  0.1739
11156TIP3    H254960   5.833   3.762   0.268 -2.1574 -0.0053 -3.0158
11157TIP3   OH254961   1.054   6.790   2.908 -0.2537  0.3811  0.0616
11157TIP3    H154962   1.079   6.758   2.821 -0.9780 -1.2154  0.3884
11157TIP3    H254963   1.137   6.806   2.953  0.1239  1.0363 -0.8468
11158TIP3   OH254964   1.787   6.555  13.604 -0.1436  0.2460 -0.0340
11158TIP3    H154965   1.720   6.593  13.661 -0.4844 -1.5442  0.8562
11158TIP3    H254966   1.737   6.507  13.538  0.2671  1.5440 -1.3356
11159TIP3   OH254967   5.068   3.176  13.944  0.4427 -0.7442 -0.5069
11159TIP3    H154968   4.998   3.118  13.914  1.3243 -1.1436 -1.8331
11159TIP3    H254969   5.025   3.261  13.954 -0.5939 -1.3275  0.3048
11160TIP3   OH254970   1.142   1.611  15.107  0.3548  0.4613  0.1579
11160TIP3    H154971   1.087   1.689  15.101  0.6187  0.8502  2.0508
11160TIP3    H254972   1.080   1.538  15.102 -0.0568  0.8298 -0.1896
11161TIP3   OH254973   5.736   2.026  10.762  0.0457 -0.2221  0.7848
11161TIP3    H154974   5.661   1.973  10.789  1.0868 -0.9586  2.3988
11161TIP3    H254975   5.812   1.970  10.780  1.0078  0.6339 -0.4949
11162TIP3   OH254976   1.222   4.089   5.364  0.1929 -0.2176  0.0527
11162TIP3    H154977   1.181   4.175   5.376  0.2591 -0.1464 -0.2105
11162TIP3    H254978   1.149   4.032   5.340 -0.2165 -0.7257  2.2882
11163TIP3   OH254979   2.519   2.981  15.955  0.1308 -0.3591 -0.2481
11163TIP3    H154980   2.594   2.983  15.895  0.9433 -1.4887  0.7052
11163TIP3    H254981   2.551   3.022  16.035 -0.0076 -1.5407  0.4321
11164TIP3   OH254982   2.442   6.476  12.907  0.3609 -0.4697 -0.2687
11164TIP3    H154983   2.502   6.407  12.879  2.4107 -0.8562  4.2072
11164TIP3    H254984   2.357   6.432  12.917  0.6643 -1.3116 -1.2472
11165TIP3   OH254985   1.716   0.412   1.397 -0.2148  0.5332 -0.2474
11165TIP3    H154986   1.716   0.493   1.346 -0.9767  0.1903 -0.8094
11165TIP3    H254987   1.642   0.422   1.458  0.8490  1.0560  1.0170
11166TIP3   OH254988   3.412   1.658   4.845 -0.0879  0.3531 -0.5481
11166TIP3    H154989   3.366   1.576   4.862 -0.7672  0.9089  0.3480
11166TIP3    H254990   3.454   1.644   4.760  0.4069 -1.1820 -0.0941
11167TIP3   OH254991   0.757   1.318  16.840 -0.3248 -0.0653 -0.3694
11167TIP3    H154992   0.764   1.408  16.808 -1.0979 -0.2191 -1.0029
11167TIP3    H254993   0.750   1.326  16.935 -1.0552  0.5923 -0.4725
11168TIP3   OH254994   3.955   4.303   1.559  0.1554 -0.2200  0.4491
11168TIP3    H154995   4.040   4.262   1.544 -0.2042 -0.8764  0.1251
11168TIP3    H254996   3.892   4.239   1.526 -0.4132  0.7334 -0.3737
11169TIP3   OH254997   3.752   2.670   0.399 -0.1061 -0.2962 -0.5079
11169TIP3    H154998   3.710   2.756   0.387 -0.5482 -0.1850  1.5807
11169TIP3    H254999   3.845   2.687   0.383 -0.1263  0.6834  0.3200
11170TIP3   OH255000   2.352   6.054   4.505 -0.3729  0.2800  0.2996
11170TIP3    H155001   2.355   6.116   4.431 -0.1287 -0.0496  0.0285
11170TIP3    H255002   2.426   6.079   4.560  0.0819 -0.1274 -0.1089
11171TIP3   OH255003   6.145   3.409   3.752  0.3107 -0.2879 -0.2853
11171TIP3    H155004   6.152   3.484   3.693 -2.1109 -0.8442 -1.3930
11171TIP3    H255005   6.060   3.421   3.795  0.7322 -1.4384  0.9195
11172TIP3   OH255006   6.499   2.458  14.981  0.0134 -0.3967  0.3867
11172TIP3    H155007   6.545   2.527  14.934  0.6214 -0.2335  1.1970
11172TIP3    H255008   6.465   2.501  15.059  0.5771 -1.0420  1.0051
11173TIP3   OH255009   6.825   3.580  13.815 -0.1368 -0.0879  0.2796
11173TIP3    H155010   6.917   3.559  13.832 -0.2531  0.0400  1.1060
11173TIP3    H255011   6.825   3.674  13.796 -0.1436 -0.0122  0.6494
11174TIP3   OH255012   4.451   6.484  14.754  0.4284  0.3136  0.0582
11174TIP3    H155013   4.541   6.507  14.733  0.4102  0.4186  0.0953
11174TIP3    H255014   4.442   6.500  14.848  0.4210  0.1355  0.0889
11175TIP3   OH255015   3.175   5.567  16.517 -0.2164  0.4879 -0.0606
11175TIP3    H155016   3.164   5.662  16.523 -0.3997  0.4109  0.9482
11175TIP3    H255017   3.201   5.552  16.426 -0.2957  1.4906 -0.2631
11176TIP3   OH255018   1.364   4.953   2.595 -0.0420 -0.1871 -0.6683
11176TIP3    H155019   1.435   4.922   2.538  1.3804  0.1333  0.8458
11176TIP3    H255020   1.402   4.953   2.683 -0.5520  3.7419 -0.2371
11177TIP3   OH255021   4.276   2.139   0.489  0.1414 -0.1919 -0.1635
11177TIP3    H155022   4.272   2.229   0.519  1.0966 -0.1210 -0.2069
11177TIP3    H255023   4.310   2.090   0.565 -3.1340 -1.0468  0.9033
11178TIP3   OH255024   1.743   4.189  12.956  0.7371 -0.9727  0.0225
11178TIP3    H155025   1.721   4.142  12.875 -0.2525 -1.5384  0.6001
11178TIP3    H255026   1.838   4.199  12.952  0.5671  0.3214 -1.8954
11179TIP3   OH255027   1.772   6.490  14.692 -0.1570 -0.2117 -0.1153
11179TIP3    H155028   1.693   6.437  14.676  0.7495 -1.2790 -1.3210
11179TIP3    H255029   1.835   6.428  14.729  0.0043  0.7247  1.2099
11180TIP3   OH255030   3.951   4.000   1.739  0.2386  0.2221 -0.3414
11180TIP3    H155031   3.937   3.905   1.745  1.8911 -0.0313  0.0962
11180TIP3    H255032   3.872   4.033   1.697  0.4320 -1.5923 -2.3197
11181TIP3   OH255033   2.377   0.015  15.988 -1.3319  0.1416  0.8721
11181TIP3    H155034   2.469   0.042  15.982 -2.1060  2.6827 -1.4694
11181TIP3    H255035   2.363  -0.001  16.081  1.8675 -2.0633  1.1227
11182TIP3   OH255036   2.774   4.230  13.215 -0.2190  0.0243  0.3787
11182TIP3    H155037   2.825   4.294  13.265  2.3407  0.0323 -1.9759
11182TIP3    H255038   2.710   4.283  13.167  0.6601  0.6385 -0.1468
11183TIP3   OH255039   1.224   0.606  12.170 -0.4540  0.1782  0.1877
11183TIP3    H155040   1.201   0.586  12.079  1.7079  0.2932 -0.4196
11183TIP3    H255041   1.155   0.563  12.221 -0.5796 -1.6622 -1.4051
11184TIP3   OH255042   3.646   0.944   5.672 -0.0044 -0.2426  0.2385
11184TIP3    H155043   3.648   0.869   5.732 -0.3489  0.6452  1.3977
11184TIP3    H255044   3.599   1.012   5.720  0.0736  0.6436 -0.8919
11185TIP3   OH255045   3.551   6.101   5.436 -0.4586 -0.0456  0.0554
11185TIP3    H155046   3.524   6.024   5.384 -0.7863  0.0521  0.0752
11185TIP3    H255047   3.525   6.176   5.382  0.0650  0.0495 -0.0638
11186TIP3   OH255048   6.561   2.024  16.077  0.7588 -0.2390  0.0535
11186TIP3    H155049   6.529   2.109  16.046  0.1826  0.1224  1.5906
11186TIP3    H255050   6.492   1.962  16.054  0.9398 -0.2214 -0.5740
11187TIP3   OH255051   0.568   1.249  11.236 -0.3014 -0.2447  0.0120
11187TIP3    H155052   0.569   1.164  11.280  1.1234 -0.2844 -0.0468
11187TIP3    H255053   0.559   1.228  11.143  1.6683 -0.4551 -0.1664
11188TIP3   OH255054   1.616   5.416   3.641 -0.3365 -0.6129  0.5071
11188TIP3    H155055   1.528   5.401   3.675 -0.9450 -0.5855 -1.0093
11188TIP3    H255056   1.609   5.493   3.586  0.6910 -0.4694  0.5492
11189TIP3   OH255057   1.670   0.625  15.416 -0.2036  0.1775  0.4846
11189TIP3    H155058   1.588   0.622  15.464  0.2621 -0.8011  1.2447
11189TIP3    H255059   1.650   0.587  15.331 -0.9020  1.4157  0.0635
11190TIP3   OH255060   2.344   4.579   4.164  0.0717 -0.2502 -0.0130
11190TIP3    H155061   2.315   4.669   4.148  1.5309 -0.0257 -1.5919
11190TIP3    H255062   2.276   4.542   4.220  0.1330  2.2475  1.8763
11191TIP3   OH255063   5.545   2.191   5.016 -0.3134 -0.1834  0.3816
11191TIP3    H155064   5.566   2.178   5.109  1.1376  0.4071  0.1602
11191TIP3    H255065   5.523   2.104   4.984 -0.6202 -0.4257  1.2278
11192TIP3   OH255066   4.251   6.615   5.780 -0.3112  0.5410 -0.1973
11192TIP3    H155067   4.244   6.678   5.708 -1.6973 -0.1904 -0.7395
11192TIP3    H255068   4.180   6.553   5.765  2.0518 -2.2823 -0.7304
11193TIP3   OH255069   6.220   1.476  11.553  0.4077  0.5184  0.1471
11193TIP3    H155070   6.308   1.450  11.524  0.2049  2.1596 -2.2433
11193TIP3    H255071   6.235   1.523  11.635  1.5361 -0.6396  0.6552
11194TIP3   OH255072   3.795   2.790  10.961 -0.7225  0.3548 -0.5690
11194TIP3    H155073   3.714   2.841  10.962 -0.3340  1.0742  1.7428
11194TIP3    H255074   3.846   2.826  10.888 -0.8456  2.7268  0.4311
11195TIP3   OH255075   6.827   6.520  11.961  0.1129 -0.7913 -0.7252
11195TIP3    H155076   6.901   6.472  11.998  0.4284 -0.9696 -1.5570
11195TIP3    H255077   6.766   6.451  11.932 -0.7182 -0.6431  0.5859
11196TIP3   OH255078   2.478   4.030  12.577  0.5327 -0.4923  0.3132
11196TIP3    H155079   2.395   4.006  12.536 -0.7985  1.9739  1.3355
11196TIP3    H255080   2.511   4.103  12.525  0.8416  0.0606  1.2526
11197TIP3   OH255081   0.115   3.294  11.192  0.0761  0.2491  0.0902
11197TIP3    H155082   0.171   3.252  11.257  1.8929 -1.8218 -2.5757
11197TIP3    H255083   0.050   3.227  11.170  0.4463  0.3062 -1.2724
11198TIP3   OH255084   5.848   4.783  11.399 -0.3576  0.1794  0.1947
11198TIP3    H155085   5.905   4.859  11.390  0.5443 -0.5765 -0.7926
11198TIP3    H255086   5.759   4.818  11.396  0.0450  1.1834 -0.3177
11199TIP3   OH255087   5.828   3.890  16.460 -0.8926  1.1682 -0.0243
11199TIP3    H155088   5.904   3.936  16.424 -1.1479  0.4492 -1.5245
11199TIP3    H255089   5.812   3.934  16.544 -0.1645  2.7532 -0.6678
11200TIP3   OH255090   1.679   6.501   1.660  0.1299 -0.2649  0.5813
11200TIP3    H155091   1.621   6.568   1.695 -1.1150 -0.2723 -1.2969
11200TIP3    H255092   1.766   6.524   1.693 -0.5591  1.1672  1.4785
11201TIP3   OH255093   4.197   0.383   0.162  0.2577 -0.1562  0.2531
11201TIP3    H155094   4.199   0.292   0.134 -0.8879 -0.2875  0.5499
11201TIP3    H255095   4.287   0.414   0.150  0.6971 -1.3669  0.3113
11202TIP3   OH255096   5.769   5.122   5.735  0.7844 -0.6118  0.0157
11202TIP3    H155097   5.710   5.149   5.805  1.9164  0.8959  0.4449
11202TIP3    H255098   5.812   5.043   5.769  1.0099 -0.1389  0.8595
11203TIP3   OH255099   5.985   2.441   4.570 -0.4872  0.0588 -0.4680
11203TIP3    H155100   5.927   2.376   4.610 -0.7864  0.6381  0.0722
11203TIP3    H255101   6.062   2.442   4.626 -0.3916  0.0172 -0.5992
11204TIP3   OH255102   4.655   4.380  17.110  0.1331  0.0730 -0.1705
11204TIP3    H155103   4.734   4.327  17.099 -0.0090 -0.5191  1.3795
11204TIP3    H255104   4.603   4.363  17.032  1.1871 -0.1619 -0.8321
11205TIP3   OH255105   5.581   5.156  12.253  0.4805  0.6003 -0.4569
11205TIP3    H155106   5.627   5.238  12.242 -0.4340  1.2673  0.4508
11205TIP3    H255107   5.512   5.175  12.317  0.1181 -0.8128 -0.3741
11206TIP3   OH255108   0.679   1.264   1.230  0.1033  0.2692 -0.2455
11206TIP3    H155109   0.629   1.191   1.268  0.3070 -0.2055 -0.8808
11206TIP3    H255110   0.764   1.227   1.210  0.2500  0.7202 -0.4659
11207TIP3   OH255111   1.803   3.299   3.936  0.2801 -0.0759  0.3694
11207TIP3    H155112   1.764   3.295   4.023 -0.3940  0.3617  0.0948
11207TIP3    H255113   1.857   3.378   3.938 -0.4944  0.4755  0.0953
11208TIP3   OH255114   1.264   2.604  14.858  0.2127 -0.1028 -0.6122
11208TIP3    H155115   1.301   2.540  14.798 -1.5446 -0.0726 -1.7994
11208TIP3    H255116   1.318   2.682  14.846  0.8459 -0.5869 -0.9797
11209TIP3   OH255117   5.840   4.055   3.430 -0.0392 -0.6090 -0.4434
11209TIP3    H155118   5.761   4.087   3.386 -0.0897 -0.9994 -0.6419
11209TIP3    H255119   5.866   4.127   3.488  0.9543  0.5948 -2.2713
11210TIP3   OH255120   4.881   6.761   2.551 -0.1706  0.2230 -0.1087
11210TIP3    H155121   4.951   6.715   2.597  0.2493 -0.9628 -1.8585
11210TIP3    H255122   4.802   6.739   2.600  0.3303 -0.6130  0.3435
11211TIP3   OH255123   2.395   0.055   0.526  0.1769  0.2828  0.2069
11211TIP3    H155124   2.396   0.002   0.446 -0.2152 -0.8700  0.9539
11211TIP3    H255125   2.465   0.019   0.580 -1.3147 -0.7679  1.5206
11212TIP3   OH255126   3.371   5.912   5.327 -0.3058  0.0859  0.2001
11212TIP3    H155127   3.298   5.956   5.284  0.6207  0.8434 -0.6188
11212TIP3    H255128   3.420   5.871   5.256 -0.0255 -0.5868  0.7639
11213TIP3   OH255129   6.145   1.900  13.395 -0.3045 -0.1242 -0.4018
11213TIP3    H155130   6.158   1.805  13.398  0.8105  0.0355  1.9933
11213TIP3    H255131   6.224   1.937  13.434 -0.4938  1.8576 -1.7277
11214TIP3   OH255132   3.816   0.464   5.594  1.0707  0.6645 -0.0794
11214TIP3    H155133   3.739   0.513   5.567  0.8829  0.4740  0.1157
11214TIP3    H255134   3.807   0.380   5.550  1.1174  0.6052  0.0266
11215TIP3   OH255135   3.442   5.209   5.162  0.5211 -0.3720 -0.0415
11215TIP3    H155136   3.499   5.211   5.239 -0.0337 -0.7301  0.3876
11215TIP3    H255137   3.434   5.116   5.141  0.3064 -0.3052 -0.2587
11216TIP3   OH255138   3.032   2.964   3.351 -0.0842 -0.0586 -0.0054
11216TIP3    H155139   2.955   2.907   3.359  0.4342 -0.6631  0.7944
11216TIP3    H255140   2.997   3.045   3.314 -0.7249 -1.1130 -1.8414
11217TIP3   OH255141   2.284   6.053   5.315  0.5094  0.2328  0.2315
11217TIP3    H155142   2.319   5.989   5.377 -0.6709  0.1954  0.8868
11217TIP3    H255143   2.285   6.008   5.231  0.1909 -0.4666  0.5919
11218TIP3   OH255144   0.148   4.393   4.682 -0.1696  0.0658 -0.6909
11218TIP3    H155145   0.104   4.314   4.650 -1.4152 -0.2621  1.6341
11218TIP3    H255146   0.086   4.433   4.743  0.7566  2.4398 -1.1842
11219TIP3   OH255147   3.436   2.940  11.454  0.5028  0.5140 -0.7118
11219TIP3    H155148   3.380   2.902  11.522  1.4777 -0.3963 -0.3793
11219TIP3    H255149   3.388   3.016  11.422 -1.0324 -0.3862 -0.6271
11220TIP3   OH255150   5.060   4.461  14.756 -0.1176 -0.4161  0.1749
11220TIP3    H155151   5.062   4.401  14.830  1.5077 -0.2740  0.2933
11220TIP3    H255152   5.034   4.545  14.794  1.7467 -0.0889  0.8398
11221TIP3   OH255153   2.645   0.962   2.004  0.2329  0.4494  0.5849
11221TIP3    H155154   2.584   1.010   1.948 -1.0980  0.2274  1.7986
11221TIP3    H255155   2.613   0.976   2.093  1.8342  0.1306  1.2488
11222TIP3   OH255156   5.738   0.393   4.294  0.8956  0.3899  0.6215
11222TIP3    H155157   5.810   0.393   4.230  0.6084  3.1658  0.1945
11222TIP3    H255158   5.660   0.375   4.242  0.7489  1.9751  0.2463
11223TIP3   OH255159   0.516   0.937   5.797  0.0020 -0.1389 -0.3418
11223TIP3    H155160   0.435   0.890   5.816 -0.4462  0.7537  0.0185
11223TIP3    H255161   0.581   0.897   5.855 -0.7262  0.7034  1.1025
11224TIP3   OH255162   2.815   6.277   4.513 -0.4181 -0.3100  0.3431
11224TIP3    H155163   2.842   6.240   4.429 -0.9901 -1.2528  0.5634
11224TIP3    H255164   2.789   6.367   4.492  0.3579 -0.2253 -0.3131
11225TIP3   OH255165   0.438   3.957   0.010 -0.2573 -0.6909 -0.1784
11225TIP3    H155166   0.445   3.996   0.097  0.6992 -2.9611  0.8514
11225TIP3    H255167   0.353   3.988  -0.023 -0.3188  0.8045  1.2265
11226TIP3   OH255168   4.454   3.041  12.201  0.2990  0.2338  0.5938
11226TIP3    H155169   4.543   3.011  12.185  0.1062 -0.5768  0.9888
11226TIP3    H255170   4.404   3.005  12.127 -0.0700 -1.1034  1.4545
11227TIP3   OH255171   5.304   3.138   1.439 -0.1384  0.0029  0.5178
11227TIP3    H155172   5.361   3.114   1.366  0.9874 -0.2033  1.4373
11227TIP3    H255173   5.260   3.056   1.463 -1.5386  0.3352 -0.7537
11228TIP3   OH255174   6.049   1.345  14.730  0.1123 -0.1823 -0.1741
11228TIP3    H155175   5.974   1.386  14.687  0.2464  1.7551  1.3146
11228TIP3    H255176   6.014   1.314  14.814  0.3822 -1.8270 -0.6187
11229TIP3   OH255177   1.245   5.011  10.420 -0.2066  0.2444 -0.1973
11229TIP3    H155178   1.313   4.991  10.356  0.8190 -2.4866  1.5678
11229TIP3    H255179   1.291   5.058  10.489 -0.5016  0.0467  0.1349
11230TIP3   OH255180   2.055   2.600  15.604 -0.6380 -0.1664 -0.4723
11230TIP3    H155181   1.963   2.619  15.623 -0.4193  0.4686 -0.0122
11230TIP3    H255182   2.104   2.655  15.665  0.0408 -1.1742 -0.0683
11231TIP3   OH255183   4.696   2.316   3.880 -0.5601  0.1039 -0.0244
11231TIP3    H155184   4.780   2.340   3.838 -0.5547 -2.2491 -1.5585
11231TIP3    H255185   4.708   2.339   3.972  0.6411  2.5471 -0.6913
11232TIP3   OH255186   6.421   6.077   0.225 -0.3125  0.6127 -0.4663
11232TIP3    H155187   6.365   6.059   0.149 -2.2886  0.1071  1.0047
11232TIP3    H255188   6.510   6.060   0.195 -1.1062 -0.2801 -2.4498
11233TIP3   OH255189   1.659   4.872  16.617  0.0567 -0.4978 -0.5535
11233TIP3    H155190   1.671   4.777  16.621  1.1965 -0.3436  0.3771
11233TIP3    H255191   1.604   4.892  16.693  1.2782 -0.2503  0.3035
11234TIP3   OH255192   2.250   0.721  15.984  0.2165  0.6829 -0.1387
11234TIP3    H155193   2.191   0.655  15.944  1.4450 -0.3607 -0.2964
11234TIP3    H255194   2.299   0.756  15.910  0.7568  0.5493  0.1567
11235TIP3   OH255195   6.833   5.439   3.356 -0.3641 -0.4423  0.0696
11235TIP3    H155196   6.838   5.350   3.320 -0.2457 -0.1946 -0.5339
11235TIP3    H255197   6.923   5.470   3.356 -0.5668  0.2193 -1.1285
11236TIP3   OH255198   2.873   6.586  12.825 -0.3071 -0.0246 -0.1770
11236TIP3    H155199   2.934   6.568  12.897 -1.0061  1.2055  0.7581
11236TIP3    H255200   2.788   6.559  12.859 -0.7202  1.0369 -0.3489
11237TIP3   OH255201   1.458   0.096  15.264  0.4161  0.4880 -0.6323
11237TIP3    H155202   1.527   0.056  15.211  1.7132  0.9664  0.6265
11237TIP3    H255203   1.384   0.105  15.204  1.4602  0.0189 -2.0559
11238TIP3   OH255204   1.187   3.426   3.495 -0.4468  0.6685  0.4250
11238TIP3    H155205   1.226   3.350   3.452 -3.2393 -1.0574  0.6709
11238TIP3    H255206   1.226   3.501   3.451  1.6109 -0.8903 -0.5989
11239TIP3   OH255207   6.333   3.364  16.579  0.2641 -0.8347 -0.0817
11239TIP3    H155208   6.417   3.326  16.605  1.4232 -0.0176 -2.3284
11239TIP3    H255209   6.352   3.456  16.562 -1.2156 -0.5072 -0.1466
11240TIP3   OH255210   4.778   2.829  13.954 -0.4594  0.3875  0.4592
11240TIP3    H155211   4.682   2.824  13.956 -0.4429  0.0592  0.5583
11240TIP3    H255212   4.805   2.808  14.043 -0.1833 -2.5576 -0.2087
11241TIP3   OH255213   2.136   2.548   5.633 -0.1465 -0.4041  0.0962
11241TIP3    H155214   2.209   2.508   5.681  0.4064 -0.1414 -0.5088
11241TIP3    H255215   2.072   2.477   5.623  0.2913 -0.8023  0.1059
11242TIP3   OH255216   3.481   5.619   4.735  0.5807  0.4229 -0.2598
11242TIP3    H155217   3.434   5.662   4.807 -0.2383 -0.6552 -0.1227
11242TIP3    H255218   3.412   5.580   4.681  1.2819 -0.9766 -0.2023
11243TIP3   OH255219   6.383   3.040   2.087  0.8937  0.2302  0.4385
11243TIP3    H155220   6.293   3.035   2.055  1.1414 -0.7791 -0.1749
11243TIP3    H255221   6.413   3.127   2.061  0.2831  0.3502  0.1072
11244TIP3   OH255222   3.688   2.025   6.169 -0.1165  0.3768  0.4998
11244TIP3    H155223   3.593   2.029   6.173 -0.1018  0.8005  0.5111
11244TIP3    H255224   3.707   1.966   6.096 -0.3924  0.8899  0.0000
11245TIP3   OH255225   0.338   1.258  13.093  0.0056  0.6402 -0.6771
11245TIP3    H155226   0.321   1.194  13.162 -0.2777 -0.7052 -1.9493
11245TIP3    H255227   0.285   1.228  13.018  2.4282  0.3920 -2.4159
11246TIP3   OH255228   3.575   3.357  11.697 -0.0965  0.3493  0.0906
11246TIP3    H155229   3.641   3.363  11.766  0.0563  2.1423 -0.1467
11246TIP3    H255230   3.493   3.382  11.741 -0.0586  1.1446 -0.2668
11247TIP3   OH255231   5.377   1.403  13.385 -0.0234 -0.0138 -0.2495
11247TIP3    H155232   5.437   1.328  13.383 -1.6568 -1.4453  1.4335
11247TIP3    H255233   5.425   1.470  13.434  1.1586 -0.1728 -1.1227
11248TIP3   OH255234   0.402   5.376  16.402  0.1727  0.2337  0.5545
11248TIP3    H155235   0.450   5.416  16.474  0.4474  2.5412 -0.8216
11248TIP3    H255236   0.456   5.301  16.376  0.2562 -0.4041  2.4480
11249TIP3   OH255237   4.411   4.160  13.377  0.7065  0.5019  0.1181
11249TIP3    H155238   4.450   4.213  13.307 -1.1688  2.2582  0.3033
11249TIP3    H255239   4.436   4.205  13.457 -1.0850  1.3234  0.2662
11250TIP3   OH255240   1.151   2.768  12.288  0.4689  0.1611 -0.1498
11250TIP3    H155241   1.167   2.728  12.202 -1.1935 -0.0144 -0.4218
11250TIP3    H255242   1.198   2.712  12.350  0.4449 -0.5962 -0.8006
11251TIP3   OH255243   1.462   2.657  10.946  0.3701  0.1199  0.3405
11251TIP3    H155244   1.453   2.585  10.884 -1.4442  1.0226 -0.5172
11251TIP3    H255245   1.390   2.717  10.924  0.4328  1.0842  2.4968
11252TIP3   OH255246   3.350   4.677  14.369  0.4417 -0.2525  0.5293
11252TIP3    H155247   3.420   4.695  14.307 -0.0912 -0.8551 -0.2730
11252TIP3    H255248   3.367   4.588  14.399  0.5448 -0.0607  1.0408
11253TIP3   OH255249   3.492   2.932   6.056  0.0075  0.1569 -0.6114
11253TIP3    H155250   3.557   2.927   6.127 -0.9969  0.5593  0.3636
11253TIP3    H255251   3.533   2.990   5.991  1.4134 -1.0920 -0.9146
11254TIP3   OH255252   4.183   2.134  11.053 -0.3815  0.0371 -0.4482
11254TIP3    H155253   4.262   2.155  11.002  1.0961 -1.9842  0.8703
11254TIP3    H255254   4.125   2.091  10.990  0.5891 -0.6382 -0.9048
11255TIP3   OH255255   6.484   4.625  16.798 -0.0376 -0.6167  0.1501
11255TIP3    H155256   6.524   4.651  16.715  1.8164 -0.6573  0.9847
11255TIP3    H255257   6.418   4.560  16.773 -0.0451 -0.0764 -1.3500
11256TIP3   OH255258   4.947   2.946   1.203  0.1755  0.0093  0.3012
11256TIP3    H155259   4.927   2.866   1.155 -0.7889  0.8155 -0.6853
11256TIP3    H255260   5.020   2.922   1.260  0.2646 -1.4156 -0.3712
11257TIP3   OH255261   5.971   5.451   4.165  0.1974  0.4970 -0.3424
11257TIP3    H155262   5.970   5.365   4.208 -1.2159 -0.5421 -2.3104
11257TIP3    H255263   6.051   5.492   4.197  0.6482 -1.3193  1.0739
11258TIP3   OH255264   1.029   5.638  15.976 -0.0684  0.0387 -0.2219
11258TIP3    H155265   1.002   5.700  16.045 -0.2744  0.7600 -0.9268
11258TIP3    H255266   0.976   5.664  15.900  0.1911 -0.7128 -0.6613
11259TIP3   OH255267   1.802   6.288  14.064 -0.4116  0.1755 -0.2446
11259TIP3    H155268   1.880   6.250  14.106 -0.7092 -0.8177 -0.5726
11259TIP3    H255269   1.834   6.367  14.022  0.1111  0.6220  0.9477
11260TIP3   OH255270   0.295   0.393  12.029 -0.0276  0.2240 -0.0445
11260TIP3    H155271   0.300   0.298  12.037  0.8406  0.2989  0.3803
11260TIP3    H255272   0.229   0.408  11.962 -0.3638 -0.6728  0.0811
11261TIP3   OH255273   5.795   2.043   1.009 -0.2658 -0.1592 -0.6960
11261TIP3    H155274   5.874   1.998   0.978  1.1208  0.7011  1.3896
11261TIP3    H255275   5.813   2.135   0.993 -0.8569  0.0420 -0.2214
11262TIP3   OH255276   2.239   5.964  10.752 -0.2397  0.3858  0.0178
11262TIP3    H155277   2.309   5.908  10.785  1.1968  2.1742  0.2068
11262TIP3    H255278   2.233   5.942  10.659  0.6429  0.2284 -0.0158
11263TIP3   OH255279   3.434   4.877  15.893  1.3901 -0.4231 -0.2062
11263TIP3    H155280   3.442   4.844  15.982  2.2361  0.0702 -0.0854
11263TIP3    H255281   3.489   4.956  15.892  0.0462  0.5427 -0.6944
11264TIP3   OH255282   3.760   3.501  14.027  0.0047 -0.1187 -0.4782
11264TIP3    H155283   3.729   3.433  13.967 -1.0929 -0.9494  0.9630
11264TIP3    H255284   3.763   3.458  14.112 -2.3697  2.0106  0.8263
11265TIP3   OH255285   0.442   0.378  10.701  0.0446  0.1993  0.7827
11265TIP3    H155286   0.429   0.300  10.646  0.9864 -0.1152  0.9889
11265TIP3    H255287   0.381   0.442  10.665  0.3365 -0.1389 -0.3695
11266TIP3   OH255288   4.535   3.336   1.086 -0.0795 -0.3443 -0.1530
11266TIP3    H155289   4.616   3.294   1.059  0.4949 -0.2030  1.2348
11266TIP3    H255290   4.487   3.352   1.005  2.1619  1.3783 -1.2688
11267TIP3   OH255291   1.658   2.225   2.400 -0.3443  0.3972  0.2809
11267TIP3    H155292   1.684   2.313   2.426  0.8895  0.0402  0.3382
11267TIP3    H255293   1.677   2.221   2.306 -0.4311  0.2092  0.2711
11268TIP3   OH255294   0.656   3.145  16.314  0.3925 -0.4716  0.4631
11268TIP3    H155295   0.743   3.105  16.310  0.9659  0.5587  1.7143
11268TIP3    H255296   0.635   3.147  16.407 -0.6023  0.0696  0.2440
11269TIP3   OH255297   5.448   3.600  13.970 -0.1407  0.2761  0.4029
11269TIP3    H155298   5.447   3.687  14.010 -1.4431  0.6380 -0.3451
11269TIP3    H255299   5.426   3.540  14.042  0.8829  0.5370  0.9499
11270TIP3   OH255300   4.846   2.777  10.980  0.0024  0.0324  0.3854
11270TIP3    H155301   4.760   2.736  10.977 -0.4330  0.9718 -1.2609
11270TIP3    H255302   4.907   2.706  10.959 -0.3729 -0.5894  1.3487
11271TIP3   OH255303   0.865   5.698   0.444  0.0894  0.2534 -0.2081
11271TIP3    H155304   0.814   5.679   0.523 -0.3701 -0.1510 -0.5934
11271TIP3    H255305   0.956   5.689   0.472 -0.0079  1.6866  0.6640
11272TIP3   OH255306   4.393   0.569  15.069 -0.3417  0.4130  0.2807
11272TIP3    H155307   4.396   0.636  15.137  0.6596  0.7313 -0.0650
11272TIP3    H255308   4.465   0.510  15.089  0.1717  0.6929 -0.6698
11273TIP3   OH255309   0.554   2.457   1.414  0.0237 -0.4361 -0.0719
11273TIP3    H155310   0.491   2.415   1.473  0.0751  1.1801  1.2193
11273TIP3    H255311   0.520   2.546   1.402  1.1121 -0.0996 -0.8298
11274TIP3   OH255312   3.755   4.857  16.919 -0.6614 -0.4677  0.8461
11274TIP3    H155313   3.686   4.920  16.942 -1.1103 -0.8895  0.6783
11274TIP3    H255314   3.734   4.830  16.830 -0.2879 -0.6128  0.8014
11275TIP3   OH255315   4.788   6.067   0.982  0.2315  0.1846 -0.3008
11275TIP3    H155316   4.755   6.145   0.937 -2.4276 -0.8345 -0.2663
11275TIP3    H255317   4.840   6.022   0.915  0.2128  1.0115 -0.8959
11276TIP3   OH255318   6.620   0.899  13.948  0.0363 -0.5066 -0.0814
11276TIP3    H155319   6.602   0.971  13.888 -1.5059 -1.9451 -1.4482
11276TIP3    H255320   6.676   0.840  13.899 -1.4161 -1.8003 -0.2484
11277TIP3   OH255321   0.801   2.125  14.506  0.1848  0.0627 -0.0803
11277TIP3    H155322   0.847   2.117  14.590  1.5384  0.2236 -0.7699
11277TIP3    H255323   0.843   2.059  14.450  0.0526  0.6943 -0.9390
11278TIP3   OH255324   5.191   4.303  11.546  0.4197  0.0794 -0.1868
11278TIP3    H155325   5.232   4.328  11.629  2.1113 -0.3952 -0.8452
11278TIP3    H255326   5.111   4.258  11.572  0.7859  0.1693  1.1808
11279TIP3   OH255327   0.801   0.632  15.391 -0.6578 -1.0064  0.0329
11279TIP3    H155328   0.767   0.544  15.406  1.2522 -1.6732  0.6152
11279TIP3    H255329   0.869   0.621  15.325  0.2835 -0.1365  0.8235
11280TIP3   OH255330   0.404   2.937   5.750 -0.7009  0.0618 -0.1979
11280TIP3    H155331   0.448   2.912   5.669 -1.3376 -1.4051 -0.1195
11280TIP3    H255332   0.475   2.948   5.814 -0.2646  0.3762 -0.7269
11281TIP3   OH255333   0.356   0.444  10.259  0.7213  0.2643 -0.4742
11281TIP3    H155334   0.286   0.430  10.323  0.9965 -0.0763 -0.2413
11281TIP3    H255335   0.316   0.496  10.190  0.5281  0.9729  0.1676
11282TIP3   OH255336   0.199   5.772   0.781  0.1935 -0.2817  0.5954
11282TIP3    H155337   0.211   5.693   0.833  1.7489 -1.2971 -1.1835
11282TIP3    H255338   0.287   5.800   0.758 -0.3222  1.8854  0.9767
11283TIP3   OH255339   4.857   2.800  13.085  0.0613 -0.1561 -0.2684
11283TIP3    H155340   4.843   2.881  13.038 -4.1962  0.0103  0.8870
11283TIP3    H255341   4.855   2.825  13.178 -0.9254 -1.4599  0.1026
11284TIP3   OH255342   0.104   1.333   1.591  0.1569 -0.6057 -0.4869
11284TIP3    H155343   0.130   1.265   1.653 -1.1329 -0.1849  0.5695
11284TIP3    H255344   0.187   1.376   1.567  0.7805 -1.3385  0.2647
11285TIP3   OH255345   5.534   4.537   1.247  0.4400  0.0455  0.4341
11285TIP3    H155346   5.504   4.618   1.206 -0.3024  0.2225  1.2919
11285TIP3    H255347   5.630   4.544   1.246  0.3878  1.0365  0.6856
11286TIP3   OH255348   3.534   5.165  14.006  0.3272  0.5918  0.5265
11286TIP3    H155349   3.443   5.156  14.036  0.7908  2.0375  2.5446
11286TIP3    H255350   3.570   5.236  14.059  2.0844  1.4092 -1.6222
11287TIP3   OH255351   4.190   5.247   0.928 -0.2133  0.0436  0.1445
11287TIP3    H155352   4.183   5.243   0.832 -1.1410  0.7611  0.1795
11287TIP3    H255353   4.225   5.334   0.946 -1.2025  0.3794  0.5095
11288TIP3   OH255354   2.762   0.546  11.755 -0.6136  0.9058  0.1051
11288TIP3    H155355   2.748   0.587  11.840 -0.7119  0.9561  0.0655
11288TIP3    H255356   2.699   0.473  11.753 -0.1476  0.4964  0.3428
11289TIP3   OH255357   5.587   4.317  14.500 -0.3503  0.1609 -0.0711
11289TIP3    H155358   5.540   4.237  14.523  1.0912 -1.0068 -0.9822
11289TIP3    H255359   5.575   4.375  14.576 -0.0904 -1.5392  1.3272
11290TIP3   OH255360   5.413   1.989  14.562  0.6214 -0.3216 -0.0249
11290TIP3    H155361   5.459   2.023  14.486  1.2980  0.4681  0.7068
11290TIP3    H255362   5.440   2.046  14.634 -0.3089 -0.7985  0.7336
11291TIP3   OH255363   0.471   5.692  12.302  1.4273  0.5559 -0.2784
11291TIP3    H155364   0.426   5.747  12.367 -1.3299  0.7839 -2.1800
11291TIP3    H255365   0.520   5.754  12.248  3.4044  0.4024  1.2194
11292TIP3   OH255366   0.125   0.669   1.062 -0.0799 -0.0229 -0.2430
11292TIP3    H155367   0.207   0.683   1.015  0.2817 -0.0138  0.3788
11292TIP3    H255368   0.119   0.744   1.122 -1.1814  0.6658 -1.1672
11293TIP3   OH255369   0.937   4.061  13.073  0.0474 -0.1426 -0.2210
11293TIP3    H155370   0.973   3.988  13.023 -0.1130  0.6583 -1.5334
11293TIP3    H255371   0.921   4.129  13.009 -1.0302  0.5956  0.7875
11294TIP3   OH255372   4.042   1.820   4.396 -0.3309 -0.2463  0.4071
11294TIP3    H155373   4.100   1.748   4.369 -1.2990 -3.2119  5.1145
11294TIP3    H255374   3.958   1.799   4.355  0.1309  0.1222 -0.7910
11295TIP3   OH255375   6.395   6.798  12.899 -0.0150 -0.3069  0.2018
11295TIP3    H155376   6.395   6.889  12.931  0.5435  0.3077 -1.4643
11295TIP3    H255377   6.384   6.806  12.805  0.2098 -1.9893  0.0082
11296TIP3   OH255378   4.869   6.108  13.558  0.3753 -0.4843  0.0088
11296TIP3    H155379   4.811   6.112  13.482 -0.7490  1.3220  0.9027
11296TIP3    H255380   4.898   6.017  13.560 -1.8132 -1.2910 -0.9654
11297TIP3   OH255381   6.125   3.294   5.724  0.0074 -0.1188 -0.2263
11297TIP3    H155382   6.097   3.346   5.799  2.1705  0.7221  0.0470
11297TIP3    H255383   6.147   3.209   5.761 -0.2854 -0.1580 -0.1383
11298TIP3   OH255384   4.605   6.626   5.726  0.5423  0.1627  0.5477
11298TIP3    H155385   4.544   6.630   5.652  1.1817 -0.0972 -0.0119
11298TIP3    H255386   4.691   6.640   5.686  1.0975 -1.6857  0.9641
11299TIP3   OH255387   3.664   1.277  14.922  0.8015 -0.0125  0.0986
11299TIP3    H155388   3.695   1.320  14.842  3.3554  0.3508  1.1638
11299TIP3    H255389   3.657   1.185  14.898 -0.2092  0.3258 -0.9907
11300TIP3   OH255390   3.059   0.989   3.351  0.2421 -0.1438  0.4962
11300TIP3    H155391   3.047   1.023   3.439 -1.7054  0.0799  0.1784
11300TIP3    H255392   3.046   1.065   3.294  0.5163 -0.4855 -0.0275
11301TIP3   OH255393   5.389   2.149  12.932 -0.0661 -0.1074  0.2489
11301TIP3    H155394   5.355   2.182  12.849 -0.1569 -0.5922  0.0924
11301TIP3    H255395   5.453   2.215  12.959  1.2617 -0.7861 -1.0847
11302TIP3   OH255396   4.396   2.975  14.748  0.2901  0.4071  0.4228
11302TIP3    H155397   4.377   2.977  14.842  0.0763 -0.3173  0.4053
11302TIP3    H255398   4.386   2.883  14.724 -0.1467  0.6603 -0.4087
11303TIP3   OH255399   2.659   0.828   1.737 -0.1107 -0.1871  0.4258
11303TIP3    H155400   2.578   0.778   1.732 -0.7927  0.8352  1.1034
11303TIP3    H255401   2.652   0.879   1.818  0.8656  0.5047  0.1016
11304TIP3   OH255402   3.403   5.631  11.937 -0.0951  1.2146 -0.1492
11304TIP3    H155403   3.323   5.604  11.890 -0.2123  0.8974  0.2223
11304TIP3    H255404   3.383   5.719  11.969  0.3902  1.8857 -1.6053
11305TIP3   OH255405   2.211   6.125  10.962 -0.0119 -0.2026  0.4797
11305TIP3    H155406   2.197   6.105  10.869  0.2212  0.6562  0.2446
11305TIP3    H255407   2.164   6.207  10.976  2.6047  1.4733  0.2553
11306TIP3   OH255408   6.228   5.752  12.894  0.0978 -0.6037 -0.3302
11306TIP3    H155409   6.296   5.727  12.830  0.5912  0.2709 -0.1614
11306TIP3    H255410   6.155   5.783  12.840  0.5941  0.3405 -0.4872
11307TIP3   OH255411   2.704   4.252   1.413 -0.1960 -0.2310  0.3284
11307TIP3    H155412   2.790   4.217   1.436 -0.0779 -0.2484 -0.1204
11307TIP3    H255413   2.653   4.248   1.494 -0.2179 -1.5413  0.2737
11308TIP3   OH255414   1.501   6.098   5.356 -0.0118  0.2634 -0.1036
11308TIP3    H155415   1.564   6.166   5.334 -0.1955 -0.1777 -2.2218
11308TIP3    H255416   1.428   6.145   5.396  0.8527  1.0009  0.6400
11309TIP3   OH255417   0.739   4.056   3.946 -0.3041  0.6784 -0.0092
11309TIP3    H155418   0.789   3.988   3.900  0.2810  0.2847  1.1835
11309TIP3    H255419   0.776   4.138   3.914  1.1697  0.3974  0.8684
11310TIP3   OH255420   3.199   4.215   2.077  0.0011 -0.1768 -0.0126
11310TIP3    H155421   3.273   4.155   2.083  0.7205  0.6665 -0.3164
11310TIP3    H255422   3.220   4.287   2.136 -1.8159 -1.1622  1.9901
11311TIP3   OH255423   1.261   0.354   1.059  0.4396 -0.1655 -0.2893
11311TIP3    H155424   1.245   0.314   0.974 -2.0781  1.7302 -0.8452
11311TIP3    H255425   1.196   0.315   1.117  1.3397 -0.5519  0.4928
11312TIP3   OH255426   1.666   0.687   5.185 -0.6302 -0.1138  0.5613
11312TIP3    H155427   1.722   0.630   5.238 -1.6578  0.9600  2.9439
11312TIP3    H255428   1.688   0.775   5.215 -0.5988  0.6349 -1.5413
11313TIP3   OH255429   4.148   4.499  12.917 -0.1065  0.3637  0.4983
11313TIP3    H155430   4.215   4.480  12.982 -0.0981  0.4671  0.5188
11313TIP3    H255431   4.114   4.413  12.893  2.4583 -0.0903 -2.1278
11314TIP3   OH255432   4.225   3.129   5.352 -0.2851  0.1971 -0.1474
11314TIP3    H155433   4.208   3.044   5.394  1.7564 -0.2379 -0.0731
11314TIP3    H255434   4.318   3.126   5.330 -0.1517  2.4495 -0.1053
11315TIP3   OH255435   0.458   5.116   0.092 -0.1940 -0.4534  0.6003
11315TIP3    H155436   0.543   5.103   0.050 -0.1590 -0.3150  0.6302
11315TIP3    H255437   0.418   5.188   0.043 -1.0084 -1.6187 -0.5213
11316TIP3   OH255438   3.636   3.082  16.492  0.2394 -1.2832  0.3185
11316TIP3    H155439   3.644   3.058  16.584 -1.3760 -0.4256  0.7175
11316TIP3    H255440   3.544   3.067  16.471  0.4892 -1.0677 -1.0518
11317TIP3   OH255441   4.607   1.427   2.408 -0.2948 -0.3028  0.6240
11317TIP3    H155442   4.540   1.464   2.466 -1.6730  0.7885 -1.5649
11317TIP3    H255443   4.689   1.460   2.443 -0.7034 -2.0794  3.6915
11318TIP3   OH255444   1.054   5.592  14.509  0.4387  0.4970 -0.0238
11318TIP3    H155445   0.984   5.633  14.458  0.2392 -2.3633 -2.2531
11318TIP3    H255446   1.010   5.562  14.589  0.1178  2.4581  0.5834
11319TIP3   OH255447   4.815   2.923  13.342  0.2428 -0.0154  0.1677
11319TIP3    H155448   4.787   2.922  13.434  1.5233  2.2360  0.6680
11319TIP3    H255449   4.899   2.969  13.343  0.6343 -0.5550 -2.0681
11320TIP3   OH255450   5.759   4.742  12.541 -0.2381  0.1879 -0.1694
11320TIP3    H155451   5.750   4.824  12.493 -0.5775  0.3081  0.0934
11320TIP3    H255452   5.798   4.767  12.625 -0.5844  0.1193  0.0142
11321TIP3   OH255453   1.751   3.791  14.948  0.3561 -0.5881  0.5397
11321TIP3    H155454   1.687   3.766  14.882  0.4857  0.1836  0.1103
11321TIP3    H255455   1.836   3.779  14.905  0.4266  0.4453  0.3531
11322TIP3   OH255456   2.373   1.156   2.018 -0.1218  0.1750 -0.4339
11322TIP3    H155457   2.314   1.113   2.081 -1.3228  0.7261 -1.1569
11322TIP3    H255458   2.375   1.247   2.046  0.6458  0.1039 -0.2361
11323TIP3   OH255459   0.294   4.855  16.567  0.2322 -0.0296  0.4307
11323TIP3    H155460   0.201   4.841  16.585  0.3553 -0.8712  0.4355
11323TIP3    H255461   0.332   4.880  16.651 -0.0993  0.9793  0.2967
11324TIP3   OH255462   0.664   3.536   3.383  0.3619 -0.1622 -0.2239
11324TIP3    H155463   0.660   3.625   3.349  0.4829  0.2118  0.7195
11324TIP3    H255464   0.746   3.532   3.432 -0.0202 -0.5358  0.4125
11325TIP3   OH255465   2.432   3.726  16.903  0.2992  0.0208 -0.0727
11325TIP3    H155466   2.464   3.759  16.820  2.1465  0.2583  0.6829
11325TIP3    H255467   2.338   3.712  16.889  0.7546 -1.1306 -2.5561
11326TIP3   OH255468   2.394   6.573  14.464  0.0745  0.6918 -0.1706
11326TIP3    H155469   2.343   6.578  14.383 -1.6918  1.3667  0.9128
11326TIP3    H255470   2.424   6.482  14.468 -0.6386  0.3969 -1.1010
11327TIP3   OH255471   3.346   4.739  13.122 -1.1304 -0.0991  0.0740
11327TIP3    H155472   3.441   4.734  13.116 -1.1352 -0.9975  0.5780
11327TIP3    H255473   3.330   4.767  13.213 -1.3256  1.3866 -0.3921
11328TIP3   OH255474   4.195   5.612   4.586  0.0103  0.1682  0.1515
11328TIP3    H155475   4.153   5.633   4.669  3.1387  0.6557  1.7591
11328TIP3    H255476   4.206   5.517   4.588  1.4689  0.3259  1.1000
11329TIP3   OH255477   5.841   5.248  14.635 -0.2532 -0.4767 -0.6561
11329TIP3    H155478   5.778   5.320  14.636  1.1303  0.7941 -0.7298
11329TIP3    H255479   5.895   5.264  14.557  1.2597 -0.5061  0.3271
11330TIP3   OH255480   0.690   3.462  10.820 -0.3287  0.0282 -0.7424
11330TIP3    H155481   0.736   3.528  10.769 -1.0291 -0.0609 -1.5077
11330TIP3    H255482   0.759   3.404  10.853  0.3252  1.2951  0.1962
11331TIP3   OH255483   2.009   3.462  12.480  0.4241  0.1391  0.6702
11331TIP3    H155484   2.025   3.556  12.484 -0.1428  0.2553  0.2276
11331TIP3    H255485   2.094   3.423  12.501  0.6856  0.7456  0.7648
11332TIP3   OH255486   0.592   3.340  16.860  0.2377 -0.1518  0.2474
11332TIP3    H155487   0.647   3.345  16.783 -0.5117 -1.1876 -0.3787
11332TIP3    H255488   0.565   3.248  16.865 -1.3738  0.3004  0.5588
11333TIP3   OH255489   2.703   3.255   3.949 -0.5655  0.8854 -0.1523
11333TIP3    H155490   2.695   3.337   3.996 -2.0331  0.6784 -0.0074
11333TIP3    H255491   2.694   3.279   3.856 -2.6988  0.7249 -0.0254
11334TIP3   OH255492   5.137   2.581   6.178 -0.1350 -0.2116  0.7794
11334TIP3    H155493   5.091   2.502   6.206 -0.3264  0.3857  2.2333
11334TIP3    H255494   5.080   2.653   6.204 -0.1439  0.4241 -0.8569
11335TIP3   OH255495   1.528   2.293  16.374 -0.2785 -0.1924 -0.1429
11335TIP3    H155496   1.496   2.210  16.408 -0.8576 -0.0786 -0.3992
11335TIP3    H255497   1.464   2.357  16.405  1.1265  0.4535  1.6573
11336TIP3   OH255498   3.693   3.358  11.357  0.2787  0.6989 -0.2529
11336TIP3    H155499   3.768   3.321  11.402 -0.7216 -0.2384  0.6860
11336TIP3    H255500   3.702   3.328  11.266  0.4001 -0.4098  0.1203
11337TIP3   OH255501   3.167   0.210  12.105  0.8185 -0.1174  0.0704
11337TIP3    H155502   3.081   0.171  12.118  1.1198 -0.7984  0.0713
11337TIP3    H255503   3.159   0.299  12.141  0.3610 -0.4657  0.8521
11338TIP3   OH255504   0.010   2.339  15.167 -0.1201  0.1801  0.3123
11338TIP3    H155505   0.005   2.272  15.235 -0.6224 -1.6879 -1.4598
11338TIP3    H255506   0.104   2.354  15.156  0.0470 -0.7888  0.2581
11339TIP3   OH255507   0.130   3.647   5.445 -0.6329 -1.0388  0.4683
11339TIP3    H155508   0.138   3.705   5.520 -1.9147 -0.1530 -0.0513
11339TIP3    H255509   0.196   3.679   5.383 -0.6102 -0.8070  0.6118
11340TIP3   OH255510   2.137   4.346  13.397 -0.2644  0.5218  0.4653
11340TIP3    H155511   2.228   4.376  13.406 -0.4609  1.3245 -0.0994
11340TIP3    H255512   2.104   4.343  13.486  0.7122 -1.1132  0.8236
11341TIP3   OH255513   4.739   3.266  15.904 -0.3233  0.5615 -0.2852
11341TIP3    H155514   4.729   3.321  15.826  0.1641 -0.3330 -0.9924
11341TIP3    H255515   4.730   3.177  15.872  0.5050  0.1561  0.5667
11342TIP3   OH255516   2.454   2.271   4.270 -0.5032 -0.4468  0.1098
11342TIP3    H155517   2.517   2.264   4.199  1.0001 -0.7137  1.4284
11342TIP3    H255518   2.471   2.195   4.326 -0.9201  0.3269  1.3272
11343TIP3   OH255519   5.680   1.716   0.212 -0.2228  0.8744  0.2248
11343TIP3    H155520   5.763   1.751   0.179  0.2450  1.2695  1.7389
11343TIP3    H255521   5.706   1.644   0.269 -0.9364  0.8710  0.5463
11344TIP3   OH255522   1.833   0.437   4.595 -0.3020 -0.3275  0.0342
11344TIP3    H155523   1.876   0.518   4.566 -1.7467  0.9429  1.2275
11344TIP3    H255524   1.867   0.423   4.683 -1.3664  0.0077  0.5161
11345TIP3   OH255525   2.684   4.263  16.836  0.0837 -0.5058 -0.4029
11345TIP3    H155526   2.728   4.280  16.920 -0.4147 -0.1276 -0.2147
11345TIP3    H255527   2.633   4.342  16.819  0.2330 -0.5534 -1.1019
11346TIP3   OH255528   2.300   6.451  12.617 -0.5220  0.8373 -0.0835
11346TIP3    H155529   2.393   6.472  12.603 -0.4269 -0.0579 -0.8732
11346TIP3    H255530   2.258   6.468  12.533 -0.5799 -1.2748 -0.5322
11347TIP3   OH255531   4.929   3.092  13.057  0.2983  0.1506  0.4563
11347TIP3    H155532   4.965   3.179  13.071  2.4738 -0.2798 -1.7576
11347TIP3    H255533   5.001   3.032  13.081 -0.1824 -0.8936 -0.5970
11348TIP3   OH255534   0.396   1.619  13.584 -0.2229 -0.5085  0.1847
11348TIP3    H155535   0.463   1.589  13.523 -0.3798 -1.3524  0.4146
11348TIP3    H255536   0.415   1.573  13.666 -0.1156  0.4848  0.7291
11349TIP3   OH255537   0.485   6.798   3.922  0.0979 -0.2050 -0.0989
11349TIP3    H155538   0.486   6.705   3.899  0.5200  0.1186 -1.4722
11349TIP3    H255539   0.409   6.833   3.875  0.6487  0.3714 -0.5728
11350TIP3   OH255540   5.990   1.975  13.615  0.2153  0.6054 -0.0947
11350TIP3    H155541   6.061   1.978  13.551  0.2344 -0.6592 -0.1570
11350TIP3    H255542   5.996   1.888  13.653 -1.7257  0.2296 -0.5714
11351TIP3   OH255543   0.934   4.857  14.353 -0.4378  0.3275  0.1193
11351TIP3    H155544   1.010   4.906  14.321 -0.8812  1.7700  1.1546
11351TIP3    H255545   0.949   4.849  14.447 -0.9782 -0.4748  0.1454
11352TIP3   OH255546   1.313   3.557  16.412  0.2471 -0.2858  0.3658
11352TIP3    H155547   1.284   3.480  16.461 -0.7712  0.1366  0.4540
11352TIP3    H255548   1.235   3.612  16.406  0.5714  0.0585 -1.0111
11353TIP3   OH255549   1.726   6.183   1.710 -0.3461 -0.6231  0.5690
11353TIP3    H155550   1.800   6.169   1.651  0.2319  0.1857  1.0681
11353TIP3    H255551   1.651   6.143   1.666  0.3819 -1.4256  0.0372
11354TIP3   OH255552   1.297   4.883  15.328 -0.0478 -0.1497  0.6487
11354TIP3    H155553   1.315   4.943  15.400 -0.4252 -0.4612  1.0105
11354TIP3    H255554   1.317   4.933  15.249  2.2081 -0.3870  0.9890
11355TIP3   OH255555   3.552   3.538   5.536  0.4165 -0.2222  0.7531
11355TIP3    H155556   3.501   3.553   5.616  1.5522  2.2662  1.0861
11355TIP3    H255557   3.582   3.625   5.510 -0.1740 -0.8842 -2.6059
11356TIP3   OH255558   6.565   5.479  11.176 -0.1338 -0.4117  0.3294
11356TIP3    H155559   6.651   5.440  11.159 -1.0750 -2.1294 -0.7875
11356TIP3    H255560   6.581   5.543  11.245  2.1060 -0.4001 -0.1372
11357TIP3   OH255561   1.751   5.241  13.884  0.1782  0.2295  0.6000
11357TIP3    H155562   1.704   5.246  13.801 -0.2258 -3.1030  0.5227
11357TIP3    H255563   1.710   5.309  13.938 -2.9021 -0.6893 -0.3650
11358TIP3   OH255564   1.556   1.198  11.571 -0.2514  0.2556  0.7600
11358TIP3    H155565   1.613   1.274  11.580  0.0263  0.3648 -1.2987
11358TIP3    H255566   1.562   1.174  11.478  0.1132 -2.6452  1.4220
11359TIP3   OH255567   4.807   4.198   4.740 -0.2916  1.0274  0.0825
11359TIP3    H155568   4.787   4.157   4.824 -0.3952  1.7426  0.4112
11359TIP3    H255569   4.727   4.245   4.716  0.0729  1.6564  0.0809
11360TIP3   OH255570   2.864   2.060  14.470 -0.1001 -0.4270 -0.6182
11360TIP3    H155571   2.842   2.127  14.405  0.5381  0.8945  0.4702
11360TIP3    H255572   2.954   2.034  14.449  0.2383  0.2665 -0.0760
11361TIP3   OH255573   5.486   2.659   2.388 -0.0431 -0.3816  0.1792
11361TIP3    H155574   5.418   2.626   2.329  1.7486 -2.3316 -0.9311
11361TIP3    H255575   5.503   2.749   2.357 -1.4699 -0.1826 -0.0718
11362TIP3   OH255576   2.893   5.096   5.927 -0.2132  0.3474  0.3927
11362TIP3    H155577   2.912   5.166   5.864 -1.7556  1.0253  0.6308
11362TIP3    H255578   2.844   5.140   5.997  0.0289 -0.7116  1.2449
11363TIP3   OH255579   6.117   1.194  10.510 -0.1829 -0.1965 -0.4989
11363TIP3    H155580   6.033   1.183  10.466 -0.4615  1.3028 -0.3823
11363TIP3    H255581   6.136   1.287  10.503  2.4833 -0.7548 -2.3514
11364TIP3   OH255582   5.736   6.363  16.610 -0.4925 -0.5454  0.2836
11364TIP3    H155583   5.752   6.279  16.567  2.5126 -0.0885  0.3395
11364TIP3    H255584   5.735   6.427  16.539 -0.7860 -0.3681  0.4401
11365TIP3   OH255585   1.754   6.214  15.721 -0.1434  0.2146 -0.3955
11365TIP3    H155586   1.694   6.288  15.714  3.1153  2.9608 -2.9839
11365TIP3    H255587   1.740   6.164  15.640 -1.3371 -1.3019  0.6868
11366TIP3   OH255588   6.467   0.346   4.447 -0.3818 -0.0487 -0.2519
11366TIP3    H155589   6.437   0.292   4.374  0.9668 -1.3157  0.0648
11366TIP3    H255590   6.547   0.302   4.477 -0.3652  1.0006  1.3513
11367TIP3   OH255591   2.062   2.037  12.974 -0.0936  0.3679 -0.5676
11367TIP3    H155592   1.972   2.010  12.952 -0.0812  0.6593 -0.9813
11367TIP3    H255593   2.067   2.025  13.069  0.3806 -2.5551 -0.8469
11368TIP3   OH255594   4.698   4.411  14.756  0.0840 -0.0994 -0.4975
11368TIP3    H155595   4.696   4.360  14.838 -0.9260 -0.8552 -0.9640
11368TIP3    H255596   4.611   4.397  14.718  0.0349  1.4102 -1.0067
11369TIP3   OH255597   5.680   4.900  11.994 -0.3497 -0.1845 -0.1940
11369TIP3    H155598   5.694   4.932  12.083  0.6843 -0.7816 -0.1262
11369TIP3    H255599   5.585   4.904  11.982 -0.5629 -0.5911  1.1280
11370TIP3   OH255600   6.432   1.801   2.514 -0.1557 -0.4254  0.8577
11370TIP3    H155601   6.484   1.726   2.487  0.0534  0.1538 -0.3966
11370TIP3    H255602   6.354   1.763   2.555  0.5503 -1.2986  1.4226
11371TIP3   OH255603   5.989   2.718   2.148  0.1313  0.2608  0.5478
11371TIP3    H155604   6.083   2.730   2.136 -0.2820  1.5340 -2.2484
11371TIP3    H255605   5.968   2.770   2.226  1.7221 -0.1040  1.2577
11372TIP3   OH255606   1.721   1.830   4.061  0.0153 -0.5792  0.3069
11372TIP3    H155607   1.755   1.911   4.099 -0.1089 -0.1011 -0.5618
11372TIP3    H255608   1.793   1.797   4.007 -0.8002  0.4166 -1.5104
11373TIP3   OH255609   4.100   3.206   6.078  0.0585  0.1173 -0.5584
11373TIP3    H155610   4.138   3.163   6.001  0.0176 -0.9022 -0.0226
11373TIP3    H255611   4.008   3.182   6.076  0.3717 -1.3109  0.7064
11374TIP3   OH255612   5.975   4.861   6.321  0.0010  0.6950  0.6289
11374TIP3    H155613   5.982   4.766   6.315  0.7723  0.8304 -1.1424
11374TIP3    H255614   6.052   4.888   6.371  0.9993  0.5370 -0.7797
11375TIP3   OH255615   1.919   5.453   5.862  0.4717 -0.4745  0.1965
11375TIP3    H155616   1.982   5.392   5.825  0.3450 -0.0171 -0.7930
11375TIP3    H255617   1.965   5.537   5.863  0.7520 -0.6083  1.8223
11376TIP3   OH255618   6.733   1.724   1.543  0.2811  0.3188  0.2868
11376TIP3    H155619   6.808   1.727   1.483 -0.0775 -1.1149 -0.2740
11376TIP3    H255620   6.750   1.793   1.607  2.2351 -0.1573  0.3369
11377TIP3   OH255621   0.399   5.583  16.195  0.4020 -0.1326 -0.1424
11377TIP3    H155622   0.348   5.534  16.259 -2.2401 -2.0414 -3.4082
11377TIP3    H255623   0.448   5.517  16.146  2.3798  1.2610 -0.1968
11378TIP3   OH255624   1.112   4.086   0.308  0.7863  0.3659 -0.0761
11378TIP3    H155625   1.052   4.074   0.234 -0.3805 -1.5175  1.1068
11378TIP3    H255626   1.082   4.024   0.374  2.8527  0.7751  1.3418
11379TIP3   OH255627   5.189   0.572  14.288 -0.0418 -0.1458  0.2224
11379TIP3    H155628   5.203   0.609  14.376  0.7568  1.6496 -0.5974
11379TIP3    H255629   5.211   0.644  14.229  0.5266 -1.6664 -1.4870
11380TIP3   OH255630   3.615   5.584   0.227 -0.3443  0.0070  0.0437
11380TIP3    H155631   3.695   5.576   0.280 -0.4825  0.6587  0.3685
11380TIP3    H255632   3.571   5.500   0.238  1.6759 -1.5165 -2.4803
11381TIP3   OH255633   0.233   3.511   4.748 -0.8851  0.0486 -0.8202
11381TIP3    H155634   0.145   3.485   4.718 -0.0099 -0.1661 -3.4912
11381TIP3    H255635   0.225   3.605   4.767 -2.0453 -0.2999  0.6320
11382TIP3   OH255636   6.578   6.289  11.336  0.6041 -0.7247  0.2406
11382TIP3    H155637   6.599   6.324  11.249  0.3449 -0.6074  0.2221
11382TIP3    H255638   6.638   6.216  11.348  1.2860 -0.1515  0.3621
11383TIP3   OH255639   4.556   0.905   5.375  0.4532 -0.3872  0.1931
11383TIP3    H155640   4.645   0.936   5.360  1.4854 -2.7381  0.9761
11383TIP3    H255641   4.559   0.812   5.354 -1.4548 -0.8348  1.6177
11384TIP3   OH255642   1.887   0.908   0.711  0.2748 -0.2282  0.3068
11384TIP3    H155643   1.834   0.861   0.776  0.7044 -0.7010  0.3211
11384TIP3    H255644   1.965   0.855   0.700  0.3816  0.0433 -0.3264
11385TIP3   OH255645   6.014   6.631   1.793 -0.5160  0.5318  0.1847
11385TIP3    H155646   6.020   6.700   1.859  0.1046  0.8695 -0.2114
11385TIP3    H255647   6.099   6.587   1.798 -0.9256 -0.2295  0.4617
11386TIP3   OH255648   5.129   2.455   4.847 -0.5010  0.2055  0.6370
11386TIP3    H155649   5.076   2.421   4.919  0.5189  0.7178  1.6631
11386TIP3    H255650   5.205   2.398   4.843  0.9988  1.9715  2.0706
11387TIP3   OH255651   6.521   3.201  16.696  0.0480 -0.0661  0.1518
11387TIP3    H155652   6.578   3.130  16.667  0.5161  0.1971  0.4281
11387TIP3    H255653   6.553   3.224  16.783  0.3754  0.9886 -0.2380
11388TIP3   OH255654   3.616   4.904  16.403  0.5117 -0.6219  0.0219
11388TIP3    H155655   3.637   4.907  16.309  0.9388  2.5439  0.1271
11388TIP3    H255656   3.572   4.986  16.421  1.2415 -0.7250  2.7956
11389TIP3   OH255657   6.076   5.193   6.211 -0.3748  0.3410  0.5178
11389TIP3    H155658   6.132   5.227   6.281 -0.5379  1.7951 -0.0270
11389TIP3    H255659   5.987   5.211   6.241 -0.5508 -1.2437  1.0213
11390TIP3   OH255660   2.703   6.631  11.978  0.0182  0.2683  0.1568
11390TIP3    H155661   2.632   6.600  11.921  0.1944 -0.6605  0.4221
11390TIP3    H255662   2.715   6.723  11.953 -1.0007  0.3313 -0.1750
11391TIP3   OH255663   4.761   2.893  17.049 -0.5679 -0.0764  0.5556
11391TIP3    H155664   4.835   2.865  17.103 -0.2281 -0.0998  0.0902
11391TIP3    H255665   4.739   2.980  17.082 -1.3537 -0.6916  1.7285
11392TIP3   OH255666   2.900   6.502   1.167  0.6238  0.1820 -0.1256
11392TIP3    H155667   2.925   6.569   1.105 -1.9123  0.4058 -1.0467
11392TIP3    H255668   2.885   6.424   1.114 -1.2628  0.2888  0.1765
11393TIP3   OH255669   4.140   0.200  17.077  0.2643 -0.5568  0.3169
11393TIP3    H155670   4.077   0.152  17.132  0.5966 -1.0810  0.2477
11393TIP3    H255671   4.226   0.168  17.106  0.4314 -1.1538 -0.7876
11394TIP3   OH255672   6.260   3.145  15.644 -0.0566  0.7908  0.1362
11394TIP3    H155673   6.298   3.145  15.732 -1.8994  1.2569  0.9830
11394TIP3    H255674   6.299   3.069  15.601  1.0537  0.6883  1.2594
11395TIP3   OH255675   2.651   5.484   6.041  1.2012 -0.0607  0.4770
11395TIP3    H155676   2.736   5.440   6.041  1.1316 -0.2929 -1.6617
11395TIP3    H255677   2.601   5.439   6.110  2.5852 -0.3254  1.3534
11396TIP3   OH255678   4.691   4.511   5.787  0.5581 -0.1655 -0.3006
11396TIP3    H155679   4.754   4.464   5.733  0.1204  0.7772 -1.6673
11396TIP3    H255680   4.657   4.444   5.846  1.2628 -1.1606 -0.9834
11397TIP3   OH255681   6.540   3.825  12.255 -0.2554  0.2228  0.1743
11397TIP3    H155682   6.495   3.883  12.316 -0.1995  1.1330 -0.6333
11397TIP3    H255683   6.632   3.848  12.263 -0.1239 -0.3919  0.5087
11398TIP3   OH255684   5.150   0.810  15.670  0.0764 -0.3586  0.4737
11398TIP3    H155685   5.154   0.892  15.620 -0.0169 -1.1917 -0.9518
11398TIP3    H255686   5.209   0.751  15.623  0.3810 -1.0250  1.6636
11399TIP3   OH255687   1.847   4.979   5.368  0.2890  0.1420 -0.5032
11399TIP3    H155688   1.779   4.997   5.303 -0.2060  3.5970  0.7538
11399TIP3    H255689   1.809   4.914   5.426 -1.1897  0.5617 -0.9583
11400TIP3   OH255690   0.440   3.901   0.789 -0.0942 -0.4705  0.0956
11400TIP3    H155691   0.358   3.950   0.802  0.1354  0.1351 -0.6337
11400TIP3    H255692   0.475   3.935   0.707  2.2514  1.2415  1.6518
11401TIP3   OH255693   0.294   2.892  11.459 -0.1298  0.4907 -0.1715
11401TIP3    H155694   0.270   2.803  11.487 -1.9350  0.3266 -1.9785
11401TIP3    H255695   0.386   2.886  11.433 -0.3593 -0.9874 -0.7136
11402TIP3   OH255696   0.968   3.450  13.928  0.3448 -0.0195 -0.0781
11402TIP3    H155697   1.042   3.481  13.981  0.9378 -0.0543 -0.8624
11402TIP3    H255698   0.990   3.478  13.839 -0.4121 -0.3576 -0.3750
11403TIP3   OH255699   3.454   2.461  11.659 -0.0039  0.4880  0.0940
11403TIP3    H155700   3.520   2.428  11.720 -0.4531  1.1817  0.9752
11403TIP3    H255701   3.371   2.435  11.697 -0.3154  1.4693  0.1070
11404TIP3   OH255702   4.610   0.833   0.864  0.4037 -0.8683 -0.4506
11404TIP3    H155703   4.604   0.814   0.770 -0.1237 -1.0815 -0.3808
11404TIP3    H255704   4.522   0.814   0.897 -0.3150  2.0484 -0.4115
11405TIP3   OH255705   4.932   1.286   5.016 -0.0039  0.6623  0.3998
11405TIP3    H155706   4.946   1.334   4.933 -0.7681 -0.5827 -0.4783
11405TIP3    H255707   4.870   1.341   5.064  0.9203  1.7119  0.4306
11406TIP3   OH255708   3.657   1.491  15.498 -0.1486 -0.0641 -0.0442
11406TIP3    H155709   3.710   1.535  15.432 -0.4955 -0.5064 -0.6223
11406TIP3    H255710   3.638   1.405  15.461  1.9489 -1.4226  1.7829
11407TIP3   OH255711   4.476   1.158  13.620 -0.0142 -0.3171 -0.7552
11407TIP3    H155712   4.535   1.087  13.592  3.0986  1.6130  0.4293
11407TIP3    H255713   4.471   1.149  13.716  0.4572  1.0447 -0.5820
11408TIP3   OH255714   5.881   3.793  12.884 -0.1456  0.0787  0.0164
11408TIP3    H155715   5.969   3.761  12.903 -0.2910  0.5329  1.6162
11408TIP3    H255716   5.892   3.888  12.876 -0.3370  0.0367 -0.8118
11409TIP3   OH255717   0.522   1.903  13.834 -0.0239  0.1201  0.0035
11409TIP3    H155718   0.528   1.998  13.840  1.0615  0.1287 -0.9656
11409TIP3    H255719   0.482   1.886  13.749 -1.9097 -0.2765  0.9242
11410TIP3   OH255720   2.663   2.494   3.146 -0.2810  0.1989 -0.4581
11410TIP3    H155721   2.578   2.478   3.104 -0.9581 -1.1050  1.2764
11410TIP3    H255722   2.642   2.510   3.238  1.3763 -1.3095  0.2604
11411TIP3   OH255723   1.329   6.048  13.004  0.1775 -0.4449  0.2151
11411TIP3    H155724   1.301   6.097  12.927 -1.7294 -1.2485  0.3594
11411TIP3    H255725   1.305   6.103  13.078  0.7665 -0.2815  0.2908
11412TIP3   OH255726   5.819   6.119  12.329  0.3260  0.4774  0.4229
11412TIP3    H155727   5.835   6.116  12.423 -0.9997  1.3981  0.7064
11412TIP3    H255728   5.748   6.055  12.315 -0.3905  1.2959  0.2685
11413TIP3   OH255729   2.103   6.357  11.108 -0.3080  0.2813 -0.5190
11413TIP3    H155730   2.013   6.359  11.076 -0.5608 -3.1835 -0.4360
11413TIP3    H255731   2.094   6.350  11.203 -0.0831 -1.2999 -0.5776
11414TIP3   OH255732   6.111   1.379  16.927 -0.0927  0.0523  0.6580
11414TIP3    H155733   6.046   1.426  16.876  1.8151  0.1040 -1.9190
11414TIP3    H255734   6.183   1.440  16.937  0.0701 -0.3800  2.4615
11415TIP3   OH255735   2.238   1.307  12.858 -0.9673 -0.5125  0.3025
11415TIP3    H155736   2.275   1.371  12.798 -2.0657  1.4643  1.6166
11415TIP3    H255737   2.300   1.305  12.931 -1.4305 -0.1640  0.7131
11416TIP3   OH255738   2.151   1.110   6.612  0.1289 -0.3713 -0.3045
11416TIP3    H155739   2.087   1.039   6.608 -0.0891 -0.1337 -1.7186
11416TIP3    H255740   2.099   1.188   6.633 -0.0192 -0.2265 -1.1754
11417TIP3   OH255741   1.198   5.694  15.760  0.1541 -0.0263  0.1862
11417TIP3    H155742   1.176   5.770  15.813 -0.8861  0.7420 -1.2814
11417TIP3    H255743   1.134   5.627  15.786  0.5572 -0.1438  0.8978
11418TIP3   OH255744   0.740   3.507   2.999 -0.4044  0.1714  0.1831
11418TIP3    H155745   0.693   3.518   2.916  1.4082 -2.6550 -1.3717
11418TIP3    H255746   0.694   3.436   3.043 -0.4619  0.6674  0.9395
11419TIP3   OH255747   1.663   2.475  14.055 -0.3034  0.0320  0.3183
11419TIP3    H155748   1.683   2.392  14.098 -2.3909 -0.0421  1.2912
11419TIP3    H255749   1.685   2.542  14.120 -0.5339  0.1059  0.3232
11420TIP3   OH255750   0.377   4.171  16.871 -0.0334 -0.5431 -0.0446
11420TIP3    H155751   0.347   4.216  16.791 -2.3543  0.0640  1.0714
11420TIP3    H255752   0.343   4.081  16.861 -1.0508 -0.2438  0.5872
11421TIP3   OH255753   3.962   4.175   5.189  0.1065 -0.0589 -0.0257
11421TIP3    H155754   3.899   4.149   5.257  0.7738 -1.1644  0.2089
11421TIP3    H255755   4.046   4.179   5.236  0.5436 -0.6657 -0.7317
11422TIP3   OH255756   0.745   6.762   5.819  0.3800  0.0692  0.3063
11422TIP3    H155757   0.838   6.774   5.802  0.6042 -1.9962 -0.1818
11422TIP3    H255758   0.701   6.820   5.755  1.3107  0.1511 -0.2775
11423TIP3   OH255759   2.802   5.957   2.085 -0.1809  0.0804 -0.0488
11423TIP3    H155760   2.892   5.938   2.110 -0.3302  1.0012  1.2942
11423TIP3    H255761   2.750   5.887   2.126 -0.0039 -1.2975 -2.0090
11424TIP3   OH255762   5.751   6.004  14.243  0.1264 -0.0582 -0.2763
11424TIP3    H155763   5.834   6.052  14.235 -0.7503  1.1660 -2.9452
11424TIP3    H255764   5.747   5.948  14.165 -2.5309  1.6241 -1.4931
11425TIP3   OH255765   0.693   4.124   0.192  0.0760 -0.0915  0.2044
11425TIP3    H155766   0.665   4.159   0.108 -3.3459  1.3984  1.7743
11425TIP3    H255767   0.766   4.180   0.218 -1.2240  1.8940 -0.1935
11426TIP3   OH255768   6.831   3.545  12.671  0.0940  0.0716 -0.2219
11426TIP3    H155769   6.742   3.512  12.659 -0.3320  1.5641 -1.5262
11426TIP3    H255770   6.879   3.509  12.596  0.1281  0.7058 -0.5112
11427TIP3   OH255771   0.933   1.868   2.516 -0.4663 -0.2330  0.5919
11427TIP3    H155772   0.919   1.784   2.474 -0.1136  0.2920 -0.6151
11427TIP3    H255773   0.922   1.850   2.610 -0.5147 -1.5807  0.3483
11428TIP3   OH255774   1.255   5.687  15.301 -0.0489  0.5939 -0.1945
11428TIP3    H155775   1.292   5.601  15.315  0.2394  0.8831  0.8691
11428TIP3    H255776   1.248   5.726  15.388 -0.3719  1.5628 -0.6303
11429TIP3   OH255777   3.245   0.896  12.605 -0.3585 -0.1521  0.1147
11429TIP3    H155778   3.229   0.983  12.568  2.2077  0.7273  0.8125
11429TIP3    H255779   3.269   0.912  12.696 -0.9609 -1.7343  0.5867
11430TIP3   OH255780   6.428   4.322  16.573 -0.5912  0.1812  0.6503
11430TIP3    H155781   6.394   4.346  16.487  0.5334  2.3976  0.7564
11430TIP3    H255782   6.409   4.398  16.628  0.1980 -0.5220  1.9321
11431TIP3   OH255783   4.235   3.691  15.074  0.9756 -0.3160  0.5689
11431TIP3    H155784   4.184   3.764  15.109  0.8661 -0.5610  0.9219
11431TIP3    H255785   4.323   3.703  15.111  0.9821 -0.3137  0.5526
11432TIP3   OH255786   3.300   5.787   0.346  0.4772  0.3638 -0.1454
11432TIP3    H155787   3.265   5.699   0.357  0.6958  0.4342  1.3511
11432TIP3    H255788   3.395   5.774   0.341  0.4766  0.4696 -0.4217
11433TIP3   OH255789   4.502   5.257   5.990  0.6033 -0.1979  0.1379
11433TIP3    H155790   4.466   5.170   5.971 -1.5339  0.9322 -1.3793
11433TIP3    H255791   4.436   5.299   6.044  0.7588  1.0720 -0.6275
11434TIP3   OH255792   0.899   5.095   2.430  0.0142 -0.1547 -1.1308
11434TIP3    H155793   0.981   5.047   2.440  0.6082  0.5333 -2.4464
11434TIP3    H255794   0.865   5.067   2.345  0.4132  1.7695 -1.9685
11435TIP3   OH255795   5.767   3.171   3.341  0.5437  0.0241  0.0645
11435TIP3    H155796   5.681   3.197   3.373  0.4647  1.2891 -1.0890
11435TIP3    H255797   5.816   3.147   3.420 -0.1172  1.5784  0.9937
11436TIP3   OH255798   3.383   4.859   4.195 -0.3367  0.6288 -0.0887
11436TIP3    H155799   3.416   4.872   4.106 -0.8702  0.6832 -0.2823
11436TIP3    H255800   3.321   4.930   4.208 -1.9785 -0.6564 -0.5248
11437TIP3   OH255801   2.415   6.065  16.043 -0.5873 -0.2761  0.0375
11437TIP3    H155802   2.473   6.076  16.118 -1.1624  3.1482  0.1541
11437TIP3    H255803   2.360   5.990  16.066  0.5224 -0.5141  2.1575
11438TIP3   OH255804   2.463   1.235  15.232 -0.3867 -0.2456 -0.0712
11438TIP3    H155805   2.453   1.158  15.175 -2.7338 -0.3400  0.3458
11438TIP3    H255806   2.431   1.308  15.180  0.3260  0.1752  0.0823
11439TIP3   OH255807   2.565   2.494   3.711  0.1610  0.0771  0.3721
11439TIP3    H155808   2.553   2.578   3.755  0.0806  0.9486 -1.2370
11439TIP3    H255809   2.477   2.470   3.682  0.1811 -0.5984  0.8329
11440TIP3   OH255810   2.756   1.423   0.327 -0.1959  0.3582 -0.3632
11440TIP3    H155811   2.746   1.409   0.233 -2.1531  0.9027 -0.2849
11440TIP3    H255812   2.698   1.357   0.367  2.0382 -1.1499  0.5794
11441TIP3   OH255813   0.125   5.769   0.064  0.5404 -0.5727  0.0762
11441TIP3    H155814   0.098   5.860   0.073  0.5874 -0.6308  0.8003
11441TIP3    H255815   0.043   5.720   0.061  0.5288 -0.5915  0.6184
11442TIP3   OH255816   4.039   6.473  11.026  0.2407  0.0357 -0.1040
11442TIP3    H155817   4.088   6.530  11.085 -0.8074 -1.0742  1.9793
11442TIP3    H255818   3.954   6.516  11.014 -0.1237 -0.4811  0.5243
11443TIP3   OH255819   4.861   0.969   0.371  0.0437  0.0461 -0.2491
11443TIP3    H155820   4.926   1.025   0.413  0.1546 -0.7739  0.6989
11443TIP3    H255821   4.835   1.018   0.292 -0.4096  1.7941  0.9189
11444TIP3   OH255822   1.842   4.345  15.313  0.5078  0.5687  0.0954
11444TIP3    H155823   1.760   4.318  15.354 -0.0384 -0.6676 -1.6611
11444TIP3    H255824   1.816   4.414  15.252  0.6585 -0.1738 -0.8313
11445TIP3   OH255825   3.731   0.888  11.202 -0.1662 -0.0507  0.3792
11445TIP3    H155826   3.763   0.961  11.148 -0.3297 -1.2609 -1.4467
11445TIP3    H255827   3.811   0.849  11.238  0.1469 -0.4754 -0.7108
11446TIP3   OH255828   3.404   3.764  15.526 -0.5674 -0.2557 -0.5841
11446TIP3    H155829   3.414   3.703  15.599 -3.0837 -1.0682 -0.8426
11446TIP3    H255830   3.492   3.802  15.515  0.2740 -1.3101  1.7614
11447TIP3   OH255831   0.447   2.632   2.019 -0.1920  0.1051  0.0306
11447TIP3    H155832   0.510   2.627   1.948 -0.0202 -0.8605  0.2270
11447TIP3    H255833   0.374   2.575   1.991  0.8498 -2.1411  1.5223
11448TIP3   OH255834   4.400   1.029  13.337 -0.1876  0.3395  0.5970
11448TIP3    H155835   4.439   1.115  13.354 -0.8093  1.1254 -1.5546
11448TIP3    H255836   4.398   1.023  13.241 -2.1578 -1.1282  0.6842
11449TIP3   OH255837   1.462   3.306  15.135 -0.5269  0.1195  0.4733
11449TIP3    H155838   1.465   3.265  15.048  0.4957  1.6511 -0.2580
11449TIP3    H255839   1.475   3.399  15.118 -2.0461  0.6993  2.1451
11450TIP3   OH255840   2.098   2.446  15.210  0.4514  0.0863 -0.5948
11450TIP3    H155841   2.059   2.444  15.298  1.0107  2.3968 -0.2323
11450TIP3    H255842   2.183   2.487  15.223  0.6112  0.3217 -2.2033
11451TIP3   OH255843   6.283   0.951   1.511  0.4774 -0.2387 -0.2171
11451TIP3    H155844   6.304   1.002   1.433 -0.4052 -1.1678 -1.0950
11451TIP3    H255845   6.210   0.998   1.552 -0.1527 -0.6265 -0.8723
11452TIP3   OH255846   3.988   4.258  16.802  0.3336 -0.1008 -0.0453
11452TIP3    H155847   3.927   4.206  16.749 -1.2681  0.2939  1.3301
11452TIP3    H255848   3.990   4.214  16.887  2.7697 -0.6575 -0.2976
11453TIP3   OH255849   3.387   3.276  12.573  0.1708  0.1656 -0.0921
11453TIP3    H155850   3.408   3.188  12.607 -1.1445  0.4062  1.5206
11453TIP3    H255851   3.294   3.270  12.549  0.9276  0.1526 -3.4187
11454TIP3   OH255852   4.015   0.191  15.144 -0.4254  0.1324 -0.4603
11454TIP3    H155853   3.944   0.212  15.204  0.3672  0.7961  0.2728
11454TIP3    H255854   4.014   0.262  15.080 -2.6830 -1.6721 -2.6529
11455TIP3   OH255855   5.330   5.527  16.234 -0.4107 -0.2222  0.0023
11455TIP3    H155856   5.252   5.486  16.272 -0.7815 -0.4634 -0.9867
11455TIP3    H255857   5.345   5.605  16.287  0.7173 -1.9327  2.3657
11456TIP3   OH255858   0.034   1.369   2.951  0.1111 -0.8773 -0.5497
11456TIP3    H155859   0.067   1.312   2.881 -1.4466 -1.3880 -0.9009
11456TIP3    H255860   0.057   1.457   2.924 -0.6935 -1.0504 -1.8575
11457TIP3   OH255861   0.580   1.483  14.599  0.4970 -0.6823 -0.3286
11457TIP3    H155862   0.664   1.485  14.554  0.1235 -3.0179 -1.2838
11457TIP3    H255863   0.565   1.390  14.618 -2.0321 -0.4075 -0.5449
11458TIP3   OH255864   2.814   4.510   6.117 -0.1891 -0.3710 -0.2652
11458TIP3    H155865   2.820   4.501   6.022 -0.4839 -2.3341 -0.1319
11458TIP3    H255866   2.834   4.603   6.133  0.8877 -0.2221 -2.1282
11459TIP3   OH255867   4.505   5.019  11.117 -0.2971 -0.2761  0.2806
11459TIP3    H155868   4.553   5.042  11.197  1.8957 -0.2740 -0.9425
11459TIP3    H255869   4.460   5.100  11.092  0.0646  0.0986  0.8086
11460TIP3   OH255870   1.519   1.719   6.169 -0.0197 -0.0954  0.2310
11460TIP3    H155871   1.465   1.658   6.118  2.1071 -1.0142 -1.0240
11460TIP3    H255872   1.526   1.679   6.256 -1.8163  0.3693  0.6408
11461TIP3   OH255873   2.431   3.287   2.893  0.1793  0.1323 -0.0771
11461TIP3    H155874   2.441   3.222   2.963  1.7915 -1.1782 -1.4183
11461TIP3    H255875   2.450   3.238   2.813 -0.1426  1.9219 -1.3028
11462TIP3   OH255876   2.439   3.336  11.935 -0.1806 -0.4223  0.7099
11462TIP3    H155877   2.448   3.270  12.005  0.2741 -1.5809 -0.4042
11462TIP3    H255878   2.408   3.414  11.980  0.1691 -1.1180  2.2250
11463TIP3   OH255879   6.465   3.689  17.133 -0.7004  0.1988  0.1816
11463TIP3    H155880   6.511   3.654  17.210 -1.5303 -0.2130  0.5095
11463TIP3    H255881   6.505   3.644  17.059  0.8787  1.4176  0.2414
11464TIP3   OH255882   0.626   2.953   3.672  0.5868  0.2322  0.2679
11464TIP3    H155883   0.675   2.922   3.749 -1.2718 -0.2577  1.3042
11464TIP3    H255884   0.542   2.983   3.707 -0.2601  0.1222 -1.5635
11465TIP3   OH255885   5.737   0.288   3.261 -0.3541 -0.6450 -0.4867
11465TIP3    H155886   5.695   0.227   3.322  0.1465 -0.7699 -0.2621
11465TIP3    H255887   5.673   0.299   3.190 -2.3048  1.9307  1.4950
11466TIP3   OH255888   4.880   0.681   1.595  0.2371 -0.1411  0.0391
11466TIP3    H155889   4.966   0.652   1.625  0.5818 -0.1611 -0.9255
11466TIP3    H255890   4.898   0.762   1.546 -0.5649  1.0839  1.6724
11467TIP3   OH255891   6.648   4.043   0.885  0.8870  0.3974 -0.0262
11467TIP3    H155892   6.651   4.061   0.791  0.1099 -0.0182 -0.1448
11467TIP3    H255893   6.587   3.970   0.893 -0.3667  1.4935  0.9396
11468TIP3   OH255894   2.434   3.388   0.762 -0.0126  0.0026 -0.2353
11468TIP3    H155895   2.505   3.399   0.825 -0.2151 -1.0817  0.2009
11468TIP3    H255896   2.364   3.344   0.811 -0.4753 -0.1403 -1.0010
11469TIP3   OH255897   5.875   0.211  11.186 -0.5102 -0.7530  0.6018
11469TIP3    H155898   5.940   0.204  11.116 -0.1437 -0.8964  0.9484
11469TIP3    H255899   5.913   0.161  11.258 -0.4838  0.1097  1.2020
11470TIP3   OH255900   4.466   4.444  11.600  0.0003  0.0298 -0.1721
11470TIP3    H155901   4.472   4.520  11.659  0.8250 -0.1410 -0.0218
11470TIP3    H255902   4.376   4.446  11.568 -1.2516 -1.2338  2.9100
11471TIP3   OH255903   6.247   6.763   0.926  0.1542  0.1931 -0.0363
11471TIP3    H155904   6.189   6.835   0.900 -0.2908  0.1775  0.8649
11471TIP3    H255905   6.226   6.693   0.864 -1.3488 -0.0714  0.7200
11472TIP3   OH255906   0.082   3.778   4.852  0.4074  0.3751 -0.8010
11472TIP3    H155907   0.072   3.833   4.775 -0.1482 -0.0049 -1.0061
11472TIP3    H255908  -0.004   3.739   4.866  0.5756  0.2113 -0.1605
11473TIP3   OH255909   5.703   3.880   2.779  0.4630 -0.2566 -0.2273
11473TIP3    H155910   5.640   3.947   2.808 -1.2083 -1.2556 -1.3474
11473TIP3    H255911   5.681   3.804   2.832  3.0453  0.2655  1.7954
11474TIP3   OH255912   3.027   3.291   5.649 -0.0088 -0.1122 -0.1193
11474TIP3    H155913   3.013   3.236   5.725 -1.3733 -1.0267 -0.9886
11474TIP3    H255914   3.122   3.303   5.645  0.2433 -1.6336  0.6335
11475TIP3   OH255915   3.855   3.518  13.223 -0.2628 -0.1519 -0.5371
11475TIP3    H155916   3.763   3.536  13.244 -0.6427  0.0851 -2.2819
11475TIP3    H255917   3.863   3.423  13.232 -0.6092 -0.1453 -0.1224
11476TIP3   OH255918   1.556   0.499  12.783  0.9309  0.3796  0.0445
11476TIP3    H155919   1.587   0.527  12.870 -1.6493  0.7039  0.9371
11476TIP3    H255920   1.589   0.566  12.724  2.4978  0.3127  0.7646
11477TIP3   OH255921   1.324   6.287   4.317 -0.2362  0.5145  0.1932
11477TIP3    H155922   1.304   6.247   4.402 -0.9159  2.6354  1.1033
11477TIP3    H255923   1.381   6.224   4.274 -0.0478 -0.7345  2.1281
11478TIP3   OH255924   1.014   3.800   1.752  0.1701 -0.1622  0.1270
11478TIP3    H155925   1.085   3.766   1.697  0.8070 -1.4320  1.6518
11478TIP3    H255926   1.040   3.889   1.773 -0.2072  0.4296 -1.7866
11479TIP3   OH255927   1.166   1.548  13.385  0.1134 -0.0140 -0.1982
11479TIP3    H155928   1.181   1.554  13.291 -0.4502  0.0667 -0.2883
11479TIP3    H255929   1.139   1.637  13.410  1.8365  0.4048  0.3392
11480TIP3   OH255930   0.578   3.231  15.748 -0.3092  0.2978  0.0268
11480TIP3    H155931   0.486   3.248  15.768 -0.3035  2.0818 -1.2629
11480TIP3    H255932   0.626   3.302  15.790  0.2825  0.4487 -0.8607
11481TIP3   OH255933   5.164   5.517  10.489  0.1044 -0.0919  0.2777
11481TIP3    H155934   5.097   5.477  10.433  0.7399 -1.6562  0.5775
11481TIP3    H255935   5.115   5.552  10.564 -0.4740 -0.3052  0.0080
11482TIP3   OH255936   3.937   4.593  16.109 -0.1522  0.2513  0.7593
11482TIP3    H155937   3.844   4.570  16.110 -0.4124  1.0755 -0.7302
11482TIP3    H255938   3.982   4.510  16.090 -0.4923 -0.2944  2.1846
11483TIP3   OH255939   0.215   6.104  15.804  0.2189  0.0339 -0.1363
11483TIP3    H155940   0.153   6.078  15.873  1.0839  0.0074  0.6432
11483TIP3    H255941   0.185   6.056  15.727  0.6078 -1.8261  0.7954
11484TIP3   OH255942   2.483   2.328   0.298 -0.4451  0.3767 -0.8384
11484TIP3    H155943   2.565   2.377   0.300  0.0095 -0.3850  0.5578
11484TIP3    H255944   2.492   2.267   0.225  0.5056 -0.1439 -0.2967
11485TIP3   OH255945   5.749   4.934   4.793 -0.2436  0.8458 -0.4259
11485TIP3    H155946   5.691   4.870   4.836  0.0167  0.5705 -0.4811
11485TIP3    H255947   5.837   4.909   4.821 -0.0482  0.5212 -1.2992
11486TIP3   OH255948   3.681   2.143  16.014 -0.2387  0.2792  0.7076
11486TIP3    H155949   3.737   2.155  16.091  1.1070 -0.8320 -0.0582
11486TIP3    H255950   3.693   2.224  15.964  0.6222  0.1047  0.6099
11487TIP3   OH255951   4.034   4.875  10.428  0.4459  0.2233 -0.4383
11487TIP3    H155952   4.006   4.783  10.431  1.0547  0.0534  0.4012
11487TIP3    H255953   3.968   4.918  10.373 -0.5382 -0.4756  0.1580
11488TIP3   OH255954   1.965   3.820  16.213 -0.0693 -0.0071 -0.4741
11488TIP3    H155955   2.011   3.799  16.132 -1.6831 -2.5737 -0.8421
11488TIP3    H255956   1.986   3.747  16.272 -1.0645  0.4233  0.4422
11489TIP3   OH255957   2.099   2.542  11.078  0.0313 -0.2114  0.5956
11489TIP3    H155958   2.086   2.631  11.045 -3.0821 -1.0628 -0.9621
11489TIP3    H255959   2.185   2.516  11.045  0.1383  1.5638 -0.6550
11490TIP3   OH255960   5.557   5.392   5.438  0.1332 -0.5950 -0.3838
11490TIP3    H155961   5.616   5.462   5.464  1.3322 -1.5843 -0.3589
11490TIP3    H255962   5.609   5.312   5.445 -1.2516 -1.5283 -0.2071
11491TIP3   OH255963   4.560   4.330   5.232 -0.1745 -0.1804 -0.3536
11491TIP3    H155964   4.477   4.314   5.186 -1.3992  1.3483  1.1600
11491TIP3    H255965   4.578   4.423   5.216  1.3620 -0.5248 -0.7655
11492TIP3   OH255966   0.603   5.525   0.449  0.3731 -0.1046 -0.2787
11492TIP3    H155967   0.587   5.615   0.423  1.3502  0.6996  1.7281
11492TIP3    H255968   0.580   5.522   0.542  0.2115 -1.9832 -0.3279
11493TIP3   OH255969   2.771   6.719  15.959 -0.4779  0.0881  0.5096
11493TIP3    H155970   2.738   6.809  15.952  2.9307  1.5538  0.7659
11493TIP3    H255971   2.781   6.691  15.868  0.4447  0.8721  0.3479
11494TIP3   OH255972   2.157   6.402  16.446 -0.3366 -0.0223 -0.3907
11494TIP3    H155973   2.088   6.433  16.387 -0.2805  0.6564 -0.1106
11494TIP3    H255974   2.183   6.480  16.495 -0.6327 -0.6274  0.7797
11495TIP3   OH255975   6.095   1.942   1.611 -0.1033  0.0890 -0.5749
11495TIP3    H155976   6.013   1.964   1.566 -1.2123  0.1049  1.3504
11495TIP3    H255977   6.095   1.846   1.614 -1.5852  0.0737  1.9239
11496TIP3   OH255978   1.894   2.073  16.654  0.4277 -0.2704  0.0882
11496TIP3    H155979   1.963   2.024  16.608  2.3766  0.3965  2.0845
11496TIP3    H255980   1.878   2.150  16.599 -0.3859 -1.5059 -1.4959
11497TIP3   OH255981   2.694   3.522   4.033  0.3302  0.5012 -0.6403
11497TIP3    H155982   2.771   3.570   4.064 -0.1793  0.4236  0.8279
11497TIP3    H255983   2.637   3.518   4.110 -0.2107 -1.3075 -1.1048
11498TIP3   OH255984   6.670   1.060   2.581 -0.3082 -0.2983 -0.1958
11498TIP3    H155985   6.738   1.096   2.524 -1.7012 -0.1848 -1.8521
11498TIP3    H255986   6.683   0.965   2.578  0.6453 -0.2217  0.6831
11499TIP3   OH255987   0.021   5.858  13.958  0.2252  0.0954  0.2174
11499TIP3    H155988   0.055   5.775  13.994 -0.3888 -0.2070  0.1168
11499TIP3    H255989  -0.037   5.892  14.027 -0.8819 -0.4390 -0.4155
11500TIP3   OH255990   3.863   5.243  13.084 -0.1095 -0.5929 -0.2977
11500TIP3    H155991   3.841   5.335  13.070  1.1474 -0.1695  0.3560
11500TIP3    H255992   3.955   5.236  13.058  0.0523 -1.4602  0.4610
11501TIP3   OH255993   6.182   6.523   4.122  0.1299 -0.2054 -0.3390
11501TIP3    H155994   6.261   6.487   4.082  0.5266  0.7014 -0.4162
11501TIP3    H255995   6.214   6.586   4.186 -0.5250 -0.5950  0.3842
11502TIP3   OH255996   3.311   2.235  13.037 -0.0003 -0.5407 -0.0382
11502TIP3    H155997   3.377   2.179  12.997 -0.4807 -1.8009  0.8669
11502TIP3    H255998   3.358   2.280  13.107  0.5263  0.6793 -1.1339
11503TIP3   OH255999   6.787   5.961  15.272  0.0853 -0.2170  0.1441
11503TIP3    H156000   6.741   5.877  15.261 -1.0989  0.1983  1.5367
11503TIP3    H256001   6.846   5.966  15.197  0.2582 -2.3420  0.0656
11504TIP3   OH256002   5.966   1.653   1.247  0.1308  0.3732 -0.3153
11504TIP3    H156003   5.971   1.588   1.176  2.5420 -0.1560  0.2535
11504TIP3    H256004   5.903   1.717   1.216 -1.0324 -1.3224 -1.6728
11505TIP3   OH256005   1.859   2.301  10.340  0.0315 -0.3612  0.5812
11505TIP3    H156006   1.774   2.331  10.307 -0.5900 -1.0986  1.4705
11505TIP3    H256007   1.843   2.213  10.372  1.3207 -0.7994  0.0784
11506TIP3   OH256008   0.425   0.028   0.402  0.0534  0.3049 -0.1173
11506TIP3    H156009   0.361   0.069   0.461 -0.0590 -0.2170  0.1341
11506TIP3    H256010   0.396   0.051   0.314  0.1360  0.9689  0.0259
11507TIP3   OH256011   6.288   0.319   4.671  1.2371 -0.4596  0.8856
11507TIP3    H156012   6.237   0.400   4.669 -2.8932 -2.6981 -3.2965
11507TIP3    H256013   6.365   0.339   4.617 -0.1024  0.6114 -0.7749
11508TIP3   OH256014   0.101   1.514  15.461 -0.3881  0.1757  0.5116
11508TIP3    H156015   0.103   1.603  15.425  0.6833  0.0569  0.2401
11508TIP3    H256016   0.064   1.460  15.390  0.7224  0.1131 -0.0357
11509TIP3   OH256017   4.389   3.413  14.787 -0.1542 -0.3059  0.0591
11509TIP3    H156018   4.335   3.358  14.730  0.8164 -0.0345 -1.1648
11509TIP3    H256019   4.417   3.355  14.857 -3.2164 -0.1133  1.6262
11510TIP3   OH256020   5.670   5.532  11.045 -0.4075  0.3425  0.4633
11510TIP3    H156021   5.717   5.451  11.064  0.7693  1.2560  1.5602
11510TIP3    H256022   5.733   5.601  11.064 -1.3191  1.5259 -0.6728
11511TIP3   OH256023   3.468   4.964   5.013 -0.0390 -0.3731  0.3003
11511TIP3    H156024   3.445   4.884   5.060  0.7137 -0.9600 -0.2911
11511TIP3    H256025   3.558   4.949   4.984 -0.6277 -0.2519 -1.7435
11512TIP3   OH256026   1.426   3.048  12.871 -0.1924 -0.3990  0.4012
11512TIP3    H156027   1.412   3.142  12.856 -0.3957 -0.7562 -1.9591
11512TIP3    H256028   1.339   3.013  12.884 -0.4038 -0.6097 -1.3099
11513TIP3   OH256029   2.616   2.165   3.410  0.1839 -0.1394 -0.0866
11513TIP3    H156030   2.538   2.128   3.369  1.4552 -1.5017 -1.4042
11513TIP3    H256031   2.624   2.119   3.494 -0.8370  0.5965  0.4411
11514TIP3   OH256032   6.027   5.667  13.689  0.3553  0.2642  0.6647
11514TIP3    H156033   5.946   5.714  13.709  0.0221  0.4077 -0.9229
11514TIP3    H256034   6.031   5.598  13.755  0.5311  2.0728  2.6474
11515TIP3   OH256035   4.526   2.187   1.517  0.1046 -0.4166 -0.1091
11515TIP3    H156036   4.433   2.210   1.517  0.6313  2.0320 -0.5486
11515TIP3    H256037   4.567   2.252   1.459  2.3206 -0.3426  1.4096
11516TIP3   OH256038   6.502   3.707  16.173 -0.5798 -0.4537 -0.4968
11516TIP3    H156039   6.589   3.683  16.142 -0.5602 -0.7798 -0.2011
11516TIP3    H256040   6.448   3.630  16.154 -1.2862  0.4721 -2.5291
11517TIP3   OH256041   1.720   3.768  13.229  0.1283  0.2094  0.2112
11517TIP3    H156042   1.656   3.702  13.255 -1.1037  0.6829 -1.4806
11517TIP3    H256043   1.746   3.809  13.312 -1.6877 -0.0500  0.9662
11518TIP3   OH256044   5.249   6.697   4.739  0.7591 -0.1531  0.5132
11518TIP3    H156045   5.282   6.686   4.650  0.4900 -0.0458  0.4001
11518TIP3    H256046   5.166   6.650   4.740 -0.1356  1.3738  0.1849
11519TIP3   OH256047   3.319   6.582   5.222 -0.2431  0.3322 -0.1239
11519TIP3    H156048   3.259   6.570   5.296 -0.0721  0.1467 -0.0140
11519TIP3    H256049   3.380   6.650   5.253 -1.2614  1.5658 -0.7782
11520TIP3   OH256050   2.276   2.233   6.108  0.8565 -0.2088 -0.0245
11520TIP3    H156051   2.254   2.297   6.041 -2.0139 -0.5161  0.4714
11520TIP3    H256052   2.257   2.278   6.191 -0.2001 -1.3108  0.3648
11521TIP3   OH256053   3.171   5.542  11.828 -0.2402 -0.0558  0.3922
11521TIP3    H156054   3.146   5.551  11.736 -1.0837 -1.0822  0.5101
11521TIP3    H256055   3.098   5.581  11.876 -0.1095 -0.1355  0.6545
11522TIP3   OH256056   4.196   0.079   4.682 -0.1766  0.5038 -0.3859
11522TIP3    H156057   4.160   0.160   4.645  0.5199  1.3804  0.8006
11522TIP3    H256058   4.291   0.091   4.678 -0.0323  1.0176  2.3532
11523TIP3   OH256059   1.946   0.937   6.589 -0.2723 -0.5661  0.2902
11523TIP3    H156060   1.994   0.880   6.529 -1.5880  0.3378 -1.7205
11523TIP3    H256061   1.855   0.927   6.564 -1.1383 -1.4883  3.3668
11524TIP3   OH256062   2.271   1.474   1.266  1.0403  0.2089 -0.4280
11524TIP3    H156063   2.298   1.435   1.348  1.0765  0.5025 -0.2974
11524TIP3    H256064   2.177   1.456   1.260  1.1708 -0.3981 -0.6511
11525TIP3   OH256065   4.832   1.417   3.134 -0.8021  0.1378  0.0469
11525TIP3    H156066   4.790   1.487   3.185  0.3901  1.1534 -0.2988
11525TIP3    H256067   4.918   1.453   3.111  0.0796 -1.6731  0.3237
11526TIP3   OH256068   1.047   2.326   1.257 -0.2934 -0.3092 -0.1171
11526TIP3    H156069   1.133   2.337   1.216  0.1384 -0.4897  0.7263
11526TIP3    H256070   1.063   2.339   1.351 -1.7178  2.7598 -0.1932
11527TIP3   OH256071   5.757   5.299  13.463 -0.0085  0.5645 -0.0878
11527TIP3    H156072   5.719   5.333  13.382 -0.1286  0.6258 -0.0050
11527TIP3    H256073   5.763   5.375  13.521  0.6425  0.6474 -0.2522
11528TIP3   OH256074   1.427   5.839   1.393 -0.1000  0.0245  0.7880
11528TIP3    H156075   1.515   5.844   1.356 -0.2644  1.1996  0.5263
11528TIP3    H256076   1.430   5.762   1.450  1.4359  0.6628  1.6402
11529TIP3   OH256077   1.222   6.356  12.136  0.4121 -0.1904 -0.7252
11529TIP3    H156078   1.193   6.266  12.148 -0.9629  0.4216  1.1127
11529TIP3    H256079   1.227   6.392  12.225  3.2159  0.9080 -1.2324
11530TIP3   OH256080   0.318   5.207   5.711 -0.2141  0.0052  0.0504
11530TIP3    H156081   0.303   5.127   5.763  0.8156  0.7857  1.6267
11530TIP3    H256082   0.350   5.271   5.774 -1.6481  1.9142 -1.0511
11531TIP3   OH256083   5.974   6.451   0.372 -0.0884  0.0114  0.7478
11531TIP3    H156084   6.001   6.406   0.452  1.3888 -3.2532 -1.3517
11531TIP3    H256085   5.996   6.543   0.388  1.1146 -0.6399  3.6779
11532TIP3   OH256086   6.045   6.246   5.486  0.0914  0.2469  0.0987
11532TIP3    H156087   6.014   6.185   5.418 -3.0582  1.5321  0.1857
11532TIP3    H256088   6.065   6.327   5.439 -0.3626  0.5846  0.4715
11533TIP3   OH256089   1.121   4.947   2.477  0.3052  0.1766 -0.3546
11533TIP3    H156090   1.208   4.946   2.517  0.3562 -1.1516 -0.4691
11533TIP3    H256091   1.135   4.914   2.388 -0.5913 -2.0108  0.2596
11534TIP3   OH256092   6.782   4.627   1.343 -0.0432 -0.0870  0.7918
11534TIP3    H156093   6.780   4.722   1.329 -1.0907 -0.1743  0.2588
11534TIP3    H256094   6.725   4.613   1.419  0.2396 -0.2784  0.9723
11535TIP3   OH256095   6.484   2.938  15.040 -0.4318  0.6149 -0.3947
11535TIP3    H156096   6.394   2.937  15.075  0.3109  2.4203  1.8196
11535TIP3    H256097   6.535   2.982  15.108  1.6746  1.9674 -2.6937
11536TIP3   OH256098   6.500   2.262   4.248 -0.0722  0.1425 -0.7441
11536TIP3    H156099   6.584   2.217   4.243 -0.0412  0.0872  0.1518
11536TIP3    H256100   6.495   2.313   4.167  0.4934 -0.4224 -1.1405
11537TIP3   OH256101   4.678   1.685   2.728  0.1568  0.4275 -0.0566
11537TIP3    H156102   4.741   1.706   2.796 -0.0116  1.0197 -0.0803
11537TIP3    H256103   4.673   1.589   2.729  0.6237  0.4038  0.3315
11538TIP3   OH256104   0.281   0.306   0.003  0.1205 -0.0545 -0.6926
11538TIP3    H156105   0.333   0.375   0.044  0.6977 -0.8060 -0.1310
11538TIP3    H256106   0.232   0.350  -0.066  2.2587  0.5355 -1.9201
11539TIP3   OH256107   3.440   0.072   0.995 -0.4625 -0.2695  0.0914
11539TIP3    H156108   3.534   0.053   0.987 -0.3638  0.5137 -0.6946
11539TIP3    H256109   3.397   0.006   0.942 -0.3035 -0.1295 -0.2115
11540TIP3   OH256110   1.159   1.033   3.248  0.0024  0.5762 -0.0883
11540TIP3    H156111   1.136   1.002   3.160 -1.3908  1.2342  0.0277
11540TIP3    H256112   1.199   0.957   3.290  0.4693  0.1845 -1.2104
11541TIP3   OH256113   5.668   5.612   2.951  0.4769 -0.2036 -0.7682
11541TIP3    H156114   5.635   5.522   2.952 -0.3024  0.0439  1.0975
11541TIP3    H256115   5.749   5.608   3.002  0.9406 -0.0009 -1.4783
11542TIP3   OH256116   3.689   3.491   6.512 -0.2195  0.1991  0.4820
11542TIP3    H156117   3.622   3.457   6.453 -0.5407  0.7607  0.5120
11542TIP3    H256118   3.678   3.441   6.593  0.4045 -0.7680 -0.0076
11543TIP3   OH256119   1.495   1.212   2.841 -0.3932  0.1880 -0.5874
11543TIP3    H156120   1.436   1.158   2.789  1.3581 -0.2220 -2.2698
11543TIP3    H256121   1.458   1.211   2.929 -1.7974 -1.6423 -1.1482
11544TIP3   OH256122   4.293   2.951  11.988  0.2318 -0.2806  0.2207
11544TIP3    H156123   4.299   2.866  12.032 -0.7374 -1.4086 -1.7141
11544TIP3    H256124   4.289   2.930  11.895  0.7849  1.9503 -0.3705
11545TIP3   OH256125   1.550   5.917  13.049  0.4606  0.0983  0.7817
11545TIP3    H156126   1.471   5.962  13.019  1.9378  0.9513 -2.2531
11545TIP3    H256127   1.541   5.828  13.016  0.8881  0.2795  0.1696
11546TIP3   OH256128   3.818   4.900  14.824  0.1390 -0.1736  0.4632
11546TIP3    H156129   3.899   4.946  14.847  0.1422  0.2430 -0.3561
11546TIP3    H256130   3.782   4.949  14.750  0.0472 -1.3784 -0.3109
11547TIP3   OH256131   2.037   2.805  10.949  0.0377  0.4321 -0.1913
11547TIP3    H156132   1.977   2.867  10.991  0.1185  0.5693 -0.2781
11547TIP3    H256133   2.085   2.857  10.884  0.5288  0.4105  0.1462
11548TIP3   OH256134   3.571   6.057   0.089  0.0227 -0.6116  0.3542
11548TIP3    H156135   3.526   6.013   0.018 -0.1111 -1.3948  0.9162
11548TIP3    H256136   3.517   6.133   0.108 -1.2515 -1.7072  1.2276
11549TIP3   OH256137   0.221   5.522  12.390 -0.3752  0.1844 -0.4167
11549TIP3    H156138   0.310   5.502  12.362 -0.5518 -1.8100  0.2400
11549TIP3    H256139   0.181   5.565  12.314 -0.0975 -2.7652 -2.4263
11550TIP3   OH256140   2.225   1.023  14.445  0.2218  0.0568 -0.3290
11550TIP3    H156141   2.297   1.003  14.505  0.5310 -2.0780 -1.2975
11550TIP3    H256142   2.150   0.975  14.480 -0.0444  0.1858 -0.7120
11551TIP3   OH256143   1.404   0.096   0.754  0.1695  0.3841  0.0239
11551TIP3    H156144   1.497   0.104   0.736  0.4914 -1.2272  0.8231
11551TIP3    H256145   1.369   0.184   0.738  1.5063  0.6121 -1.9332
11552TIP3   OH256146   6.795   4.896   1.739 -0.3077  0.3559 -0.2838
11552TIP3    H156147   6.715   4.945   1.756  0.5674  1.9913 -0.6952
11552TIP3    H256148   6.842   4.896   1.823  0.6316  2.0855 -0.7470
11553TIP3   OH256149   5.700   2.449   3.029 -0.2614 -0.4000 -0.0398
11553TIP3    H156150   5.680   2.362   3.064  0.2409 -1.3690 -2.0376
11553TIP3    H256151   5.792   2.444   3.004 -0.2583  0.6660 -0.2964
11554TIP3   OH256152   4.839   1.318  16.220 -0.2440 -0.2264 -0.1206
11554TIP3    H156153   4.889   1.263  16.280 -0.1322  0.0751  0.0594
11554TIP3    H256154   4.767   1.352  16.273 -0.7908 -0.8658 -0.4384
11555TIP3   OH256155   1.825   1.347  16.366  0.0484 -0.1277  0.0991
11555TIP3    H156156   1.875   1.391  16.296 -0.6085 -1.9444 -1.6035
11555TIP3    H256157   1.879   1.358  16.444  2.1100 -0.2443 -1.2339
11556TIP3   OH256158   3.819   5.728  12.916 -0.3438 -0.2842 -0.1988
11556TIP3    H156159   3.869   5.809  12.930 -1.0956  0.5652 -2.0335
11556TIP3    H256160   3.814   5.719  12.820 -2.4087 -1.1337 -0.0657
11557TIP3   OH256161   2.184   0.309  14.765  0.2294  0.2306 -0.1115
11557TIP3    H156162   2.229   0.226  14.776 -1.2726 -0.4521  1.3633
11557TIP3    H256163   2.096   0.285  14.736  0.4460  1.4704 -1.9990
11558TIP3   OH256164   2.562   3.769  13.347  0.0528  0.0164  0.4695
11558TIP3    H156165   2.534   3.761  13.438 -1.1353 -0.8502  0.0535
11558TIP3    H256166   2.484   3.797  13.299  1.1572  2.5574 -0.0223
11559TIP3   OH256167   4.991   2.162   3.315  0.5457  0.2024  0.4932
11559TIP3    H156168   4.985   2.250   3.279 -0.4526 -0.3098 -0.6567
11559TIP3    H256169   4.929   2.161   3.388  0.4724  0.4146  0.4344
11560TIP3   OH256170   5.355   0.207  12.619  0.4548  0.0916 -0.2683
11560TIP3    H156171   5.284   0.242  12.566  0.7957 -1.0519 -1.5247
11560TIP3    H256172   5.431   0.209  12.561  0.5253 -2.5101 -0.3512
11561TIP3   OH256173   3.344   3.504   0.386 -0.2587 -0.1350  0.4300
11561TIP3    H156174   3.363   3.484   0.294  0.9451 -0.5836  0.7534
11561TIP3    H256175   3.255   3.537   0.386  0.5640  2.3901 -1.2859
11562TIP3   OH256176   0.441   6.245   6.293  0.3334  0.0816 -0.4831
11562TIP3    H156177   0.381   6.320   6.296 -0.2598 -0.3425 -1.2838
11562TIP3    H256178   0.400   6.180   6.350 -0.1691 -0.3414 -1.3118
11563TIP3   OH256179   2.051   4.535   1.571  0.2505 -0.0639 -0.2674
11563TIP3    H156180   2.035   4.619   1.614  1.4508  0.0322  0.0411
11563TIP3    H256181   2.010   4.470   1.628 -0.3497  0.2703 -0.3085
11564TIP3   OH256182   2.074   2.259   4.229 -0.0023  0.3989  0.4335
11564TIP3    H156183   2.027   2.329   4.274 -0.5972  1.4394 -1.6774
11564TIP3    H256184   2.150   2.302   4.191  0.9595 -0.6366  1.1207
11565TIP3   OH256185   2.477   0.086  15.299  0.3009  0.2831  0.0501
11565TIP3    H156186   2.389   0.058  15.274  0.1070  0.4466  0.5373
11565TIP3    H256187   2.518   0.112  15.217  0.2264 -0.6975 -0.3181
11566TIP3   OH256188   5.454   0.313  14.664  0.5499 -0.4243 -0.6543
11566TIP3    H156189   5.497   0.366  14.731  0.5822 -1.7558  0.4213
11566TIP3    H256190   5.524   0.286  14.606  0.7557 -0.4461 -0.3972
11567TIP3   OH256191   5.906   6.487  11.165  0.7041 -0.3491  0.1569
11567TIP3    H156192   5.909   6.543  11.087 -0.4637 -0.3607  0.0794
11567TIP3    H256193   5.976   6.520  11.222  2.2983 -1.0245 -1.3202
11568TIP3   OH256194   0.436   0.396  14.160  0.5180  0.1031 -0.1570
11568TIP3    H156195   0.395   0.356  14.237  1.5993 -2.0651 -0.6290
11568TIP3    H256196   0.386   0.361  14.086  1.6204 -0.6177 -0.5942
11569TIP3   OH256197   5.464   4.495  12.827 -0.1379  0.3355  0.1363
11569TIP3    H156198   5.558   4.498  12.809 -0.1544 -1.4524 -0.4460
11569TIP3    H256199   5.428   4.567  12.776  0.7499  0.1444 -0.7989
11570TIP3   OH256200   3.286   5.266  15.137 -0.1264 -0.1948 -0.9511
11570TIP3    H156201   3.356   5.331  15.138 -0.6894  0.4390  0.0486
11570TIP3    H256202   3.215   5.307  15.187  0.0052 -2.1363  0.9536
11571TIP3   OH256203   4.334   3.981  12.121  0.0398  0.0105 -0.2876
11571TIP3    H156204   4.292   3.927  12.054  0.4071 -0.3062 -0.2653
11571TIP3    H256205   4.426   3.956  12.118  0.2055  0.6043 -0.2431
11572TIP3   OH256206   3.785   3.926  14.358  0.2079 -0.4997 -0.5445
11572TIP3    H156207   3.783   4.018  14.385 -0.4196 -0.3505 -1.0685
11572TIP3    H256208   3.698   3.910  14.320 -0.3553 -1.8148  1.1645
11573TIP3   OH256209   1.050   0.640  11.359  0.3373  0.2867  0.2694
11573TIP3    H156210   1.100   0.717  11.332  0.1498  0.2313 -0.2488
11573TIP3    H256211   1.043   0.587  11.279  1.7524 -1.0027  0.9322
11574TIP3   OH256212   1.419   5.075  16.592 -0.1283 -0.1033 -0.0547
11574TIP3    H156213   1.477   5.018  16.643  0.5812  0.4277 -0.2539
11574TIP3    H256214   1.351   5.101  16.654 -0.5088 -1.2132  0.0205
11575TIP3   OH256215   5.365   0.188  10.470 -0.4182 -0.2238 -0.6752
11575TIP3    H156216   5.444   0.235  10.441 -0.8570  1.7541  1.0749
11575TIP3    H256217   5.316   0.253  10.521 -1.4438 -2.3778  1.2840
11576TIP3   OH256218   3.278   6.473  10.510  0.0295  0.7418  1.0243
11576TIP3    H156219   3.209   6.414  10.541  0.1044  1.5202  2.7467
11576TIP3    H256220   3.285   6.540  10.578  0.8904  1.9807 -0.2397
11577TIP3   OH256221   3.623   0.562  12.118  0.0115  0.0047  0.4676
11577TIP3    H156222   3.537   0.601  12.103  1.2293  2.4847 -0.7933
11577TIP3    H256223   3.648   0.525  12.034  0.8052  0.7902  0.3359
11578TIP3   OH256224   6.749   5.174   2.382 -0.9360  0.6146 -0.4227
11578TIP3    H156225   6.775   5.267   2.386 -0.3042  0.4168  0.4090
11578TIP3    H256226   6.805   5.131   2.446 -0.4370 -0.5418 -1.5778
11579TIP3   OH256227   3.865   2.390  11.488  0.3216 -0.1011  0.1058
11579TIP3    H156228   3.885   2.326  11.419  1.4328  0.8296 -0.4825
11579TIP3    H256229   3.816   2.341  11.553  1.3448 -1.6206 -0.2124
11580TIP3   OH256230   4.262   4.720  14.829  0.4457  0.2176 -0.1739
11580TIP3    H156231   4.291   4.803  14.791 -1.0882  2.0991  2.3324
11580TIP3    H256232   4.339   4.685  14.873  0.7695  1.1638  0.0333
11581TIP3   OH256233   2.979   2.339  11.208  0.1102 -0.6087 -0.2491
11581TIP3    H156234   2.953   2.369  11.121  1.7933 -0.2210 -0.6490
11581TIP3    H256235   3.024   2.256  11.191 -0.2951 -0.9562  0.3522
11582TIP3   OH256236   6.251   3.192  12.420  0.5042  0.0988 -0.3384
11582TIP3    H156237   6.281   3.159  12.335  0.7126  1.0447 -0.6435
11582TIP3    H256238   6.181   3.254  12.399  0.5157  0.2935  0.1804
11583TIP3   OH256239   6.198   3.757   0.676  0.2546 -0.8966 -0.1412
11583TIP3    H156240   6.123   3.721   0.628 -0.2523 -0.9782  0.7020
11583TIP3    H256241   6.245   3.809   0.611 -1.3411  0.3759 -0.3210
11584TIP3   OH256242   4.643   4.258   1.940 -0.0461  0.4250 -0.3847
11584TIP3    H156243   4.704   4.191   1.972  0.6814  1.2419  0.0165
11584TIP3    H256244   4.566   4.250   1.997 -0.2808 -0.5525 -0.8277
11585TIP3   OH256245   6.744   0.954  16.655 -0.0186  0.5036 -0.1710
11585TIP3    H156246   6.754   0.905  16.573 -1.2670  0.2752 -0.1978
11585TIP3    H256247   6.650   0.969  16.663 -0.0699 -0.6129  1.8866
11586TIP3   OH256248   1.805   4.072  10.483 -0.2125 -0.8367 -0.1941
11586TIP3    H156249   1.830   4.046  10.572 -0.0375 -0.8944 -0.2596
11586TIP3    H256250   1.734   4.135  10.496  1.1645  0.7369  0.0746
11587TIP3   OH256251   5.384   3.244  16.108  0.1667  0.2258 -0.2782
11587TIP3    H156252   5.315   3.310  16.113  0.5621  0.6037  0.5072
11587TIP3    H256253   5.348   3.174  16.055 -0.8144  0.4290  0.1067
11588TIP3   OH256254   3.496   0.298   1.600  0.0464  0.1271  0.4911
11588TIP3    H156255   3.434   0.321   1.532 -0.8996 -0.0045  1.2876
11588TIP3    H256256   3.582   0.319   1.563 -0.3009 -1.3744 -1.3447
11589TIP3   OH256257   3.195   2.700   5.340 -0.5636  0.0040 -0.3036
11589TIP3    H156258   3.198   2.618   5.292 -0.1395  0.2008 -0.6284
11589TIP3    H256259   3.180   2.767   5.272  0.3359  0.3159 -0.2095
11590TIP3   OH256260   0.853   1.775  16.517  0.5643 -0.5336 -0.1719
11590TIP3    H156261   0.811   1.825  16.586 -0.7324 -2.5922  0.6402
11590TIP3    H256262   0.786   1.766  16.449  1.2826  0.0950 -0.9840
11591TIP3   OH256263   0.320   4.720   3.500  0.9186  0.8764  0.0723
11591TIP3    H156264   0.356   4.729   3.589  1.6206  0.4492 -0.1571
11591TIP3    H256265   0.274   4.636   3.501  2.2528  0.1102 -0.3912
11592TIP3   OH256266   3.744   0.246  14.546 -0.2348 -0.4287  0.0654
11592TIP3    H156267   3.722   0.210  14.632  1.1626  1.6503  1.4054
11592TIP3    H256268   3.838   0.265  14.552 -0.5069  1.6022 -1.1882
11593TIP3   OH256269   1.113   3.414  11.133  0.6168 -0.2446 -0.0444
11593TIP3    H156270   1.200   3.402  11.095  1.2160 -0.8389  1.4261
11593TIP3    H256271   1.066   3.334  11.112  0.5874 -0.1311 -0.4188
11594TIP3   OH256272   0.145   5.402  14.981  0.3977  0.3866  0.3791
11594TIP3    H156273   0.206   5.367  15.046  1.7404  0.5060 -0.7859
11594TIP3    H256274   0.192   5.475  14.940  0.4386 -0.9593 -2.1441
11595TIP3   OH256275   5.127   6.554   1.933 -0.2021 -0.0263 -0.0461
11595TIP3    H156276   5.070   6.620   1.972  1.4145  0.6201  1.3811
11595TIP3    H256277   5.215   6.579   1.962  0.5039 -2.7086  0.4301
11596TIP3   OH256278   0.454   2.698   1.414 -0.1952 -0.2788 -0.2491
11596TIP3    H156279   0.413   2.752   1.347  0.7243 -2.3374 -2.6329
11596TIP3    H256280   0.538   2.741   1.432 -0.8999  0.8613  0.4191
11597TIP3   OH256281   2.338   1.155  11.370  0.0086 -0.3805 -0.7413
11597TIP3    H156282   2.256   1.112  11.342 -0.9513  1.0370 -0.2210
11597TIP3    H256283   2.405   1.089  11.355 -1.2673 -1.7096 -0.9206
11598TIP3   OH256284   6.603   0.183  13.403  0.6443 -0.1795  0.4736
11598TIP3    H156285   6.673   0.171  13.339 -0.5079 -0.2369 -0.8275
11598TIP3    H256286   6.585   0.277  13.400  3.4246  0.6615  3.8964
11599TIP3   OH256287   6.741   3.405  16.331 -0.3378  0.0892 -0.2922
11599TIP3    H156288   6.657   3.421  16.374 -0.0085 -0.7959  0.7087
11599TIP3    H256289   6.805   3.453  16.384  0.1326 -1.3571  0.5089
11600TIP3   OH256290   4.085   1.775  12.888  0.0650 -0.0593  0.2760
11600TIP3    H156291   4.160   1.798  12.832 -0.3737  1.0806  0.1473
11600TIP3    H256292   4.082   1.679  12.884  0.9708 -0.0770 -0.4362
11601TIP3   OH256293   4.667   6.618   2.166  0.0947  0.4774 -0.4797
11601TIP3    H156294   4.746   6.594   2.214 -0.5992  0.7442  0.8404
11601TIP3    H256295   4.598   6.619   2.233 -0.8464  1.1532 -1.4366
11602TIP3   OH256296   2.512   0.863   4.978 -0.0196  0.3829 -0.0155
11602TIP3    H156297   2.426   0.842   4.942 -0.0199  1.0331 -0.4205
11602TIP3    H256298   2.494   0.924   5.049  0.1291  0.9760 -0.4707
11603TIP3   OH256299   1.079   6.350  15.871  0.2230  0.6736 -0.3250
11603TIP3    H156300   1.066   6.429  15.922  1.2899  2.0753 -2.1099
11603TIP3    H256301   1.030   6.282  15.918  2.0478  1.5683  3.1460
11604TIP3   OH256302   0.658   4.932  14.757  1.0542  0.4541  0.1207
11604TIP3    H156303   0.645   4.924  14.852  2.8348 -0.6337  0.3164
11604TIP3    H256304   0.648   5.026  14.740  1.4496  0.7843  1.5107
11605TIP3   OH256305   5.263   2.373  14.874 -0.0212 -0.3294 -0.5867
11605TIP3    H156306   5.265   2.373  14.969 -0.1793  0.9086 -0.5659
11605TIP3    H256307   5.304   2.290  14.849  0.5988 -0.3858  0.5458
11606TIP3   OH256308   5.770   3.381   2.351 -0.6019 -0.0265 -0.0459
11606TIP3    H156309   5.813   3.461   2.320  2.2003 -2.6342 -3.6709
11606TIP3    H256310   5.827   3.348   2.420 -0.5985  0.0298 -0.0216
11607TIP3   OH256311   6.345   1.751   1.598 -0.0043 -0.0379  0.9056
11607TIP3    H156312   6.331   1.659   1.620  1.3828 -1.0330 -1.8445
11607TIP3    H256313   6.281   1.768   1.528  1.2088  0.3654 -0.1341
11608TIP3   OH256314   3.404   0.339   0.144  0.3373  0.4968  0.2080
11608TIP3    H156315   3.404   0.416   0.201  0.3293  1.0728 -0.5666
11608TIP3    H256316   3.496   0.317   0.132  0.3892  1.1068 -0.5349
11609TIP3   OH256317   3.396   5.427   3.073 -0.3028  0.2087  0.0354
11609TIP3    H156318   3.430   5.340   3.091 -1.2207 -0.1052  0.3107
11609TIP3    H256319   3.374   5.426   2.980 -0.3436  0.1378  0.0460
11610TIP3   OH256320   0.983   3.358   6.288 -0.4390  0.2478 -0.0705
11610TIP3    H156321   1.051   3.292   6.301 -0.2239  0.6307  0.8763
11610TIP3    H256322   0.983   3.408   6.370  0.0964  2.0453 -1.1096
11611TIP3   OH256323   5.759   3.159   2.167  0.3335  0.3062  0.0152
11611TIP3    H156324   5.664   3.166   2.179  0.2863 -2.3410  1.9218
11611TIP3    H256325   5.796   3.192   2.249  0.9980 -0.0235 -0.1482
11612TIP3   OH256326   4.476   6.764  11.331  0.1758  1.0273  0.2310
11612TIP3    H156327   4.416   6.741  11.402 -0.0563  1.9185  0.3263
11612TIP3    H256328   4.426   6.821  11.274 -0.2051 -1.0345 -1.6134
11613TIP3   OH256329   6.660   0.373  16.538 -0.3774 -0.2148  0.6268
11613TIP3    H156330   6.643   0.345  16.628  1.4191  0.5481  1.2467
11613TIP3    H256331   6.575   0.405  16.507 -1.5232 -2.3938  1.2925
11614TIP3   OH256332   2.286   6.166  16.588  0.0726  0.1430  0.2004
11614TIP3    H156333   2.298   6.099  16.521  0.1952  1.7788 -1.4699
11614TIP3    H256334   2.262   6.245  16.540  0.0581  1.3623  2.0993
11615TIP3   OH256335   6.097   4.975  10.992  0.1083  0.2037 -0.2526
11615TIP3    H156336   6.068   4.974  11.083  1.7531 -1.3460  0.3133
11615TIP3    H256337   6.020   4.948  10.942 -1.0047  1.7007  0.5561
11616TIP3   OH256338   5.573   0.975  15.925  0.0549 -0.0354  0.0950
11616TIP3    H156339   5.550   1.048  15.983 -0.4678  1.1112 -1.4900
11616TIP3    H256340   5.667   0.987  15.908 -0.2999  1.1101 -1.2293
11617TIP3   OH256341   3.886   3.683  11.252  0.4273  0.0663 -0.1423
11617TIP3    H156342   3.975   3.713  11.269  1.1217 -1.5431 -0.7957
11617TIP3    H256343   3.886   3.591  11.278 -0.7456 -0.2434 -1.1529
11618TIP3   OH256344   3.800   3.659   1.259  0.1501 -0.1247 -0.5479
11618TIP3    H156345   3.744   3.711   1.316  0.0674  0.3433 -1.0518
11618TIP3    H256346   3.849   3.602   1.318  0.5695  0.8367  0.0367
11619TIP3   OH256347   5.422   1.428  16.926 -0.0719  0.5667 -0.5538
11619TIP3    H156348   5.484   1.356  16.921 -0.2949  0.1016  2.0324
11619TIP3    H256349   5.476   1.505  16.945 -0.2227  0.0442  2.4136
11620TIP3   OH256350   0.279   0.701   1.886 -0.9366  0.8313  0.5100
11620TIP3    H156351   0.220   0.682   1.813 -0.7932 -0.5057  0.7119
11620TIP3    H256352   0.343   0.630   1.885  0.5785  2.1486  0.4217
11621TIP3   OH256353   6.696   5.688  16.124 -0.0449 -0.2495  0.0663
11621TIP3    H156354   6.713   5.654  16.212  2.2267  1.2776  0.2996
11621TIP3    H256355   6.709   5.614  16.066 -2.5879 -1.5530  1.0016
11622TIP3   OH256356   0.826   6.314  15.637 -0.6153  0.3575 -0.0674
11622TIP3    H156357   0.868   6.395  15.667 -0.3069  0.4088 -0.6325
11622TIP3    H256358   0.800   6.332  15.547 -1.7345  0.2807  0.2171
11623TIP3   OH256359   3.763   1.660   1.219 -0.1909  0.3634 -0.2435
11623TIP3    H156360   3.716   1.579   1.200 -2.3342  1.6894 -0.8790
11623TIP3    H256361   3.769   1.662   1.315  1.9436 -1.5831 -0.2429
11624TIP3   OH256362   0.830   3.777  13.815  0.0961 -0.0559 -0.3517
11624TIP3    H156363   0.789   3.801  13.899 -0.8419  0.7146 -0.9998
11624TIP3    H256364   0.772   3.710  13.779  0.2936 -0.1186 -0.5503
11625TIP3   OH256365   6.513   0.449   2.791 -0.0831  0.3743 -0.1802
11625TIP3    H156366   6.433   0.411   2.827  0.1963  0.8499  1.0030
11625TIP3    H256367   6.496   0.543   2.793  0.5628  0.4860  0.2540
11626TIP3   OH256368   1.623   3.323   5.675  0.2132  0.1194 -0.0993
11626TIP3    H156369   1.709   3.309   5.636  0.9187 -1.6488  1.9174
11626TIP3    H256370   1.632   3.405   5.723  0.1834  0.8739 -1.3470
11627TIP3   OH256371   6.469   0.343  12.274 -0.3350  0.3375 -0.1745
11627TIP3    H156372   6.441   0.333  12.365 -0.9249 -0.0605 -0.3923
11627TIP3    H256373   6.564   0.346  12.278 -0.3716  0.7143  0.4939
11628TIP3   OH256374   6.026   3.749   1.452 -0.2715 -0.1552 -0.2681
11628TIP3    H156375   5.979   3.720   1.531 -0.7695 -3.0239 -1.5003
11628TIP3    H256376   5.958   3.788   1.397 -0.3788 -0.3142 -0.2494
11629TIP3   OH256377   5.882   1.765  15.308 -0.4913 -0.0899 -0.1930
11629TIP3    H156378   5.955   1.806  15.262 -0.8475  1.9983  0.9896
11629TIP3    H256379   5.805   1.788  15.258 -0.7081  0.8658  0.5515
11630TIP3   OH256380   4.032   0.763  15.756  0.3681  0.0817 -0.0892
11630TIP3    H156381   4.045   0.764  15.851  1.7906  0.5466 -0.2583
11630TIP3    H256382   4.095   0.828  15.723 -2.5684  2.6970 -1.0915
11631TIP3   OH256383   1.915   4.672  13.883 -0.4739  0.1963  0.1431
11631TIP3    H156384   1.929   4.654  13.790  0.4567  0.9042  0.1341
11631TIP3    H256385   2.003   4.683  13.919 -0.8517  3.5737  0.3562
11632TIP3   OH256386   0.901   2.412  16.952  0.4802  0.3779  0.1752
11632TIP3    H156387   0.810   2.389  16.969  0.0004  0.0467 -2.3275
11632TIP3    H256388   0.947   2.328  16.947  0.4682  0.4115 -0.6401
11633TIP3   OH256389   4.769   1.881   2.150  0.3838 -0.0427 -0.2994
11633TIP3    H156390   4.701   1.872   2.082  1.7204 -0.2085 -1.6777
11633TIP3    H256391   4.751   1.966   2.190 -0.6283 -0.0719 -0.6477
11634TIP3   OH256392   6.432   0.192  12.745  0.2946 -0.3786 -0.0318
11634TIP3    H156393   6.421   0.210  12.652 -1.4584  2.3619  0.5839
11634TIP3    H256394   6.525   0.169  12.754  0.5535 -0.4907 -2.4038
11635TIP3   OH256395   0.868   1.242   2.191  0.0174 -0.1222 -0.5125
11635TIP3    H156396   0.835   1.245   2.281 -0.4070 -1.1391 -0.6216
11635TIP3    H256397   0.896   1.332   2.173 -0.6664  0.2804  0.3455
11636TIP3   OH256398   3.557   0.433  16.067 -0.2293  0.2851  0.4638
11636TIP3    H156399   3.579   0.377  15.993 -0.0575  2.4711 -1.2133
11636TIP3    H256400   3.637   0.439  16.118 -0.3271 -1.1581  0.8563
11637TIP3   OH256401   0.319   4.858  16.301 -0.5573  0.5741 -0.6156
11637TIP3    H156402   0.310   4.846  16.396  2.6452 -1.5550 -0.4486
11637TIP3    H256403   0.278   4.943  16.285 -2.0662  0.5928  2.4960
11638TIP3   OH256404   1.863   3.003   4.415 -0.2155  0.3269  0.1306
11638TIP3    H156405   1.828   2.915   4.425 -1.7526  0.9461  0.3927
11638TIP3    H256406   1.786   3.060   4.413  0.6806  1.5645 -1.2012
11639TIP3   OH256407   2.609   4.443  14.079 -0.5457  0.1125  0.1530
11639TIP3    H156408   2.588   4.483  13.995 -0.0382  1.4140  0.6213
11639TIP3    H256409   2.695   4.403  14.067  1.6458  4.0666  1.1775
11640TIP3   OH256410   4.682   6.723   2.733 -0.1030 -0.2744 -0.5052
11640TIP3    H156411   4.644   6.643   2.770 -0.1540  0.0496  0.1596
11640TIP3    H256412   4.660   6.791   2.797 -0.3431  0.3341 -1.2186
11641TIP3   OH256413   6.580   3.481  12.647  0.4827  0.9276  0.2872
11641TIP3    H156414   6.523   3.448  12.716 -0.1889  0.6928 -0.3564
11641TIP3    H256415   6.530   3.466  12.566  0.8560  2.0337 -0.1648
11642TIP3   OH256416   1.296   1.261  10.639 -0.1243 -0.2509  0.0024
11642TIP3    H156417   1.351   1.338  10.622 -0.4201 -0.3902 -1.8556
11642TIP3    H256418   1.216   1.296  10.678  0.8180  0.0696  1.7253
11643TIP3   OH256419   5.213   1.007  14.834 -0.0996  0.4364 -0.2248
11643TIP3    H156420   5.253   0.948  14.898 -1.0662  0.5496  0.5126
11643TIP3    H256421   5.121   0.982  14.832 -0.2790  1.0996 -0.8318
11644TIP3   OH256422   3.311   0.376  15.825 -0.3013 -0.1301 -0.0520
11644TIP3    H156423   3.312   0.417  15.911 -2.0621  1.7656 -0.8518
11644TIP3    H256424   3.362   0.434  15.769  0.7442 -1.2929 -0.3373
11645TIP3   OH256425   5.359   3.637  16.484 -0.0880  0.1486  0.6416
11645TIP3    H156426   5.338   3.576  16.555  0.6740 -0.9146  0.0052
11645TIP3    H256427   5.275   3.656  16.442 -0.3591 -0.3932  0.9275
11646TIP3   OH256428   6.203   1.732   3.712 -0.6829 -0.5985 -0.0044
11646TIP3    H156429   6.234   1.786   3.785  0.3199  0.1530 -0.9466
11646TIP3    H256430   6.125   1.778   3.680  0.4150  0.6017 -1.0811
11647TIP3   OH256431   4.557   2.371   5.962  0.1072 -0.9209  0.3031
11647TIP3    H156432   4.485   2.357   6.024  1.2952 -0.8665  1.7536
11647TIP3    H256433   4.551   2.463   5.939 -0.4840 -0.9929  0.1338
11648TIP3   OH256434   5.298   4.855  11.394  0.2197  0.0596 -0.1446
11648TIP3    H156435   5.343   4.774  11.414  1.1769  0.3133 -1.2065
11648TIP3    H256436   5.340   4.920  11.450  1.4640  0.3649 -1.3877
11649TIP3   OH256437   1.761   6.681   0.001 -0.0118  0.1188 -0.6302
11649TIP3    H156438   1.737   6.755   0.058 -1.1603  0.2109 -1.2088
11649TIP3    H256439   1.750   6.604   0.057  1.1418  0.3607 -0.0376
11650TIP3   OH256440   6.573   6.646  15.841  0.1146  0.0634  0.0516
11650TIP3    H156441   6.508   6.576  15.852  0.2787 -0.2133 -0.7209
11650TIP3    H256442   6.644   6.621  15.900 -0.2198  0.0577  0.4591
11651TIP3   OH256443   2.359   2.755  11.423 -0.2554 -0.5187  0.4479
11651TIP3    H156444   2.375   2.831  11.479 -1.7721 -0.7908  1.3359
11651TIP3    H256445   2.290   2.785  11.363  0.8590 -0.4574 -0.8351
11652TIP3   OH256446   5.414   1.967   0.125 -0.0212 -0.6173  0.2642
11652TIP3    H156447   5.487   1.948   0.066 -0.8176  0.2116 -1.0372
11652TIP3    H256448   5.423   2.060   0.146 -0.1127 -0.7551  0.9604
11653TIP3   OH256449   5.555   1.490   1.472 -0.2211 -0.0073 -0.2079
11653TIP3    H156450   5.599   1.505   1.556 -0.0002 -0.6458 -0.2044
11653TIP3    H256451   5.486   1.556   1.468 -0.1845  0.0701  0.4436
11654TIP3   OH256452   2.620   2.004   0.376 -0.0704 -0.6020  0.1407
11654TIP3    H156453   2.625   2.067   0.449  1.2776  0.3110 -0.7025
11654TIP3    H256454   2.690   2.030   0.317 -0.1239 -2.3205 -0.7338
11655TIP3   OH256455   2.055   3.892  11.571  0.1784  0.6650 -0.6251
11655TIP3    H156456   2.054   3.953  11.497 -0.0353  1.3819 -0.0461
11655TIP3    H256457   2.001   3.818  11.542 -1.4536  1.7589 -0.5240
11656TIP3   OH256458   6.614   3.537   3.335 -1.1650  0.1630 -0.4404
11656TIP3    H156459   6.703   3.516   3.308  0.0713  2.0970  1.8507
11656TIP3    H256460   6.569   3.559   3.253  1.3173  2.1350 -1.3829
11657TIP3   OH256461   0.534   1.908   5.019 -0.6196  0.0986 -0.0972
11657TIP3    H156462   0.467   1.840   5.016 -0.5793  0.0916 -2.0826
11657TIP3    H256463   0.531   1.948   4.932  0.1741  1.8483  0.6327
11658TIP3   OH256464   2.483   4.443   5.105 -0.5683  0.1635  0.3499
11658TIP3    H156465   2.493   4.530   5.144  0.9229 -0.7445  2.1611
11658TIP3    H256466   2.388   4.428   5.106 -1.0344  2.3493 -1.5338
11659TIP3   OH256467   5.729   5.816  11.306 -0.3816  0.5305 -0.6355
11659TIP3    H156468   5.757   5.820  11.215  2.2716  0.1284  0.0746
11659TIP3    H256469   5.792   5.872  11.353 -1.8966  1.0262  0.9189
11660TIP3   OH256470   6.477   5.865   1.048  0.0504 -0.3092  0.1440
11660TIP3    H156471   6.565   5.837   1.022  0.0785  0.0650 -0.1721
11660TIP3    H256472   6.423   5.848   0.971  0.0672  0.4874 -0.0460
11661TIP3   OH256473   4.081   6.234  11.825 -0.2235 -0.5638 -0.0905
11661TIP3    H156474   4.014   6.187  11.776  0.1698 -1.1730 -0.0542
11661TIP3    H256475   4.135   6.276  11.758 -1.5105  1.1856 -0.0875
11662TIP3   OH256476   3.310   2.470  15.169 -0.1202 -0.0883  0.0345
11662TIP3    H156477   3.282   2.427  15.249 -1.6645  0.9585  0.0854
11662TIP3    H256478   3.288   2.562  15.182  1.7666  0.5092 -0.6610
11663TIP3   OH256479   1.596   4.374   1.506 -0.0168 -0.1714 -0.0388
11663TIP3    H156480   1.607   4.395   1.599  2.0662  0.8943 -0.4594
11663TIP3    H256481   1.563   4.455   1.468 -2.0322 -0.9623 -0.1017
11664TIP3   OH256482   5.741   2.078   1.913 -0.8192  0.0787 -0.3000
11664TIP3    H156483   5.822   2.076   1.862 -0.2652 -0.1596  0.5788
11664TIP3    H256484   5.674   2.105   1.849  0.2435  2.2049 -0.6101
11665TIP3   OH256485   1.024   2.745   3.679 -0.2051  0.4265  0.0680
11665TIP3    H156486   0.994   2.767   3.767 -0.1929 -1.5627  0.6156
11665TIP3    H256487   1.007   2.651   3.670  0.6357  0.3937 -1.7196
11666TIP3   OH256488   5.572   0.713  10.974  0.5101  0.5420  0.2746
11666TIP3    H156489   5.539   0.746  10.890  0.0096  0.0332  0.2598
11666TIP3    H256490   5.662   0.688  10.956  0.7217  1.3826  0.1503
11667TIP3   OH256491   3.434   5.127   3.053 -0.3117 -0.5184  0.0548
11667TIP3    H156492   3.480   5.100   2.973  0.8002  0.9358  0.1743
11667TIP3    H256493   3.450   5.055   3.114  0.5967 -0.7079 -0.3766
11668TIP3   OH256494   0.291   1.002   5.163 -0.0299  0.6643  0.2767
11668TIP3    H156495   0.252   1.073   5.112  0.6365  0.2371 -0.8619
11668TIP3    H256496   0.229   0.987   5.234 -0.8512  1.4581 -0.2452
11669TIP3   OH256497   5.284   5.568   0.752 -0.6709  0.0140 -0.2102
11669TIP3    H156498   5.207   5.512   0.759  0.6637 -2.0847 -1.2495
11669TIP3    H256499   5.303   5.594   0.842 -1.1852 -1.4445  0.3482
11670TIP3   OH256500   3.151   6.705   5.502 -0.7144  0.0876  0.0705
11670TIP3    H156501   3.097   6.644   5.551 -0.0387 -1.5821 -1.1741
11670TIP3    H256502   3.100   6.786   5.500 -0.8945  0.1740  3.2295
11671TIP3   OH256503   2.095   5.879  17.117  0.0077 -0.3925 -0.3700
11671TIP3    H156504   2.126   5.854  17.030 -0.7303 -1.1865 -0.4203
11671TIP3    H256505   2.169   5.862  17.175  1.1941  1.9504 -1.0584
11672TIP3   OH256506   0.041   0.858  12.676 -0.3918  0.2889  0.0748
11672TIP3    H156507  -0.024   0.922  12.705 -1.8277 -1.0600 -0.0455
11672TIP3    H256508   0.035   0.787  12.740  0.4896 -0.1557 -0.3249
11673TIP3   OH256509   6.477   6.384  15.898 -0.1280  0.1669 -0.0713
11673TIP3    H156510   6.422   6.346  15.830  1.0930  0.3137 -1.1768
11673TIP3    H256511   6.559   6.335  15.893  1.0851  2.1521 -0.8027
11674TIP3   OH256512   4.100   5.932   3.891  0.1162 -0.1377  0.2789
11674TIP3    H156513   4.074   5.842   3.908  0.9693 -1.7742 -5.2888
11674TIP3    H256514   4.022   5.973   3.855  0.8271 -0.0805 -1.2717
11675TIP3   OH256515   2.258   5.743  13.235 -0.3224  0.0040 -0.3305
11675TIP3    H156516   2.165   5.734  13.257 -0.8729  2.2732 -1.4018
11675TIP3    H256517   2.277   5.668  13.179 -1.6519 -0.2292 -0.5012
11676TIP3   OH256518   4.577   2.455   3.327 -0.3357 -1.0080 -0.0981
11676TIP3    H156519   4.592   2.459   3.233 -0.1554 -1.1776 -0.0777
11676TIP3    H256520   4.527   2.374   3.340  1.6920 -2.3009  0.2036
11677TIP3   OH256521   1.719   1.132   1.705 -0.1056  0.3498 -0.2892
11677TIP3    H156522   1.631   1.098   1.721  0.7251 -1.6284  0.3122
11677TIP3    H256523   1.764   1.125   1.789  1.6231 -1.8695 -1.2854
11678TIP3   OH256524   1.304   1.326   1.501  0.2535 -0.5828 -0.0983
11678TIP3    H156525   1.362   1.304   1.574  1.7074 -0.4514 -1.1590
11678TIP3    H256526   1.364   1.339   1.427 -1.1133  0.1007 -1.1137
11679TIP3   OH256527   0.468   1.936  13.488 -0.3810  0.3074  0.0195
11679TIP3    H156528   0.446   2.027  13.471  0.2367  0.4704  0.0676
11679TIP3    H256529   0.394   1.886  13.453 -0.9619  0.8493  0.4492
11680TIP3   OH256530   6.443   6.372   3.248  0.9723  0.5131 -0.8703
11680TIP3    H156531   6.384   6.424   3.303 -0.3553  0.4609 -2.1965
11680TIP3    H256532   6.433   6.282   3.281  0.9797  0.6283 -0.5446
11681TIP3   OH256533   1.980   3.228  13.641 -0.0793 -0.0649 -0.0850
11681TIP3    H156534   1.906   3.204  13.585  1.0116 -1.2038 -1.0964
11681TIP3    H256535   1.970   3.172  13.719 -0.0911 -0.4800 -0.3805
11682TIP3   OH256536   2.436   2.935  12.970  0.2552 -0.6829  0.0747
11682TIP3    H156537   2.475   2.986  13.042 -0.1494  0.0483 -0.2191
11682TIP3    H256538   2.379   2.997  12.924  1.1117 -0.9231 -1.3690
11683TIP3   OH256539   3.943   0.442  16.508  0.3580  0.0354 -0.4578
11683TIP3    H156540   3.959   0.471  16.597  0.7264  0.6583 -0.7201
11683TIP3    H256541   3.864   0.488  16.481  0.2299 -0.1749 -0.4386
11684TIP3   OH256542   0.520   4.805  13.851  0.7436 -0.0770 -0.2859
11684TIP3    H156543   0.538   4.887  13.897 -0.8925 -0.0183  0.3381
11684TIP3    H256544   0.521   4.829  13.758  1.4642  0.3855 -0.1630
11685TIP3   OH256545   2.677   2.869   1.678  0.6832 -0.4465  0.2774
11685TIP3    H156546   2.723   2.916   1.609 -2.9685  1.5612 -1.1060
11685TIP3    H256547   2.654   2.784   1.638  0.8811 -0.3816  0.0204
11686TIP3   OH256548   5.895   6.606  17.157  0.5248 -0.1124 -0.4236
11686TIP3    H156549   5.877   6.526  17.108  0.9635  0.7657 -2.0764
11686TIP3    H256550   5.814   6.657  17.151  1.0006  0.5619 -1.3984
11687TIP3   OH256551   3.702   2.259  14.809  0.0556 -0.1505 -0.4325
11687TIP3    H156552   3.727   2.230  14.897  1.3418 -0.4430 -0.8703
11687TIP3    H256553   3.608   2.273  14.814  0.3344  1.4509  1.4493
11688TIP3   OH256554   6.362   3.259   4.961  0.1622  0.1835  0.3966
11688TIP3    H156555   6.312   3.340   4.949 -0.2672 -0.1298  0.0104
11688TIP3    H256556   6.321   3.216   5.035 -0.9628 -0.6577 -0.6649
11689TIP3   OH256557   4.523   3.871  16.144  0.4166  0.1830  0.3724
11689TIP3    H156558   4.548   3.881  16.235 -0.0439  1.2959  0.3897
11689TIP3    H256559   4.546   3.780  16.122  1.7543  0.3113  1.1964
11690TIP3   OH256560   2.052   4.949   3.679  0.1561  0.1835 -0.3180
11690TIP3    H156561   2.090   4.907   3.602 -0.9741 -0.6409 -0.4511
11690TIP3    H256562   1.957   4.939   3.667 -0.0451  0.4736  0.9368
11691TIP3   OH256563   1.650   1.379  14.500 -0.2965  0.3183 -0.5878
11691TIP3    H156564   1.650   1.349  14.409  1.6210 -0.1649 -0.4612
11691TIP3    H256565   1.570   1.341  14.537 -0.6339 -0.2294 -1.8224
11692TIP3   OH256566   2.837   2.653  12.122 -0.6172  0.4783  0.4223
11692TIP3    H156567   2.858   2.664  12.029  0.4417 -0.0710  0.5769
11692TIP3    H256568   2.818   2.741  12.153  1.5660  1.0666  0.2550
11693TIP3   OH256569   1.864   0.666  12.722 -0.1247  0.0144 -0.2188
11693TIP3    H156570   1.958   0.686  12.729 -0.1970  0.8218 -1.2496
11693TIP3    H256571   1.861   0.572  12.703  0.3622 -0.4654  1.7691
11694TIP3   OH256572   1.293   3.250   5.149  0.3853 -0.6046 -0.1487
11694TIP3    H156573   1.217   3.309   5.157  0.0301 -1.0408 -0.2432
11694TIP3    H256574   1.356   3.298   5.096  0.9839  0.5738  1.5410
11695TIP3   OH256575   0.399   2.131   0.789  0.7768  0.3435 -0.2223
11695TIP3    H156576   0.437   2.048   0.761  0.0301  0.4255 -1.5763
11695TIP3    H256577   0.320   2.141   0.735 -0.6827  0.6086  1.8263
11696TIP3   OH256578   2.945   0.480   4.832  0.2504  0.0311 -0.2386
11696TIP3    H156579   2.985   0.398   4.804 -1.9605 -1.5457  0.8831
11696TIP3    H256580   2.852   0.459   4.846 -1.1398  3.4267 -2.7196
11697TIP3   OH256581   2.159   3.630  16.850 -0.1377 -0.2078 -0.1873
11697TIP3    H156582   2.142   3.555  16.907  0.1526 -0.9403 -1.0389
11697TIP3    H256583   2.209   3.593  16.777  0.2607  0.8740 -0.4745
11698TIP3   OH256584   0.652   1.617   3.889 -0.0060  0.6261 -0.1445
11698TIP3    H156585   0.715   1.547   3.907  1.9662  2.5380  0.8744
11698TIP3    H256586   0.592   1.615   3.964 -0.3486 -0.3185 -0.4248
11699TIP3   OH256587   5.761   5.344  13.190  0.1584 -0.0485  0.1382
11699TIP3    H156588   5.800   5.431  13.185  1.4728 -0.6768 -1.5453
11699TIP3    H256589   5.829   5.285  13.158 -0.6092 -1.7612  1.4541
11700TIP3   OH256590   5.010   3.058  15.578 -0.1307 -0.2770  0.0189
11700TIP3    H156591   4.943   3.125  15.564 -1.5571 -1.7954 -0.7547
11700TIP3    H256592   4.989   2.990  15.515  0.1412 -2.2823  1.9901
11701TIP3   OH256593   1.787   1.130   4.216  0.2636 -0.0396 -0.8229
11701TIP3    H156594   1.822   1.158   4.132 -0.6846  0.5813 -1.0256
11701TIP3    H256595   1.791   1.034   4.213 -0.8004 -0.0795 -2.0610
11702TIP3   OH256596   3.708   1.452  13.381  0.1102  0.4622 -0.1456
11702TIP3    H156597   3.767   1.435  13.455  0.2712  0.1197 -0.3502
11702TIP3    H256598   3.719   1.377  13.323  1.3614  1.5542 -1.4111
11703TIP3   OH256599   5.696   3.659  14.826  0.6911  0.2208  0.8612
11703TIP3    H156600   5.780   3.700  14.805 -0.2070  1.0155 -1.6208
11703TIP3    H256601   5.662   3.710  14.899  0.5434  2.7518 -0.8342
11704TIP3   OH256602   4.474   2.519  13.152  0.7640  0.0483  0.4602
11704TIP3    H156603   4.517   2.592  13.197 -1.2205  0.0530  2.5372
11704TIP3    H256604   4.468   2.450  13.219 -0.6537 -0.6442 -0.3365
11705TIP3   OH256605   3.877   4.650   1.767 -0.3461 -0.1910  0.2184
11705TIP3    H156606   3.953   4.601   1.735 -1.1262 -1.2140 -0.1328
11705TIP3    H256607   3.867   4.722   1.704  1.1247  0.7735  1.0315
11706TIP3   OH256608   2.164   4.260  11.365  0.4270 -0.2763 -0.3534
11706TIP3    H156609   2.194   4.348  11.343 -0.3763  0.4547  1.3212
11706TIP3    H256610   2.214   4.236  11.444  0.8402 -1.4526 -0.9373
11707TIP3   OH256611   2.240   0.831  15.331  0.2420 -0.0805  0.1822
11707TIP3    H156612   2.240   0.735  15.340  0.2970 -0.1509 -0.4913
11707TIP3    H256613   2.329   0.857  15.354  0.1259 -0.1548  0.7200
11708TIP3   OH256614   4.192   6.588   3.981 -0.3022 -0.2641 -0.3760
11708TIP3    H156615   4.174   6.628   3.896 -0.8681 -1.3555 -0.7967
11708TIP3    H256616   4.223   6.500   3.960  0.8941 -0.0799  0.5180
11709TIP3   OH256617   6.223   0.966  10.443 -0.6278  0.1326 -0.0305
11709TIP3    H156618   6.142   0.939  10.399  0.1901  0.6877 -1.9798
11709TIP3    H256619   6.204   1.054  10.477 -1.8405 -0.9759  2.4118
11710TIP3   OH256620   0.273   5.668   4.076  0.9122  0.4480  0.9422
11710TIP3    H156621   0.254   5.668   4.170 -0.8148  0.0596  0.6346
11710TIP3    H256622   0.227   5.591   4.043  3.4380 -0.8067  0.0960
11711TIP3   OH256623   0.728   4.250  13.324  0.3242  0.3074 -0.5980
11711TIP3    H156624   0.767   4.183  13.268  2.4572  1.3527 -0.4979
11711TIP3    H256625   0.699   4.203  13.402  2.5678 -0.4756 -0.1482
11712TIP3   OH256626   5.905   0.156  16.637 -0.0759  0.3950  0.0167
11712TIP3    H156627   5.924   0.074  16.682 -0.5957  0.1224 -0.2511
11712TIP3    H256628   5.908   0.222  16.705  0.0924  0.1204  0.2783
11713TIP3   OH256629   3.254   2.997  14.692  0.5785 -0.3547  0.6578
11713TIP3    H156630   3.306   2.920  14.712 -0.3351 -0.3173  3.4759
11713TIP3    H256631   3.176   2.990  14.747 -0.8904  1.2195 -1.0525
11714TIP3   OH256632   6.568   0.316   1.807 -0.4695  0.0136  0.0272
11714TIP3    H156633   6.648   0.342   1.854 -0.5524 -0.5373  0.4827
11714TIP3    H256634   6.599   0.295   1.718 -0.0326 -0.6089  0.3192
11715TIP3   OH256635   5.747   2.871   2.067  0.0868  0.3643  0.2558
11715TIP3    H156636   5.668   2.920   2.090 -0.0428  0.4938 -0.4233
11715TIP3    H256637   5.811   2.894   2.133 -0.7621 -0.5599  1.4527
11716TIP3   OH256638   4.617   2.303  11.122  0.1025 -0.5496 -0.3284
11716TIP3    H156639   4.565   2.263  11.192 -0.2759 -0.3544 -0.4957
11716TIP3    H256640   4.628   2.394  11.150  0.7355 -0.6910 -0.0780
11717TIP3   OH256641   6.438   4.602  17.076  0.1841 -0.1503  0.4112
11717TIP3    H156642   6.397   4.516  17.074 -0.8411  0.3388 -0.1155
11717TIP3    H256643   6.443   4.628  16.984 -0.5988  0.8590  0.6509
11718TIP3   OH256644   6.562   0.224   1.521  0.2499 -0.4165  0.2248
11718TIP3    H156645   6.487   0.170   1.498  0.2024 -1.0085  1.6792
11718TIP3    H256646   6.575   0.280   1.444 -0.4374 -1.6545 -0.8519
11719TIP3   OH256647   5.091   4.294  16.424 -0.2433  0.0252 -0.2137
11719TIP3    H156648   5.086   4.213  16.374  2.3013  0.0357 -0.5752
11719TIP3    H256649   5.039   4.356  16.374 -1.7252 -1.1696 -0.2498
11720TIP3   OH256650   5.865   5.780  16.104  0.3144  0.3147 -0.5847
11720TIP3    H156651   5.815   5.720  16.048  1.0110 -0.3250 -0.5378
11720TIP3    H256652   5.827   5.770  16.191  0.6847 -0.3735 -0.4943
11721TIP3   OH256653   0.551   5.144  16.346  0.2947 -0.1503  0.3223
11721TIP3    H156654   0.640   5.178  16.341  0.9394 -1.9542 -2.2638
11721TIP3    H256655   0.558   5.066  16.401  0.4915 -0.6958 -0.4587
11722TIP3   OH256656   2.216   1.506  15.342 -0.0436 -0.0240 -0.0614
11722TIP3    H156657   2.192   1.424  15.384 -0.2726  0.5420  0.9546
11722TIP3    H256658   2.250   1.481  15.256 -3.0471 -0.9636 -1.0975
11723TIP3   OH256659   2.096   3.045   5.916  0.7784  0.1914  0.1936
11723TIP3    H156660   2.128   3.065   6.004  1.0211  1.0723 -0.0888
11723TIP3    H256661   2.119   2.953   5.903  0.2443 -0.1062  1.2575
11724TIP3   OH256662   5.571   0.413  13.799 -0.0016 -0.5537 -0.4875
11724TIP3    H156663   5.539   0.468  13.870 -0.8079 -0.3391 -1.0022
11724TIP3    H256664   5.633   0.469  13.751 -2.9323  1.0123 -2.7290
11725TIP3   OH256665   0.999   2.488   3.607 -0.1187  0.0353  0.3407
11725TIP3    H156666   1.034   2.406   3.642 -1.6434  0.0453  2.0626
11725TIP3    H256667   0.997   2.475   3.513  0.7589 -1.4474  0.4860
11726TIP3   OH256668   2.869   0.622   3.340 -0.5685  0.5089  0.1199
11726TIP3    H156669   2.783   0.624   3.383 -0.4106 -1.6912  0.6655
11726TIP3    H256670   2.873   0.535   3.300  1.8711  0.0537  1.1732
11727TIP3   OH256671   6.089   3.639  16.700  0.0737  0.1596  0.8462
11727TIP3    H156672   6.024   3.634  16.630  1.0339  1.7437 -0.2059
11727TIP3    H256673   6.107   3.547  16.723 -1.2384 -0.3388 -0.0350
11728TIP3   OH256674   0.184   2.443  16.270  0.1768  0.0890  0.3352
11728TIP3    H156675   0.224   2.529  16.268  0.0964  0.1216 -0.0905
11728TIP3    H256676   0.258   2.382  16.272  0.3358  0.0990 -2.1158
11729TIP3   OH256677   2.530   6.022   4.892  0.0049  0.7911 -0.1042
11729TIP3    H156678   2.614   6.020   4.938 -0.1504  0.1360  0.1633
11729TIP3    H256679   2.553   6.019   4.799  0.2693  0.4016 -0.0267
11730TIP3   OH256680   0.914   2.466   4.248  0.5786  0.4142 -0.1864
11730TIP3    H156681   0.942   2.438   4.335 -0.2254 -0.7847 -0.2862
11730TIP3    H256682   0.818   2.469   4.253  0.5728  1.5052 -0.6909
11731TIP3   OH256683   2.880   0.596  13.810 -0.0682 -0.7168  0.6524
11731TIP3    H156684   2.869   0.504  13.831  0.5873 -1.9335 -3.4581
11731TIP3    H256685   2.975   0.609  13.811 -0.0576 -0.5968 -0.3327
11732TIP3   OH256686   0.041   5.509   4.156 -0.2507 -0.7796  0.2105
11732TIP3    H156687  -0.044   5.470   4.173 -0.3707 -0.6313 -0.0481
11732TIP3    H256688   0.081   5.520   4.242 -1.4560  1.3482  0.5688
11733TIP3   OH256689   2.638   4.826  13.005  0.5243 -0.3446  0.9510
11733TIP3    H156690   2.558   4.872  13.027  0.9464  0.5683  0.6298
11733TIP3    H256691   2.618   4.734  13.021 -0.3308 -0.0587  1.6227
11734TIP3   OH256692   4.301   0.817   0.095 -0.3896 -0.0399  0.2785
11734TIP3    H156693   4.395   0.811   0.076 -0.5223 -0.5833 -0.2555
11734TIP3    H256694   4.261   0.752   0.036 -1.2624  1.3010 -0.6535
11735TIP3   OH256695   5.095   2.205  16.237  0.1975 -0.2239 -0.3047
11735TIP3    H156696   5.074   2.244  16.152  2.1547  1.8496  0.0588
11735TIP3    H256697   5.181   2.165  16.224  1.7654  2.3395  1.2011
11736TIP3   OH256698   5.753   3.138  13.294  0.3105  0.2958  0.4771
11736TIP3    H156699   5.800   3.054  13.299 -0.1036  0.0931  1.0167
11736TIP3    H256700   5.776   3.183  13.375  1.9877  1.5041 -0.5898
11737TIP3   OH256701   2.176   2.937   3.469  0.1385 -0.4934 -0.0393
11737TIP3    H156702   2.085   2.910   3.463 -0.4372  1.4546 -0.9880
11737TIP3    H256703   2.190   2.992   3.391  1.6447  0.5433  0.8926
11738TIP3   OH256704   5.344   2.959   2.614  0.7974  0.4899 -0.2827
11738TIP3    H156705   5.287   2.987   2.542  0.6570  0.2768 -0.2540
11738TIP3    H256706   5.305   3.000   2.692 -0.2730 -0.9686 -0.0200
11739TIP3   OH256707   6.712   3.771  13.317  0.0809 -0.2733  0.9458
11739TIP3    H156708   6.632   3.820  13.335 -0.6712 -0.9274 -0.4814
11739TIP3    H256709   6.760   3.825  13.255  1.1189  0.4400  2.2987
11740TIP3   OH256710   6.249   2.533   3.348  0.1961  0.4454  0.3336
11740TIP3    H156711   6.292   2.495   3.272 -1.2500 -1.5701  0.4503
11740TIP3    H256712   6.169   2.572   3.312 -0.2114 -0.0160  0.7313
11741TIP3   OH256713   0.470   5.062  16.038 -0.6465  0.1920  0.8894
11741TIP3    H156714   0.542   5.069  15.976 -0.6648 -0.6963  0.7544
11741TIP3    H256715   0.512   5.051  16.124 -0.6221  0.3020  0.8919
11742TIP3   OH256716   0.757   4.150  12.580 -0.0198  0.3941 -0.1385
11742TIP3    H156717   0.816   4.179  12.510  0.2531 -2.0189 -1.0020
11742TIP3    H256718   0.732   4.231  12.624  3.1533  1.6419 -0.3267
11743TIP3   OH256719   5.734   1.476  15.264 -0.4075  0.0473  0.2087
11743TIP3    H156720   5.741   1.435  15.350 -0.0696 -0.7550 -0.1836
11743TIP3    H256721   5.746   1.570  15.280 -3.9626  0.4212  1.4951
11744TIP3   OH256722   6.554   3.553  14.987 -0.4635 -0.7248 -0.5702
11744TIP3    H156723   6.510   3.563  14.902 -1.5099  1.3436  0.1526
11744TIP3    H256724   6.550   3.640  15.027 -0.9971 -1.8658  2.0757
11745TIP3   OH256725   5.022   0.979  12.311  0.1176  0.6375  0.4297
11745TIP3    H156726   4.964   0.904  12.295  1.2022 -0.1061 -0.1433
11745TIP3    H256727   5.109   0.946  12.290  0.9678  1.2696  2.7121
11746TIP3   OH256728   0.862   3.194   4.911  0.2064  0.0620  0.0252
11746TIP3    H156729   0.803   3.131   4.871 -1.3962  0.1235  2.1009
11746TIP3    H256730   0.947   3.176   4.872 -0.5910 -2.0491 -0.8807
11747TIP3   OH256731   5.534   0.515   3.850 -0.3083 -0.3096 -0.5507
11747TIP3    H156732   5.450   0.554   3.871  0.7246  0.5413  2.5780
11747TIP3    H256733   5.585   0.587   3.812 -0.1308 -0.0236  0.2020
11748TIP3   OH256734   3.573   4.026  12.448 -0.3024  0.1843  0.4681
11748TIP3    H156735   3.560   3.935  12.473  0.5735  0.2401  1.2048
11748TIP3    H256736   3.560   4.075  12.530  0.3448  0.6022  0.3252
11749TIP3   OH256737   1.499   1.318  15.339  0.7351 -0.1262 -0.0122
11749TIP3    H156738   1.536   1.238  15.377  2.9621  1.0665  0.5782
11749TIP3    H256739   1.576   1.373  15.321 -0.7135  1.9843 -0.1426
11750TIP3   OH256740   5.870   0.714  10.981  0.1644  0.2148  0.5844
11750TIP3    H156741   5.940   0.723  10.916 -0.5982 -0.1675 -0.3036
11750TIP3    H256742   5.899   0.642  11.037  1.0877  0.9111  1.0365
11751TIP3   OH256743   6.834   5.543  14.545 -0.5345 -0.2683  0.1945
11751TIP3    H156744   6.851   5.449  14.551 -0.9705 -0.2965  1.0248
11751TIP3    H256745   6.760   5.558  14.603  0.6254  0.8707  1.4384
11752TIP3   OH256746   4.026   3.195  13.361 -0.1481 -0.4187  0.3131
11752TIP3    H156747   3.988   3.213  13.447 -0.0962 -1.0363  0.4708
11752TIP3    H256748   3.953   3.205  13.301 -0.1483  0.1807  0.4055
11753TIP3   OH256749   1.808   4.067   5.730  0.1466  0.2313 -0.1096
11753TIP3    H156750   1.895   4.027   5.730  0.1341  0.1095 -1.9696
11753TIP3    H256751   1.819   4.149   5.778  0.8607 -0.6131  1.2044
11754TIP3   OH256752   0.645   4.913  13.102  0.3044  0.0166  0.0476
11754TIP3    H156753   0.724   4.915  13.156  0.3621  2.3695 -0.0349
11754TIP3    H256754   0.674   4.880  13.017  1.4025  1.5211 -0.2006
11755TIP3   OH256755   1.215   6.659  11.829  0.4630  0.3418  0.0394
11755TIP3    H156756   1.165   6.645  11.749  2.9875 -1.8247 -1.3342
11755TIP3    H256757   1.157   6.629  11.899 -1.1692  0.6007 -1.1491
11756TIP3   OH256758   0.639   3.174  13.930 -0.8123 -0.1975 -0.0793
11756TIP3    H156759   0.577   3.104  13.909  0.9620 -1.6848 -0.6433
11756TIP3    H256760   0.664   3.210  13.844 -0.0822 -0.3749  0.0502
11757TIP3   OH256761   2.989   3.033  12.094 -0.2946 -0.4220  0.7662
11757TIP3    H156762   2.915   3.093  12.089 -0.1330 -0.2027  1.0128
11757TIP3    H256763   3.032   3.054  12.177  0.9714  0.5480 -0.0876
11758TIP3   OH256764   2.749   0.241  13.390 -0.1446 -0.5208 -0.0661
11758TIP3    H156765   2.817   0.235  13.457 -1.2790  0.4438  1.2541
11758TIP3    H256766   2.742   0.335  13.373  0.0914 -0.7505 -1.5474
11759TIP3   OH256767   5.153   2.410   3.645 -0.2815 -0.4812  0.3427
11759TIP3    H156768   5.205   2.442   3.570 -1.1052  1.2866  0.4697
11759TIP3    H256769   5.187   2.322   3.662  0.6924 -0.4845 -1.3933
11760TIP3   OH256770   3.811   1.218  16.493 -0.0682 -0.4329 -0.1274
11760TIP3    H156771   3.783   1.275  16.565  0.7383  0.2405 -0.3413
11760TIP3    H256772   3.750   1.238  16.422 -0.2900 -0.4187  0.0658
11761TIP3   OH256773   2.624   6.802   0.657 -0.0598 -0.6304  0.4436
11761TIP3    H156774   2.710   6.844   0.661 -0.5265  0.5296 -0.9384
11761TIP3    H256775   2.615   6.757   0.741  0.8504  1.2927  1.6348
11762TIP3   OH256776   1.886   5.643   6.112 -0.0994  0.4162 -0.1257
11762TIP3    H156777   1.907   5.730   6.146  0.9296 -0.3523  1.2988
11762TIP3    H256778   1.872   5.589   6.190 -2.3181 -0.3708 -0.9791
11763TIP3   OH256779   1.653   2.247  15.534  0.1110 -0.0226 -0.1054
11763TIP3    H156780   1.718   2.273  15.598  0.8441  1.1373 -1.2836
11763TIP3    H256781   1.582   2.311  15.544  0.1635  0.0760 -0.3557
11764TIP3   OH256782   0.125   3.623  13.392  0.8171 -0.5504 -0.3687
11764TIP3    H156783   0.038   3.661  13.391  1.3008  0.6376  0.4491
11764TIP3    H256784   0.121   3.557  13.462  0.9894  0.5878  0.7448
11765TIP3   OH256785   2.552   6.217  11.892 -0.0172 -0.2938  0.4202
11765TIP3    H156786   2.569   6.125  11.909  0.6427 -0.9723 -3.1828
11765TIP3    H256787   2.602   6.263  11.959  0.0390 -2.5006  2.0001
11766TIP3   OH256788   1.976   1.705  14.952  0.2225  0.4738  0.1345
11766TIP3    H156789   1.915   1.711  14.880 -0.0656 -1.7546  0.1352
11766TIP3    H256790   2.062   1.697  14.911  0.0774 -0.5854  0.0025
11767TIP3   OH256791   6.575   3.586   0.180 -0.1068 -0.0694 -0.0045
11767TIP3    H156792   6.590   3.507   0.231  0.6262  0.2516  0.2858
11767TIP3    H256793   6.546   3.651   0.244 -2.8556 -0.6567 -0.5298
11768TIP3   OH256794   4.758   5.251  16.808  0.6389 -0.0789 -0.5206
11768TIP3    H156795   4.785   5.342  16.815 -0.3713  0.1583  0.6315
11768TIP3    H256796   4.831   5.201  16.844 -0.0551  0.5134  1.9088
11769TIP3   OH256797   4.286   2.138  15.814  0.2154  0.4454  0.2870
11769TIP3    H156798   4.216   2.195  15.843 -0.6264 -1.4326  2.1494
11769TIP3    H256799   4.346   2.132  15.888  0.1812 -1.2130  0.2179
11770TIP3   OH256800   5.768   2.677  16.402 -0.3778  0.1793 -0.1603
11770TIP3    H156801   5.701   2.614  16.377 -1.2376  1.2276 -0.5888
11770TIP3    H256802   5.786   2.726  16.321 -1.0598  1.6796  0.5580
11771TIP3   OH256803   4.974   6.165   3.440  0.1939 -0.2057  0.3407
11771TIP3    H156804   4.992   6.091   3.498  0.4785 -0.7175 -0.3982
11771TIP3    H256805   4.916   6.130   3.372  2.5026 -0.4924 -1.5935
11772TIP3   OH256806   0.201   6.736   5.568  0.5167 -0.3805  0.4142
11772TIP3    H156807   0.249   6.770   5.643  0.3836 -0.3849  0.5025
11772TIP3    H256808   0.267   6.691   5.515  0.9077  0.9921 -0.3002
11773TIP3   OH256809   4.699   1.594  13.342 -0.0116  0.5977 -0.0567
11773TIP3    H156810   4.779   1.585  13.394 -1.4275  2.1575  2.6018
11773TIP3    H256811   4.722   1.656  13.273  1.2915  0.3164  0.0925
11774TIP3   OH256812   4.807   2.139   1.311  0.2750  0.0665  0.7267
11774TIP3    H156813   4.902   2.153   1.308  0.1088  1.1255  0.0246
11774TIP3    H256814   4.772   2.194   1.241 -0.7614 -1.2057  0.2085
11775TIP3   OH256815   0.056   4.774  16.812  0.2027 -0.5830  0.1928
11775TIP3    H156816   0.030   4.731  16.731  1.2054 -1.1232  0.1415
11775TIP3    H256817  -0.009   4.745  16.876 -1.0918  0.5122 -0.5760
11776TIP3   OH256818   4.238   2.831   3.618  0.6702  0.1453 -0.2522
11776TIP3    H156819   4.285   2.781   3.685  0.2123  2.3186  1.8199
11776TIP3    H256820   4.297   2.832   3.543  0.9350 -2.9187 -0.2096
11777TIP3   OH256821   3.367   1.887   5.794  0.2155  0.1054  0.1040
11777TIP3    H156822   3.369   1.791   5.788  0.4938  0.0629  0.7212
11777TIP3    H256823   3.456   1.914   5.770  0.1152  0.2114 -0.1427
11778TIP3   OH256824   3.163   3.779   2.858  0.5320 -0.0198  0.7653
11778TIP3    H156825   3.196   3.689   2.850  0.9051  0.0747  1.2335
11778TIP3    H256826   3.222   3.821   2.919 -0.3765  0.1834  1.5249
11779TIP3   OH256827   0.031   2.309   0.207 -0.1040 -0.2429  0.3370
11779TIP3    H156828  -0.026   2.287   0.281  0.5457 -0.6175  0.7355
11779TIP3    H256829   0.106   2.352   0.247 -0.5694  1.2062 -0.2842
11780TIP3   OH256830   4.359   0.492  16.645 -0.0456 -0.1849  0.0492
11780TIP3    H156831   4.394   0.504  16.733 -2.1945 -1.4941  1.1392
11780TIP3    H256832   4.404   0.415  16.611  0.1246 -0.2189  0.3513
11781TIP3   OH256833   0.285   4.103   4.959 -0.3300 -0.3968 -0.2941
11781TIP3    H156834   0.377   4.077   4.969 -0.2966 -0.3152 -0.3937
11781TIP3    H256835   0.288   4.187   4.915 -0.4141  0.0851  0.5960
11782TIP3   OH256836   0.012   0.920  12.033  0.1505  0.2035  0.5257
11782TIP3    H156837  -0.047   0.856  11.992  1.0799  0.3459 -1.1059
11782TIP3    H256838  -0.037   0.953  12.109 -1.6345 -0.0914 -0.4562
11783TIP3   OH256839   4.766   3.548  12.158 -0.2631 -0.1542  0.1280
11783TIP3    H156840   4.775   3.536  12.253 -1.5594  0.1545  0.3095
11783TIP3    H256841   4.824   3.482  12.120  1.0035  0.3399  1.1213
11784TIP3   OH256842   4.714   4.678  13.008  0.2980  0.3481  0.0931
11784TIP3    H156843   4.646   4.640  12.953 -0.7402  3.6833 -1.1847
11784TIP3    H256844   4.671   4.696  13.091  0.8608 -1.3754  0.7911
11785TIP3   OH256845   4.100   1.668  11.625  0.2537  0.8237  0.0113
11785TIP3    H156846   4.070   1.650  11.536 -0.0095  1.6743 -0.0757
11785TIP3    H256847   4.132   1.758  11.623  1.0289  0.5703  0.5780
11786TIP3   OH256848   1.691   4.603  15.502  0.3579  0.5451 -0.0968
11786TIP3    H156849   1.675   4.509  15.495 -1.1070  0.6916  0.9037
11786TIP3    H256850   1.631   4.642  15.439  0.7811  0.8340 -0.3248
11787TIP3   OH256851   3.275   0.841   3.497 -0.1682  0.1269  0.2701
11787TIP3    H156852   3.240   0.925   3.471 -0.6562  0.7206  2.6376
11787TIP3    H256853   3.351   0.828   3.439 -1.7676  0.7386 -2.1235
11788TIP3   OH256854   2.815   4.910  12.578  0.0590  0.1288  0.3837
11788TIP3    H156855   2.911   4.916  12.574  0.0402 -0.2506 -1.6807
11788TIP3    H256856   2.792   4.950  12.662  1.8964  2.0132  0.0792
11789TIP3   OH256857   5.854   1.671   5.143  0.0456 -0.3199 -0.2667
11789TIP3    H156858   5.888   1.628   5.221 -0.0651 -1.2921 -0.7452
11789TIP3    H256859   5.913   1.644   5.073 -1.5446 -1.8778 -1.0759
11790TIP3   OH256860   1.243   0.837  14.438  0.2420  0.1269 -0.1705
11790TIP3    H156861   1.251   0.931  14.422  0.0592 -0.0276 -1.2334
11790TIP3    H256862   1.280   0.824  14.525 -2.5265  1.6308  1.3684
11791TIP3   OH256863   1.415   1.587   5.187 -0.2953 -0.1826 -0.2855
11791TIP3    H156864   1.468   1.578   5.108  0.8840  1.2866  0.2804
11791TIP3    H256865   1.354   1.658   5.167  0.9089  1.1474  0.5159
11792TIP3   OH256866   0.429   1.976  16.705  0.3673  0.3249 -0.2628
11792TIP3    H156867   0.384   2.041  16.651 -1.1688 -1.7159 -1.5959
11792TIP3    H256868   0.406   1.999  16.795 -0.3168  1.4797 -0.7068
11793TIP3   OH256869   0.822   4.755   0.964  0.1420 -0.0820 -0.1056
11793TIP3    H156870   0.828   4.839   1.009 -0.4394  2.7619 -4.6174
11793TIP3    H256871   0.909   4.716   0.971  0.7565  1.4421  1.1810
11794TIP3   OH256872   0.953   2.944  17.105 -0.3905 -0.3583 -0.4902
11794TIP3    H156873   0.946   2.849  17.108 -0.3157 -0.4729 -2.6733
11794TIP3    H256874   1.039   2.963  17.143 -0.3600 -1.1400 -0.1370
11795TIP3   OH256875   5.912   2.232  15.129 -0.1087 -0.3110 -0.9909
11795TIP3    H156876   5.881   2.323  15.137  3.0771  0.8374 -0.5518
11795TIP3    H256877   5.922   2.203  15.219  0.1840 -0.6349 -1.1285
11796TIP3   OH256878   0.606   2.054  16.222  0.4021 -0.0562  0.5845
11796TIP3    H156879   0.695   2.040  16.193 -0.3614 -1.5523 -1.2191
11796TIP3    H256880   0.592   1.990  16.291  0.1827 -1.1234 -0.4213
11797TIP3   OH256881   6.456   1.203   5.431 -0.6661 -0.1484 -0.4728
11797TIP3    H156882   6.463   1.131   5.368  2.0229 -0.3370 -0.0437
11797TIP3    H256883   6.485   1.165   5.514  0.2456  1.2824 -0.1185
11798TIP3   OH256884   3.373   3.959   4.273 -0.3911 -0.2034  0.3471
11798TIP3    H156885   3.341   4.045   4.247  1.7940  1.7213  3.3390
11798TIP3    H256886   3.296   3.915   4.309 -1.4209  0.7627 -0.6035
11799TIP3   OH256887   0.187   2.960   6.685  0.2477 -0.2228 -0.4335
11799TIP3    H156888   0.275   2.994   6.700  0.2073 -0.1538 -0.3531
11799TIP3    H256889   0.147   2.957   6.771  0.1654 -0.2385 -0.4723
11800TIP3   OH256890   5.185   6.340   2.295 -0.0093 -0.2348 -0.0928
11800TIP3    H156891   5.091   6.341   2.279 -0.2144  0.2313  1.0933
11800TIP3    H256892   5.203   6.422   2.340  1.2625  0.4859 -1.7778
11801TIP3   OH256893   5.446   3.674  10.928 -0.0993  0.3631  0.3807
11801TIP3    H156894   5.490   3.746  10.973 -0.2763  0.6744  0.0562
11801TIP3    H256895   5.457   3.692  10.835  1.0244 -0.7433  0.2750
11802TIP3   OH256896   2.718   1.238   6.072 -0.0423  0.0194 -0.2227
11802TIP3    H156897   2.751   1.201   6.154 -0.5992  1.0656  0.4988
11802TIP3    H256898   2.765   1.321   6.063 -0.9629  0.5432 -0.2614
11803TIP3   OH256899   6.265   6.524   3.400 -0.0759 -0.2844 -0.0726
11803TIP3    H156900   6.323   6.597   3.422  1.8952 -1.4107 -1.2913
11803TIP3    H256901   6.226   6.550   3.316 -0.7756  0.1227  0.3649
11804TIP3   OH256902   6.784   1.553   4.496  0.0757 -0.0770 -0.5621
11804TIP3    H156903   6.790   1.644   4.465  3.2518  0.2116  0.5730
11804TIP3    H256904   6.829   1.502   4.429  2.7813 -0.0541  1.0899
11805TIP3   OH256905   2.891   0.126   2.606  0.0128 -0.1858  0.0932
11805TIP3    H156906   2.960   0.067   2.577 -0.3522  0.3205 -1.9493
11805TIP3    H256907   2.899   0.127   2.701  1.0871 -2.1956  0.0754
11806TIP3   OH256908   1.742   2.690   1.156 -0.3327 -0.1965  0.0890
11806TIP3    H156909   1.736   2.775   1.200 -0.4991  0.0172 -0.3376
11806TIP3    H256910   1.813   2.644   1.202  0.7292  0.7217 -0.5652
11807TIP3   OH256911   2.204   3.742  15.358  0.2660  0.2722  0.2149
11807TIP3    H156912   2.280   3.793  15.383  0.0542  0.7646 -0.1269
11807TIP3    H256913   2.175   3.700  15.439  2.0830 -1.5663  0.0021
11808TIP3   OH256914   4.026   4.880   2.736 -0.1037  0.6673  0.0071
11808TIP3    H156915   4.022   4.946   2.666 -0.1181 -0.0935 -0.7344
11808TIP3    H256916   4.119   4.861   2.745  0.0512  1.9279  1.3433
11809TIP3   OH256917   5.440   1.051   0.995  0.1508  0.6419 -0.3012
11809TIP3    H156918   5.409   1.141   0.983  2.5973  1.5149 -0.5164
11809TIP3    H256919   5.486   1.030   0.914 -1.0162 -1.1438 -0.5657
11810TIP3   OH256920   1.405   1.333  16.186 -0.2654 -0.0627 -0.0722
11810TIP3    H156921   1.358   1.402  16.138  0.2725 -0.2729 -0.9309
11810TIP3    H256922   1.442   1.378  16.262 -0.5666  0.4300 -0.2100
11811TIP3   OH256923   3.139   5.576   3.187 -0.0768  0.0864 -0.2864
11811TIP3    H156924   3.184   5.603   3.107  0.4144 -0.6720 -0.2661
11811TIP3    H256925   3.201   5.520   3.233  0.6216  2.4320  1.8612
11812TIP3   OH256926   0.908   0.996   4.804 -0.2235  0.0581 -0.1787
11812TIP3    H156927   0.976   1.062   4.790 -0.5931  0.1754 -1.5733
11812TIP3    H256928   0.955   0.919   4.835  0.5375  0.2195 -0.8829
11813TIP3   OH256929   5.609   5.658  17.115  0.0142 -0.4123  0.0107
11813TIP3    H156930   5.629   5.745  17.080  0.7954  0.2996  2.0940
11813TIP3    H256931   5.513   5.657  17.120 -0.2925 -1.1429 -3.4057
11814TIP3   OH256932   2.104   1.302  14.438  0.2638  0.1998 -0.2141
11814TIP3    H156933   2.175   1.359  14.468  2.6575 -0.0718 -4.5649
11814TIP3    H256934   2.147   1.223  14.407 -2.4026 -1.5320  0.1313
11815TIP3   OH256935   1.392   2.172   5.234  0.3699  0.2283  0.1443
11815TIP3    H156936   1.429   2.084   5.231 -0.5075 -0.1412 -0.5159
11815TIP3    H256937   1.311   2.162   5.285  1.4152  1.1326  2.0849
11816TIP3   OH256938   5.909   1.447   3.093 -0.0928 -0.5082 -0.7366
11816TIP3    H156939   5.990   1.426   3.140 -1.4169 -0.1314  1.8670
11816TIP3    H256940   5.938   1.494   3.015  2.1781  0.5722  0.6512
11817TIP3   OH256941   4.023   3.799   1.899  0.0802 -0.0868  0.7090
11817TIP3    H156942   4.016   3.779   1.993  0.6629 -1.0236  0.5647
11817TIP3    H256943   4.005   3.892   1.893 -1.5953 -0.3266  1.5634
11818TIP3   OH256944   5.387   4.617   2.585 -0.0431  0.1744 -0.3454
11818TIP3    H156945   5.317   4.651   2.530  0.1662  0.4571 -0.4404
11818TIP3    H256946   5.353   4.534   2.619  0.6369 -1.1235 -2.6234
11819TIP3   OH256947   1.833   5.983  12.289  0.5009 -0.2569  0.3297
11819TIP3    H156948   1.765   6.007  12.227 -0.3398  0.9403  1.6550
11819TIP3    H256949   1.913   5.978  12.236 -0.0626  1.3625 -0.7633
11820TIP3   OH256950   6.821   0.589  17.144  0.3072  0.2161  0.2232
11820TIP3    H156951   6.855   0.673  17.113  2.6696 -0.4634  0.7699
11820TIP3    H256952   6.859   0.578  17.231 -0.6498 -1.0269  0.5139
11821TIP3   OH256953   3.960   3.726  14.309 -0.2877  0.4192 -0.3292
11821TIP3    H156954   4.045   3.725  14.354 -0.8882  1.2116  0.8678
11821TIP3    H256955   3.918   3.807  14.339 -1.7197 -0.2607 -0.4444
11822TIP3   OH256956   4.824   0.191  12.351  0.1147  0.0305 -0.9149
11822TIP3    H156957   4.769   0.201  12.428 -1.8316 -1.1261 -2.0571
11822TIP3    H256958   4.772   0.226  12.279  0.7829 -1.2187 -2.0671
11823TIP3   OH256959   1.962   3.343  12.791 -0.3226  0.1068  0.1190
11823TIP3    H156960   1.869   3.361  12.804 -0.0715  1.8088 -0.2383
11823TIP3    H256961   1.975   3.257  12.831 -2.2040 -0.5561 -0.5486
11824TIP3   OH256962   1.701   0.788   1.280 -0.4718 -0.3208  0.0894
11824TIP3    H156963   1.624   0.845   1.287 -0.0308  0.3649 -0.4959
11824TIP3    H256964   1.741   0.791   1.367 -0.9973 -0.5386  0.3479
11825TIP3   OH256965   1.058   6.324   4.199 -0.0798 -0.4359 -0.0509
11825TIP3    H156966   1.081   6.246   4.149  1.2132 -0.4385  0.5061
11825TIP3    H256967   1.134   6.339   4.256 -0.0308  1.5794 -0.5655
11826TIP3   OH256968   5.283   2.205   3.318  0.0979 -0.4474 -0.0869
11826TIP3    H156969   5.200   2.171   3.354 -0.1832 -2.2462 -2.2516
11826TIP3    H256970   5.351   2.153   3.361 -0.1038 -1.1492 -0.6089
11827TIP3   OH256971   5.013   2.618  16.168  0.0482 -0.0903  0.5432
11827TIP3    H156972   5.049   2.671  16.097  2.2555 -0.1165  1.5756
11827TIP3    H256973   4.936   2.576  16.130 -0.9368  2.6868 -0.7372
11828TIP3   OH256974   3.853   6.151   1.189  0.1222  0.1579 -0.0171
11828TIP3    H156975   3.772   6.191   1.158 -1.5533 -2.4121  0.6472
11828TIP3    H256976   3.844   6.150   1.284  0.8699 -0.2396  0.0564
11829TIP3   OH256977   5.589   1.665   5.048  0.5143 -0.2436  0.6171
11829TIP3    H156978   5.675   1.673   5.088  1.2275 -1.8464 -0.5027
11829TIP3    H256979   5.594   1.585   4.996 -1.8966 -0.7983  1.1195
11830TIP3   OH256980   0.469   3.055   1.720  0.3167  0.1413 -0.0155
11830TIP3    H156981   0.395   3.068   1.660  1.6729  0.2058 -1.7343
11830TIP3    H256982   0.540   3.107   1.682  0.7653  1.6171  2.6112
11831TIP3   OH256983   5.985   6.812   1.571  0.2874 -0.4582 -0.2872
11831TIP3    H156984   5.969   6.750   1.642 -0.7607 -0.8013 -0.8040
11831TIP3    H256985   5.898   6.834   1.538  0.7656 -0.7264 -1.8183
11832TIP3   OH256986   0.386   4.406   1.570  0.2672  0.3367 -0.7032
11832TIP3    H156987   0.298   4.408   1.607  0.8433 -2.4393  1.1810
11832TIP3    H256988   0.382   4.461   1.493 -3.0455  0.4838 -0.5407
11833TIP3   OH256989   3.619   4.486   1.065  0.7982  0.2204  0.2530
11833TIP3    H156990   3.660   4.506   0.981  0.8907  2.4951  0.7724
11833TIP3    H256991   3.693   4.481   1.127  0.6277 -0.0151  0.4374
11834TIP3   OH256992   1.184   0.890  11.263 -0.6558  0.1833 -0.2772
11834TIP3    H156993   1.280   0.889  11.260 -0.6541  0.4679 -0.4734
11834TIP3    H256994   1.163   0.925  11.349 -0.6089 -1.6264  0.5035
11835TIP3   OH256995   5.720   1.955  13.587  0.0307  0.4084  0.5704
11835TIP3    H156996   5.813   1.976  13.584  0.0634  0.3759 -3.0540
11835TIP3    H256997   5.684   1.994  13.508 -2.2311 -2.8557 -0.2368
11836TIP3   OH256998   1.709   3.455  16.015  0.4315  0.0455 -0.1708
11836TIP3    H156999   1.720   3.428  16.106 -0.6035 -0.1976 -0.1074
11836TIP3    H257000   1.638   3.400  15.982 -0.7562  1.6808 -0.4495
11837TIP3   OH257001   2.154   1.482   3.892  0.3007 -0.0682 -0.3024
11837TIP3    H157002   2.199   1.424   3.831  0.7862  0.6704 -0.6534
11837TIP3    H257003   2.221   1.544   3.921  0.0533 -0.3411  0.9027
11838TIP3   OH257004   6.181   5.115  11.659  0.1992 -0.1666 -0.4175
11838TIP3    H157005   6.210   5.203  11.638 -0.1479 -0.0307 -0.3388
11838TIP3    H257006   6.261   5.063  11.664  0.6583  0.6340  1.9422
11839TIP3   OH257007   5.304   6.244  11.955  0.1467 -0.4870  0.2689
11839TIP3    H157008   5.210   6.245  11.973  0.1927  1.0211  0.5039
11839TIP3    H257009   5.345   6.264  12.039  0.5770  0.9164 -0.2434
11840TIP3   OH257010   6.668   6.622  15.255  0.2484  0.3085  0.3473
11840TIP3    H157011   6.637   6.565  15.185 -0.5165  0.4154  0.5834
11840TIP3    H257012   6.588   6.649  15.301  0.8265 -0.8336  2.1076
11841TIP3   OH257013   4.391   2.651  14.190  0.4316 -0.3238 -0.7971
11841TIP3    H157014   4.308   2.645  14.238  1.2014  1.0198  0.8255
11841TIP3    H257015   4.404   2.564  14.153 -1.4622 -0.6896 -0.7032
11842TIP3   OH257016   0.472   5.757  16.984  0.3865 -0.0299  0.2790
11842TIP3    H157017   0.445   5.682  16.930 -1.6933 -0.2472  1.4937
11842TIP3    H257018   0.473   5.831  16.923  0.7152 -0.7169 -0.5760
11843TIP3   OH257019   5.023   6.013  14.774 -0.3466 -0.6177 -0.1857
11843TIP3    H157020   5.090   5.958  14.733  0.3616  0.2154 -0.1797
11843TIP3    H257021   5.051   6.020  14.865  0.6565  1.3084 -0.5996
11844TIP3   OH257022   0.004   6.719  12.264 -0.0468  0.0141 -0.4482
11844TIP3    H157023  -0.058   6.750  12.197  0.5143  1.5100 -0.3212
11844TIP3    H257024  -0.010   6.779  12.338  1.6886  0.5242 -0.5051
11845TIP3   OH257025   4.770   3.292  16.895  0.3422 -0.0931 -0.4051
11845TIP3    H157026   4.825   3.345  16.952 -1.8366  3.2032 -1.0982
11845TIP3    H257027   4.793   3.319  16.806 -3.2813  2.7860 -0.7315
11846TIP3   OH257028   2.130   1.433   6.493 -0.7582  0.0781 -0.6302
11846TIP3    H157029   2.133   1.520   6.532  0.5006 -0.5397  0.7651
11846TIP3    H257030   2.047   1.397   6.522 -1.3322  0.8401 -1.3008
11847TIP3   OH257031   0.397   4.807   1.003  0.2070  0.3127 -0.0607
11847TIP3    H157032   0.306   4.834   1.012  0.1435 -0.2281  1.1414
11847TIP3    H257033   0.424   4.783   1.092  0.6977 -2.0568 -0.7584
11848TIP3   OH257034   3.656   4.523   0.255  0.3533 -0.0893 -0.3587
11848TIP3    H157035   3.636   4.580   0.181 -1.5244 -0.2081 -0.0077
11848TIP3    H257036   3.681   4.583   0.325 -1.4116  0.3439 -0.0508
11849TIP3   OH257037   2.094   1.295   0.818 -0.1653  0.0704 -0.1558
11849TIP3    H157038   2.029   1.255   0.760 -1.8551 -0.1838  1.7744
11849TIP3    H257039   2.111   1.381   0.780  0.9648 -1.1101 -2.5226
11850TIP3   OH257040   4.188   5.943  13.898  0.2765 -0.0622 -0.2276
11850TIP3    H157041   4.198   6.015  13.960  0.0302 -0.2229 -0.0006
11850TIP3    H257042   4.098   5.950  13.867  0.6795  0.6304 -1.3373
11851TIP3   OH257043   6.425   0.310   0.553  0.3090 -0.0800 -0.4106
11851TIP3    H157044   6.419   0.350   0.466  0.6719  0.2758 -0.2710
11851TIP3    H257045   6.400   0.379   0.614  2.8002  0.5869 -0.0150
11852TIP3   OH257046   2.250   5.684   4.472  0.2879 -0.3085  0.6193
11852TIP3    H157047   2.264   5.745   4.399  0.5676  1.3704  2.0239
11852TIP3    H257048   2.284   5.730   4.549 -0.1951 -1.9403  1.8627
11853TIP3   OH257049   4.236   2.671   4.710  0.4696  0.0166  0.5565
11853TIP3    H157050   4.270   2.742   4.656  0.8170  0.7063  1.6557
11853TIP3    H257051   4.247   2.702   4.800 -0.9826 -0.7043  1.0005
11854TIP3   OH257052   1.530   0.277   3.156 -0.3102 -0.4321  0.4557
11854TIP3    H157053   1.461   0.248   3.217 -1.3388 -0.4256 -0.6693
11854TIP3    H257054   1.573   0.196   3.129 -0.6783 -0.5546  0.2314
11855TIP3   OH257055   5.084   4.288  13.902  0.2300  0.4122 -0.3466
11855TIP3    H157056   5.142   4.363  13.915  2.3775 -0.7969 -2.1750
11855TIP3    H257057   5.046   4.301  13.816  0.9060 -0.6992 -0.8478
11856TIP3   OH257058   4.947   2.163   6.199  0.3466  0.4004  0.0542
11856TIP3    H157059   4.910   2.183   6.113  0.5618  1.5806  0.2272
11856TIP3    H257060   4.998   2.082   6.185  0.0405  0.3523 -0.8225
11857TIP3   OH257061   1.624   2.461  16.763 -0.2915  0.2385 -0.5513
11857TIP3    H157062   1.632   2.536  16.822 -1.1087  1.3507 -1.7602
11857TIP3    H257063   1.539   2.423  16.783  0.7025 -1.2866  1.0153
11858TIP3   OH257064   3.774   6.730  12.102 -0.3154  0.0311 -0.4281
11858TIP3    H157065   3.731   6.659  12.053 -0.3357 -0.1551 -0.1443
11858TIP3    H257066   3.865   6.702  12.109  0.3544  1.3207 -2.7187
11859TIP3   OH257067   0.298   1.204  11.504  0.8006  0.3857 -0.0543
11859TIP3    H157068   0.206   1.202  11.477  0.2883 -0.3321  1.6087
11859TIP3    H257069   0.337   1.126  11.465  0.7403  0.7304 -0.8226
11860TIP3   OH257070   6.428   4.013  15.689 -0.5752 -0.0284 -0.3183
11860TIP3    H157071   6.510   4.013  15.739  0.0448 -0.6688 -1.2893
11860TIP3    H257072   6.374   3.947  15.732  0.3875 -1.4045 -1.1194
11861TIP3   OH257073   2.370   2.493   2.543  0.3195 -0.6951 -0.2159
11861TIP3    H157074   2.420   2.575   2.539 -0.5810 -0.1593 -0.6126
11861TIP3    H257075   2.427   2.428   2.501  1.0441 -0.2879  0.1162
11862TIP3   OH257076   4.800   6.607  12.588  0.4884  0.5643 -0.2811
11862TIP3    H157077   4.786   6.527  12.537 -0.5958 -1.3294  2.7069
11862TIP3    H257078   4.895   6.613  12.597  0.5805 -0.5645 -0.3090
11863TIP3   OH257079   0.349   2.810   3.079 -0.1961  0.5232 -0.4583
11863TIP3    H157080   0.345   2.723   3.119 -0.9885  0.1746 -1.2622
11863TIP3    H257081   0.434   2.845   3.106  0.3251 -0.6703 -0.4788
11864TIP3   OH257082   1.040   5.938  13.725  0.1012  0.5308 -0.2872
11864TIP3    H157083   0.989   5.881  13.783 -0.5893  2.0812  0.6816
11864TIP3    H257084   1.088   5.877  13.669  0.7210 -1.0426  1.8140
11865TIP3   OH257085   1.010   6.545   3.099 -0.1251 -0.4982 -0.0357
11865TIP3    H157086   0.961   6.625   3.081  0.0749 -0.0375  1.3527
11865TIP3    H257087   1.048   6.559   3.186  0.3136 -1.9093  0.0229
11866TIP3   OH257088   6.479   1.010  16.643 -0.2499 -0.2134 -0.0246
11866TIP3    H157089   6.481   0.973  16.554 -1.3565 -1.3180  0.3797
11866TIP3    H257090   6.402   0.971  16.683  0.2719  0.2228  1.4588
11867TIP3   OH257091   4.418   0.199   4.937  0.0033 -0.0052 -0.3723
11867TIP3    H157092   4.330   0.214   4.903  0.1326  0.1558 -0.6363
11867TIP3    H257093   4.441   0.280   4.982 -0.0553 -0.1151 -0.1418
11868TIP3   OH257094   1.178   1.142  16.387 -0.2519 -0.1914  0.6397
11868TIP3    H157095   1.124   1.200  16.441 -0.9538  1.1121 -1.3664
11868TIP3    H257096   1.132   1.137  16.304  1.1477 -1.5947 -0.0879
11869TIP3   OH257097   3.534   5.097   4.610 -0.5658  0.2080  0.6040
11869TIP3    H157098   3.591   5.109   4.533 -2.8151  1.3219 -1.0164
11869TIP3    H257099   3.559   5.168   4.669  0.0467  0.3871  0.1450
11870TIP3   OH257100   6.557   4.524   5.043 -0.3322 -0.6884 -0.2232
11870TIP3    H157101   6.504   4.604   5.049 -1.7431 -1.6815  1.5309
11870TIP3    H257102   6.516   4.473   4.974  0.9031  0.2663 -1.7345
11871TIP3   OH257103   3.790   4.356   3.086 -0.2156 -0.0939  0.2776
11871TIP3    H157104   3.713   4.313   3.049  1.6304 -1.9546 -1.7514
11871TIP3    H257105   3.759   4.396   3.167 -2.9720 -2.0500  0.3390
11872TIP3   OH257106   5.062   4.997   0.395 -0.0519 -0.3334 -0.0709
11872TIP3    H157107   5.015   4.994   0.478 -1.5278 -3.0109 -0.9006
11872TIP3    H257108   5.124   4.924   0.400  1.8354  1.1760 -0.2815
11873TIP3   OH257109   4.251   1.889  14.614  1.1278  0.3683 -0.2803
11873TIP3    H157110   4.168   1.885  14.566  0.2831  0.0523  1.1464
11873TIP3    H257111   4.284   1.977  14.598 -0.7050  1.3755  1.0318
11874TIP3   OH257112   3.128   5.124  15.504 -0.5506 -0.5905 -0.3752
11874TIP3    H157113   3.207   5.086  15.464  1.4676  0.8615  1.9163
11874TIP3    H257114   3.120   5.210  15.464 -0.3478 -0.3431  0.1082
11875TIP3   OH257115   6.765   0.207   2.429 -0.7759 -0.3734 -0.1853
11875TIP3    H157116   6.711   0.148   2.481  0.2848 -0.7905  0.4822
11875TIP3    H257117   6.840   0.154   2.403  0.4704  0.7754  0.8705
11876TIP3   OH257118   3.604   6.251   3.245 -0.2230 -0.1260 -0.2599
11876TIP3    H157119   3.684   6.231   3.294  0.0090  0.6312 -0.3103
11876TIP3    H257120   3.624   6.224   3.155  0.6717  1.7008 -0.6584
11877TIP3   OH257121   0.176   6.498   3.589 -0.2780 -0.4523 -0.0297
11877TIP3    H157122   0.197   6.408   3.566 -1.3433 -0.8444  0.5025
11877TIP3    H257123   0.080   6.501   3.592 -0.2433  0.5204  0.6405
11878TIP3   OH257124   1.245   1.433   3.148  0.3478  0.5473 -0.4360
11878TIP3    H157125   1.190   1.512   3.148 -0.9287 -0.3219 -0.1469
11878TIP3    H257126   1.263   1.417   3.240 -0.4397 -0.1935 -0.4011
11879TIP3   OH257127   2.048   5.427   2.409  0.0496 -0.2281 -0.0502
11879TIP3    H157128   2.111   5.380   2.464  0.3157 -0.1309 -0.2680
11879TIP3    H257129   2.069   5.519   2.422 -0.6563 -0.1485  0.5945
11880TIP3   OH257130   2.985   2.628   0.219  0.0330 -0.4223 -0.5539
11880TIP3    H157131   3.059   2.640   0.159  1.8458  0.8111  1.7051
11880TIP3    H257132   2.918   2.688   0.186  1.6612  1.6156 -0.4466
11881TIP3   OH257133   0.007   5.970  12.415  0.1901 -0.0137 -0.9405
11881TIP3    H157134   0.084   5.913  12.421 -0.1837 -0.3812  0.9132
11881TIP3    H257135   0.035   6.053  12.453 -0.9164 -0.8799  2.0424
11882TIP3   OH257136   1.487   1.780   3.274 -0.1149 -0.8940  0.0482
11882TIP3    H157137   1.436   1.800   3.195  0.6664  3.2622  0.3747
11882TIP3    H257138   1.422   1.767   3.343 -0.7934  0.0743 -0.3919
11883TIP3   OH257139   2.413   6.806  10.936 -0.2543 -0.3065 -0.2117
11883TIP3    H157140   2.413   6.830  10.843  0.5657 -0.3847 -0.2405
11883TIP3    H257141   2.346   6.738  10.943 -0.9302  0.2946 -0.5778
11884TIP3   OH257142   3.333   5.003  11.188 -0.0408 -0.1246 -0.0234
11884TIP3    H157143   3.416   4.961  11.166  0.6864  0.7933  0.9083
11884TIP3    H257144   3.269   4.931  11.189  0.7421 -0.8471 -0.6712
11885TIP3   OH257145   3.517   3.935  16.965  0.3817  0.2095 -0.7285
11885TIP3    H157146   3.585   3.972  16.909 -1.4073  1.3088 -2.2978
11885TIP3    H257147   3.461   4.010  16.986 -0.2498 -0.6247  0.6762
11886TIP3   OH257148   2.202   0.631   4.151 -0.2662  0.2157  0.6686
11886TIP3    H157149   2.123   0.599   4.195 -0.6852  1.2460  0.6850
11886TIP3    H257150   2.264   0.559   4.158 -1.4798 -0.9529 -0.0752
11887TIP3   OH257151   0.559   2.943  13.350 -0.1529  0.4167 -0.4978
11887TIP3    H157152   0.579   2.921  13.259  0.3234  0.6183 -0.4447
11887TIP3    H257153   0.643   2.937  13.395 -0.2725  0.9317 -0.1959
11888TIP3   OH257154   5.231   4.270  11.266  0.3505 -0.9266 -0.1388
11888TIP3    H157155   5.305   4.212  11.248 -0.5984 -2.3467  0.3334
11888TIP3    H257156   5.230   4.279  11.361  0.0204 -0.7858 -0.1522
11889TIP3   OH257157   5.444   1.404   5.879 -0.0935  0.3671 -0.1932
11889TIP3    H157158   5.529   1.360   5.888 -0.6354 -0.8928 -1.0268
11889TIP3    H257159   5.458   1.470   5.811  0.6548  1.3900  0.8908
11890TIP3   OH257160   3.241   2.413   5.587  0.1785 -0.0213  0.1368
11890TIP3    H157161   3.308   2.396   5.653  0.4729  0.9588  0.1059
11890TIP3    H257162   3.260   2.501   5.555  0.0386 -0.4703 -1.2591
11891TIP3   OH257163   4.646   0.123   2.150 -0.4670 -0.1031  0.0642
11891TIP3    H157164   4.731   0.082   2.167 -0.2825 -0.6363 -1.8300
11891TIP3    H257165   4.667   0.214   2.132 -0.2809 -0.2232 -0.3507
11892TIP3   OH257166   1.919   6.717  15.019  0.0387  0.2898  0.5576
11892TIP3    H157167   1.931   6.782  14.950 -1.3748 -0.4412 -0.4330
11892TIP3    H257168   1.972   6.642  14.990  0.2875  0.3681  0.8100
11893TIP3   OH257169   4.407   3.968  12.492  0.0917  0.1896 -0.2013
11893TIP3    H157170   4.426   4.062  12.501 -0.2507  0.0695  3.2844
11893TIP3    H257171   4.324   3.955  12.539  0.7371 -2.0009  0.4752
11894TIP3   OH257172   1.146   1.732  10.979  0.3639 -0.1712 -0.0971
11894TIP3    H157173   1.199   1.754  10.903  0.6353 -1.1718 -0.2182
11894TIP3    H257174   1.178   1.789  11.049 -1.0034  1.9356 -1.1089
11895TIP3   OH257175   4.293   0.207  15.211 -0.1278 -0.0380  0.1505
11895TIP3    H157176   4.222   0.147  15.187 -2.3354  2.5033 -0.0653
11895TIP3    H257177   4.250   0.277  15.260  2.2691  1.5630  0.1136
11896TIP3   OH257178   1.845   6.540   1.050  0.0064 -0.7795 -0.0590
11896TIP3    H157179   1.939   6.539   1.065 -0.0052 -1.3893 -0.0015
11896TIP3    H257180   1.834   6.506   0.962 -0.1473 -0.4901 -0.1534
11897TIP3   OH257181   1.955   1.311  15.328  0.2433 -0.5622  0.1317
11897TIP3    H157182   1.904   1.360  15.392  0.5660 -0.5287  0.3672
11897TIP3    H257183   1.961   1.368  15.252 -0.4323 -0.7386 -0.0600
11898TIP3   OH257184   5.112   5.935   1.096 -0.3578 -0.8356 -0.2750
11898TIP3    H157185   5.067   5.882   1.030 -0.6129 -0.1463 -0.6671
11898TIP3    H257186   5.187   5.972   1.049 -0.2849 -0.6958 -0.0484
11899TIP3   OH257187   1.318   2.988  11.546  0.6644  0.3183 -0.6266
11899TIP3    H157188   1.352   3.078  11.541 -0.7935  0.9308 -0.0364
11899TIP3    H257189   1.250   2.985  11.479 -0.9928  0.4577  0.9763
11900TIP3   OH257190   1.039   3.977  10.708  0.2089 -0.1825  0.2132
11900TIP3    H157191   1.075   4.033  10.777  0.9920  0.0898 -0.4005
11900TIP3    H257192   0.990   4.037  10.652  2.7394  0.3401 -1.6177
11901TIP3   OH257193   2.191   3.061  14.016 -0.0984  0.7763 -0.3203
11901TIP3    H157194   2.106   3.070  13.974  0.1461 -0.1357 -1.0303
11901TIP3    H257195   2.240   3.002  13.959  0.2074 -0.5976  1.2782
11902TIP3   OH257196   5.033   4.778   1.640 -0.4799 -0.1394  0.2130
11902TIP3    H157197   4.987   4.694   1.637  0.2629 -0.5337 -1.6728
11902TIP3    H257198   4.966   4.843   1.620 -0.8773 -0.3613  0.8059
11903TIP3   OH257199   0.561   1.368   5.292 -0.3999  0.3857  0.1402
11903TIP3    H157200   0.559   1.330   5.204 -1.3809 -1.6496  0.9535
11903TIP3    H257201   0.623   1.440   5.286 -0.9146  0.7271 -2.3628
11904TIP3   OH257202   2.029   5.708   3.555  0.2470 -0.2532  0.3047
11904TIP3    H157203   2.053   5.792   3.593 -1.7475 -0.2862  1.8314
11904TIP3    H257204   1.969   5.730   3.484  4.4417 -0.1468 -3.6608
11905TIP3   OH257205   1.670   4.369   4.930 -0.4553  0.1160  0.0578
11905TIP3    H157206   1.765   4.358   4.925 -0.3722  0.8330 -0.1620
11905TIP3    H257207   1.635   4.292   4.886  0.1160  1.7882 -3.7109
11906TIP3   OH257208   6.289   0.004   0.088  0.4078  0.0418 -0.5508
11906TIP3    H157209   6.227  -0.067   0.103  0.6781 -0.4511 -1.6497
11906TIP3    H257210   6.234   0.082   0.080  0.2295  0.3992  2.8109
11907TIP3   OH257211   2.469   1.980  15.507 -0.0312  0.5118 -0.2268
11907TIP3    H157212   2.435   1.891  15.496  0.1697  0.3946  0.0702
11907TIP3    H257213   2.419   2.016  15.581  1.1000  0.0162  0.8135
11908TIP3   OH257214   1.407   0.749   5.121  0.3789  0.3148  0.0328
11908TIP3    H157215   1.494   0.727   5.154 -0.3272 -0.7241  1.3073
11908TIP3    H257216   1.351   0.680   5.155 -1.0181  1.1889 -0.4222
11909TIP3   OH257217   3.844   1.125   0.105  0.1151 -0.2518 -0.6900
11909TIP3    H157218   3.927   1.104   0.148 -0.6784 -0.4712  0.8080
11909TIP3    H257219   3.863   1.206   0.056  0.6135  1.1514  1.6577
11910TIP3   OH257220   3.424   2.226  16.186  0.2577 -0.2229  0.2041
11910TIP3    H157221   3.422   2.155  16.121  0.9825 -1.9602  2.0082
11910TIP3    H257222   3.515   2.232  16.213 -0.0849  0.2737  1.2837
11911TIP3   OH257223   3.302   0.613  16.998 -0.5513  0.3013  0.1606
11911TIP3    H157224   3.255   0.546  17.049 -2.3479 -0.5285 -2.3765
11911TIP3    H257225   3.245   0.690  17.003  0.2150  0.8442  0.8960
11912TIP3   OH257226   5.082   3.116  17.020 -0.2623 -0.4512 -0.1031
11912TIP3    H157227   5.049   3.072  16.942 -3.3388  2.0018 -0.3889
11912TIP3    H257228   5.083   3.047  17.087 -0.2406 -1.9919 -1.6152
11913TIP3   OH257229   3.143   5.890  11.770 -0.1058 -0.1898 -0.5880
11913TIP3    H157230   3.131   5.919  11.679  0.9222  2.4635  0.0468
11913TIP3    H257231   3.237   5.879  11.780 -0.2185 -0.5283  0.1682
11914TIP3   OH257232   0.409   6.465   1.939 -0.0130 -0.7743  0.2317
11914TIP3    H157233   0.406   6.504   2.026 -0.3905  0.7584 -0.4301
11914TIP3    H257234   0.319   6.435   1.923 -0.2293  0.0204 -0.0816
11915TIP3   OH257235   0.078   1.446  12.640  0.0143 -0.5416  0.1220
11915TIP3    H157236  -0.011   1.439  12.605 -0.2904  2.0934  0.2330
11915TIP3    H257237   0.066   1.470  12.731  0.8256  0.6648 -0.0761
11916TIP3   OH257238   1.091   6.651   3.634  0.2841 -0.2228 -0.0008
11916TIP3    H157239   1.168   6.654   3.691 -0.4748 -1.2668  1.1154
11916TIP3    H257240   1.032   6.718   3.668 -0.2522 -0.9782  0.5814
11917TIP3   OH257241   1.378   1.282   5.568  0.0748 -0.0965  0.7161
11917TIP3    H157242   1.447   1.242   5.515 -0.1932  1.6545 -1.0627
11917TIP3    H257243   1.421   1.306   5.650  0.6588 -2.2562  1.1079
11918TIP3   OH257244   0.146   3.153   1.903  1.0731  0.5695 -0.0819
11918TIP3    H157245   0.175   3.063   1.917  0.4039  0.1178 -1.3691
11918TIP3    H257246   0.184   3.203   1.975  0.9842 -0.8392  0.9801
11919TIP3   OH257247   2.764   6.681   0.379  0.4925 -0.1911 -0.4362
11919TIP3    H157248   2.679   6.643   0.401 -0.2470  0.5236 -1.9046
11919TIP3    H257249   2.743   6.770   0.349  1.9428  0.6092  0.8197
11920TIP3   OH257250   3.823   0.836  12.367 -0.4830 -0.5000  0.3860
11920TIP3    H157251   3.807   0.825  12.273  0.2572 -2.8194  0.4532
11920TIP3    H257252   3.808   0.929  12.384 -1.2846 -0.1596 -1.8899
11921TIP3   OH257253   3.049   5.556   1.120  0.3793 -0.4956 -0.0317
11921TIP3    H157254   3.050   5.554   1.215 -0.4944 -0.2924 -0.0154
11921TIP3    H257255   2.994   5.481   1.095  0.9750 -0.8251 -0.3917
11922TIP3   OH257256   3.955   6.670  11.822  0.2474 -0.0218 -0.1668
11922TIP3    H157257   3.868   6.710  11.827  0.0614 -0.1665 -1.7993
11922TIP3    H257258   3.989   6.678  11.911  0.5329  4.5079 -0.4333
11923TIP3   OH257259   1.031   4.757   3.652  0.0171  0.6645  0.0928
11923TIP3    H157260   1.003   4.729   3.739  0.7139  0.2061  0.1822
11923TIP3    H257261   1.026   4.852   3.655 -1.6493  0.6094  0.0453
11924TIP3   OH257262   2.327   4.562  14.434  0.1367 -0.0035 -0.2431
11924TIP3    H157263   2.333   4.645  14.387  2.7687  0.0278 -0.0106
11924TIP3    H257264   2.353   4.496  14.370  3.2663 -0.0108  0.8370
11925TIP3   OH257265   4.312   4.384  13.944 -0.1285  0.2906  0.1697
11925TIP3    H157266   4.407   4.372  13.934 -0.0022  0.6046  0.9690
11925TIP3    H257267   4.301   4.477  13.959 -0.3863 -0.0108  2.0330
11926TIP3   OH257268   4.310   6.199   2.978  0.6135  0.2025 -0.4179
11926TIP3    H157269   4.338   6.127   3.035 -0.7836  1.9909  2.8255
11926TIP3    H257270   4.385   6.216   2.921  4.6220  1.7040  4.5661
11927TIP3   OH257271   1.797   4.855  13.618 -0.1668 -0.4119  0.0687
11927TIP3    H157272   1.754   4.915  13.557  0.9710  0.2661 -0.0908
11927TIP3    H257273   1.833   4.911  13.686  0.6209 -0.9358  0.0973
11928TIP3   OH257274   5.521   2.487  11.444  0.3211  0.0751  0.2837
11928TIP3    H157275   5.558   2.424  11.505  0.9204  1.6656  1.6591
11928TIP3    H257276   5.595   2.540  11.417 -0.4725  1.6522  1.0258
11929TIP3   OH257277   5.605   5.652  11.543 -0.1307  0.1427  0.4972
11929TIP3    H157278   5.518   5.691  11.549  0.0720  0.8507 -0.8733
11929TIP3    H257279   5.666   5.724  11.559  0.2285  0.2074 -0.9747
11930TIP3   OH257280   3.012   1.214  12.250 -0.4518  0.0178 -0.2815
11930TIP3    H157281   3.008   1.306  12.273  0.4550  0.2440 -0.9915
11930TIP3    H257282   3.019   1.213  12.155 -1.7548 -0.8294 -0.3901
11931TIP3   OH257283   1.452   4.531   4.896  0.3770 -0.0028 -0.2305
11931TIP3    H157284   1.542   4.504   4.874  0.5796  0.9050 -0.5733
11931TIP3    H257285   1.427   4.589   4.825 -1.0585 -1.4140 -0.9179
11932TIP3   OH257286   0.267   1.746   3.894  0.4371  0.5584 -0.0308
11932TIP3    H157287   0.306   1.800   3.825  1.8215 -0.3664 -0.0160
11932TIP3    H257288   0.205   1.689   3.848  0.1116  1.0827 -0.2556
11933TIP3   OH257289   0.735   2.887   5.845  0.2769 -0.0271 -0.0226
11933TIP3    H157290   0.671   2.859   5.911  0.1929  0.6241  0.1820
11933TIP3    H257291   0.797   2.941   5.894  1.3065 -1.0868 -0.1122
11934TIP3   OH257292   2.410   3.502   1.208  0.3873  0.0127  0.3454
11934TIP3    H157293   2.499   3.538   1.216  0.0494  0.7582  0.8101
11934TIP3    H257294   2.356   3.558   1.263 -0.4421 -0.2104 -0.2178
11935TIP3   OH257295   0.423   5.869  13.094  0.3165  0.2168  0.2891
11935TIP3    H157296   0.465   5.784  13.085  1.7064  1.0127 -1.3592
11935TIP3    H257297   0.451   5.902  13.179 -1.2165 -1.4341  1.4953
11936TIP3   OH257298   1.870   3.825  12.706  0.0781 -0.0425  0.6081
11936TIP3    H157299   1.945   3.825  12.764  0.6986 -0.2730 -0.1795
11936TIP3    H257300   1.817   3.750  12.734 -0.5109  0.8289  1.9560
11937TIP3   OH257301   2.577   0.747  15.313 -0.5586 -0.2919 -0.2000
11937TIP3    H157302   2.627   0.770  15.235  0.4731 -0.5559  0.3582
11937TIP3    H257303   2.558   0.830  15.355  0.4121 -0.2486  0.1720
11938TIP3   OH257304   4.246   0.456   1.320 -0.1402  0.7136 -0.2032
11938TIP3    H157305   4.318   0.514   1.294 -0.4821  1.6759  0.9128
11938TIP3    H257306   4.206   0.500   1.395 -0.8098 -0.6729  0.2867
11939TIP3   OH257307   2.836   0.151   0.668 -0.3680 -0.0817 -0.0665
11939TIP3    H157308   2.830   0.226   0.727  0.0394 -0.2716  0.2170
11939TIP3    H257309   2.849   0.190   0.581  2.3050  0.1831  0.3586
11940TIP3   OH257310   5.637   0.604   4.794 -0.1610 -0.3157  0.3783
11940TIP3    H157311   5.569   0.623   4.730  0.7388  4.2607  0.4076
11940TIP3    H257312   5.598   0.629   4.878  1.0530  1.2890  0.5245
11941TIP3   OH257313   0.247   0.818  11.133  0.3427  0.1812  0.6314
11941TIP3    H157314   0.217   0.742  11.181  2.1717 -0.9441  0.0893
11941TIP3    H257315   0.340   0.803  11.120  0.4509  1.7917 -0.8172
11942TIP3   OH257316   5.286   4.503  13.874  0.3209 -0.5261 -0.1210
11942TIP3    H157317   5.249   4.590  13.858  0.2872 -0.6461 -0.7193
11942TIP3    H257318   5.345   4.515  13.948 -0.5656 -0.2379  0.5638
11943TIP3   OH257319   5.345   6.275   3.625 -0.2976 -0.2407  0.5881
11943TIP3    H157320   5.401   6.258   3.549 -0.6203 -1.1173  0.5284
11943TIP3    H257321   5.350   6.195   3.677  0.6235  0.6755  1.9667
11944TIP3   OH257322   0.019   2.903  13.886 -0.1990  0.0358  0.1793
11944TIP3    H157323   0.096   2.946  13.848 -1.2013  0.7246 -1.1779
11944TIP3    H257324   0.010   2.941  13.973 -0.5840  2.0499 -0.6843
11945TIP3   OH257325   5.645   3.822  13.133 -0.1839 -0.0864  0.1009
11945TIP3    H157326   5.656   3.917  13.128 -1.9151  0.1098 -0.8665
11945TIP3    H257327   5.583   3.809  13.205  0.2553 -0.5206  0.4114
11946TIP3   OH257328   3.304   5.429   0.800  0.2566  0.1199  0.3797
11946TIP3    H157329   3.342   5.459   0.718  0.0993 -0.1172  0.2175
11946TIP3    H257330   3.362   5.463   0.868  2.4920 -2.6511  0.0476
11947TIP3   OH257331   2.239   6.148   4.805 -0.0821 -0.2020  0.3088
11947TIP3    H157332   2.330   6.134   4.829 -0.3363  0.0317  1.4405
11947TIP3    H257333   2.241   6.221   4.744  0.6744 -1.4578 -1.2470
11948TIP3   OH257334   6.759   0.758  13.737  0.0147  0.2742  0.9874
11948TIP3    H157335   6.825   0.805  13.686  0.8951 -1.1221  0.7822
11948TIP3    H257336   6.790   0.667  13.738 -1.3271 -0.2009  1.8502
11949TIP3   OH257337   3.618   3.608   4.010  0.7589  0.1821  0.4499
11949TIP3    H157338   3.588   3.666   3.940 -0.3676 -0.0638  0.7144
11949TIP3    H257339   3.539   3.565   4.041  1.0449  1.1092  2.6540
11950TIP3   OH257340   5.401   3.370  13.060  0.2749  0.0971 -0.2428
11950TIP3    H157341   5.373   3.434  13.126  0.8656 -0.1745  0.2841
11950TIP3    H257342   5.490   3.347  13.085  0.0416 -1.0034 -0.3585
11951TIP3   OH257343   6.676   3.922  15.858  0.2902 -0.2086  0.4662
11951TIP3    H157344   6.627   3.923  15.940  1.2104 -1.5969  1.0736
11951TIP3    H257345   6.697   3.830  15.843  1.5432  0.1897 -0.4692
11952TIP3   OH257346   6.590   2.096  17.115  0.0964 -0.0712  0.1854
11952TIP3    H157347   6.638   2.170  17.079 -1.7926  0.8267 -0.6223
11952TIP3    H257348   6.582   2.034  17.042  0.7583 -0.6269  0.5653
11953TIP3   OH257349   0.247   3.417  13.590 -0.1075  0.8034 -0.3987
11953TIP3    H157350   0.309   3.490  13.597  0.6302  0.2405 -0.8386
11953TIP3    H257351   0.303   3.340  13.576 -0.7227 -0.1942  2.1403
11954TIP3   OH257352   2.095   1.892   3.495 -0.0421  0.6849  0.5705
11954TIP3    H157353   2.123   1.980   3.519  1.2577  0.4616 -0.0506
11954TIP3    H257354   2.165   1.859   3.438 -0.4605 -0.7759  0.8596
11955TIP3   OH257355   0.921   5.385   2.057 -0.3164  0.4073  0.1351
11955TIP3    H157356   0.926   5.433   1.974 -1.3674  0.9076  0.3379
11955TIP3    H257357   0.873   5.305   2.036 -1.6492  1.0832  0.4619
11956TIP3   OH257358   1.055   2.990   2.718  0.2278 -0.2885 -0.1601
11956TIP3    H157359   1.122   3.015   2.782  0.9851 -2.4366 -0.0083
11956TIP3    H257360   1.086   2.907   2.683 -0.5561  0.4587 -2.8190
11957TIP3   OH257361   1.792   6.607   3.247 -0.2831 -0.1207 -0.5626
11957TIP3    H157362   1.764   6.629   3.158 -1.3380 -2.1323 -0.7835
11957TIP3    H257363   1.881   6.574   3.236 -0.7397 -1.2708 -1.0645
11958TIP3   OH257364   6.183   6.558  14.710 -0.1300 -0.6061  0.1132
11958TIP3    H157365   6.112   6.538  14.772 -1.1899 -0.4884 -1.0239
11958TIP3    H257366   6.205   6.649  14.728 -1.6244 -0.0264 -0.7795
11959TIP3   OH257367   2.064   5.801  12.241  0.1549  0.3846 -0.3501
11959TIP3    H157368   2.154   5.801  12.272 -0.5407 -3.3083  2.4005
11959TIP3    H257369   2.060   5.733  12.174 -0.7313 -0.2495  0.3139
11960TIP3   OH257370   6.154   0.542   4.705 -0.2021 -0.4045 -0.4094
11960TIP3    H157371   6.074   0.530   4.758 -0.1032 -0.8695 -0.3619
11960TIP3    H257372   6.125   0.593   4.630  0.0047  1.8916  0.9643
11961TIP3   OH257373   3.835   5.507   3.367  1.0145 -0.5659 -0.0212
11961TIP3    H157374   3.752   5.463   3.353  0.6935  0.2575 -0.8103
11961TIP3    H257375   3.900   5.437   3.369  0.4475 -1.1189 -0.6546
11962TIP3   OH257376   4.890   1.557  12.582  0.3096 -0.2275  0.3318
11962TIP3    H157377   4.921   1.540  12.671 -0.8773 -2.2395  0.4190
11962TIP3    H257378   4.799   1.528  12.582  0.2864 -0.2792 -1.5423
11963TIP3   OH257379   6.014   4.870   4.895  0.5806  0.0755 -0.0178
11963TIP3    H157380   6.074   4.944   4.909 -1.5214  1.9934 -0.6431
11963TIP3    H257381   6.003   4.832   4.982  1.4044  0.7458  0.4010
11964TIP3   OH257382   5.673   0.137   6.057  0.0252  0.7038 -0.4059
11964TIP3    H157383   5.738   0.100   6.118  1.4167  1.0605 -1.6096
11964TIP3    H257384   5.662   0.227   6.087  0.3178  0.7273 -0.3636
11965TIP3   OH257385   2.249   1.384  17.038  0.4382 -0.3058 -0.2962
11965TIP3    H157386   2.209   1.298  17.052  0.0311 -0.3491 -1.5737
11965TIP3    H257387   2.261   1.419  17.126 -0.3395 -1.2413  0.2082
11966TIP3   OH257388   4.736   1.757   5.758 -0.0333 -0.3377 -0.1154
11966TIP3    H157389   4.730   1.691   5.827 -0.8338 -0.3060 -0.1549
11966TIP3    H257390   4.817   1.805   5.778 -0.4873 -0.0398  1.0440
11967TIP3   OH257391   0.869   1.927  12.640  0.4679 -0.0422 -0.3656
11967TIP3    H157392   0.941   1.989  12.629  0.6367 -0.4043 -1.3756
11967TIP3    H257393   0.878   1.866  12.567 -1.7836  0.8270 -1.4760
11968TIP3   OH257394   3.105   1.080   2.601  0.5838 -0.6804 -0.1416
11968TIP3    H157395   3.184   1.134   2.600  0.5291 -0.6005 -1.4728
11968TIP3    H257396   3.135   0.991   2.584  0.4987 -0.8306  0.4635
11969TIP3   OH257397   3.610   4.475   5.636 -1.1657  0.2520  0.3424
11969TIP3    H157398   3.521   4.468   5.670 -1.3905  0.1168 -0.2634
11969TIP3    H257399   3.603   4.536   5.562 -0.4941  1.3844  1.1730
11970TIP3   OH257400   3.539   3.653  14.018  0.9507 -0.3936 -0.3320
11970TIP3    H157401   3.531   3.691  14.106  2.0654  0.6016 -0.6369
11970TIP3    H257402   3.623   3.607  14.019  1.1733 -0.0207 -0.9891
11971TIP3   OH257403   5.332   5.685  14.427  0.0878 -0.1549  0.0117
11971TIP3    H157404   5.287   5.743  14.488  0.2281  0.6823 -0.6629
11971TIP3    H257405   5.304   5.715  14.340  2.8196  1.1793 -0.4925
11972TIP3   OH257406   2.800   1.086  16.954 -0.2594 -0.1668  0.3541
11972TIP3    H157407   2.841   1.170  16.974 -1.2873  0.5775 -0.5451
11972TIP3    H257408   2.787   1.045  17.040  1.2848  0.0675  0.7193
11973TIP3   OH257409   0.945   6.740   4.894  0.7921 -0.1902 -0.0569
11973TIP3    H157410   0.968   6.823   4.853  1.3897  0.1102  0.8523
11973TIP3    H257411   0.898   6.691   4.826  0.2464  0.9661 -0.5319
11974TIP3   OH257412   2.857   4.267   3.869 -0.1437  0.3355 -0.8240
11974TIP3    H157413   2.859   4.175   3.843 -1.5315  0.5153 -1.6282
11974TIP3    H257414   2.833   4.266   3.962 -2.5685 -0.0600 -1.4009
11975TIP3   OH257415   2.094   3.828  15.780  0.1185 -0.0191 -0.5111
11975TIP3    H157416   2.030   3.894  15.755  0.1029 -0.3909 -1.5117
11975TIP3    H257417   2.093   3.765  15.708 -0.0413 -1.2381  0.5260
11976TIP3   OH257418   0.422   6.016  15.994  0.4159 -0.2110  0.1617
11976TIP3    H157419   0.340   6.047  15.955  0.7324  1.3116  0.6342
11976TIP3    H257420   0.400   5.998  16.086  0.9317  1.8183  0.7343
11977TIP3   OH257421   6.118   5.585  13.083 -0.1112  0.2625 -0.3340
11977TIP3    H157422   6.099   5.532  13.005 -0.8919  2.0766 -1.4462
11977TIP3    H257423   6.162   5.662  13.049 -1.2769  1.5262  0.8975
11978TIP3   OH257424   1.825   3.894   3.437  0.8984 -0.9441 -0.0211
11978TIP3    H157425   1.886   3.921   3.506 -0.3266 -0.3353  0.8604
11978TIP3    H257426   1.755   3.848   3.483 -0.2811  0.0394 -0.7587
11979TIP3   OH257427   1.886   4.005   4.871  0.4785 -0.0349 -0.4155
11979TIP3    H157428   1.920   4.013   4.960  0.4957  0.4223 -0.4601
11979TIP3    H257429   1.905   3.914   4.846 -0.9778 -0.6573  0.6182
11980TIP3   OH257430   6.679   6.102   0.666  0.7420  0.7117 -0.3437
11980TIP3    H157431   6.772   6.115   0.648  0.9126  0.7645  0.5488
11980TIP3    H257432   6.677   6.026   0.724  0.0004 -1.2990 -2.8164
11981TIP3   OH257433   4.452   6.267   0.329 -0.1108 -0.5094  0.3270
11981TIP3    H157434   4.458   6.250   0.235 -0.2112  0.3744  0.1585
11981TIP3    H257435   4.439   6.180   0.368  1.9262 -1.1410 -0.2866
11982TIP3   OH257436   0.255   5.743  13.355  0.1732 -0.8824 -0.0421
11982TIP3    H157437   0.340   5.728  13.395  0.6648  0.9512 -0.3166
11982TIP3    H257438   0.192   5.727  13.425  0.8069 -1.0616  0.4945
11983TIP3   OH257439   4.340   5.081  11.614 -0.2353  0.4820 -0.0443
11983TIP3    H157440   4.376   5.016  11.553  0.3579 -0.3628  1.1577
11983TIP3    H257441   4.252   5.050  11.632  0.0472 -0.0182  0.5285
11984TIP3   OH257442   2.741   3.523  12.103  0.2180 -0.7438 -0.0470
11984TIP3    H157443   2.684   3.566  12.040  0.4307  0.0924  0.3208
11984TIP3    H257444   2.708   3.550  12.189  1.6847  0.4937  0.1722
11985TIP3   OH257445   1.748   2.950  15.553 -0.6445  0.3435 -0.0521
11985TIP3    H157446   1.729   2.953  15.647  1.1326 -1.4825  0.4335
11985TIP3    H257447   1.796   2.868  15.541  1.7216  1.8875 -2.0405
11986TIP3   OH257448   2.090   0.032   0.076 -0.1983  0.3044 -0.3350
11986TIP3    H157449   2.178   0.053   0.043 -0.2258  1.7640  0.4305
11986TIP3    H257450   2.105  -0.008   0.162 -0.2854  1.8485  0.4372
11987TIP3   OH257451   5.272   0.760   1.093 -0.2705 -0.6749  0.0100
11987TIP3    H157452   5.239   0.849   1.109  2.6859  0.0771  3.2512
11987TIP3    H257453   5.352   0.772   1.043 -1.5620 -1.9214 -2.5126
11988TIP3   OH257454   0.379   0.955   1.981  0.3163  0.2599  0.2699
11988TIP3    H157455   0.340   0.994   2.059  0.3914 -0.4922  0.6931
11988TIP3    H257456   0.354   0.863   1.985  3.2485 -0.5983  1.3146
11989TIP3   OH257457   4.705   2.153   0.455 -0.1971 -0.6767  0.1462
11989TIP3    H157458   4.780   2.193   0.411  0.1223 -0.2244  1.0864
11989TIP3    H257459   4.676   2.219   0.518 -1.5265 -0.7603 -0.3406
11990TIP3   OH257460   2.704   4.370   2.837 -0.2248 -0.5456  0.1760
11990TIP3    H157461   2.693   4.285   2.880  0.9073 -0.0334  1.5335
11990TIP3    H257462   2.702   4.433   2.908 -0.2433  0.5143 -0.7427
11991TIP3   OH257463   0.420   1.085   5.558  0.3302  0.3321 -0.1693
11991TIP3    H157464   0.441   1.021   5.626 -0.7779  0.3390  0.1944
11991TIP3    H257465   0.505   1.122   5.532  0.7002  1.0460  1.9053
11992TIP3   OH257466   2.667   3.280  11.682  0.3687 -0.4788 -0.0140
11992TIP3    H157467   2.604   3.339  11.723  1.9551  0.8925  0.5493
11992TIP3    H257468   2.619   3.197  11.673 -1.6527  0.6374 -0.0846
11993TIP3   OH257469   4.170   0.861   4.516  0.3344 -0.2375  0.0248
11993TIP3    H157470   4.085   0.876   4.557 -0.4440  1.0022 -1.8621
11993TIP3    H257471   4.233   0.901   4.575 -0.3877 -1.0232  1.3670
11994TIP3   OH257472   5.654   6.297  12.130 -0.0393 -0.1703 -0.3903
11994TIP3    H157473   5.699   6.293  12.046  2.6507  2.3237  0.7548
11994TIP3    H257474   5.714   6.254  12.191 -1.7712 -1.6071  0.4041
11995TIP3   OH257475   3.878   0.182  12.494 -0.3928 -0.2570  0.0484
11995TIP3    H157476   3.844   0.242  12.428 -0.4204 -1.0229 -0.6512
11995TIP3    H257477   3.847   0.218  12.577  1.9202  2.2710 -0.0359
11996TIP3   OH257478   0.819   2.314  15.743  0.2721 -0.4212 -0.2024
11996TIP3    H157479   0.744   2.293  15.799  0.4034 -0.0034  0.1401
11996TIP3    H257480   0.787   2.304  15.654 -0.8059  1.6539 -0.1260
11997TIP3   OH257481   5.868   5.443   1.097 -0.5822  0.2838  0.0173
11997TIP3    H157482   5.836   5.516   1.043  0.7251  0.6026 -0.3642
11997TIP3    H257483   5.952   5.420   1.058 -0.2391 -0.3736  1.1138
11998TIP3   OH257484   3.065   3.049  15.325 -0.0554  0.0466  0.3584
11998TIP3    H157485   2.971   3.035  15.334 -0.6045  2.7469 -0.2105
11998TIP3    H257486   3.074   3.109  15.251  2.2059 -0.7203 -0.0842
11999TIP3   OH257487   1.797   4.763   3.942 -1.1131  0.1289 -0.9371
11999TIP3    H157488   1.830   4.749   4.030  0.4626  0.8376 -1.3628
11999TIP3    H257489   1.823   4.684   3.894 -0.1026  0.6081 -1.2263
12000TIP3   OH257490   1.336   1.194   3.054 -0.2641 -0.1443 -0.1684
12000TIP3    H157491   1.284   1.124   3.092  0.0252 -0.7192 -0.8107
12000TIP3    H257492   1.288   1.274   3.076 -1.2071 -0.6301 -0.3959
12001TIP3   OH257493   0.215   4.944   3.895  0.3258 -0.5495  0.4694
12001TIP3    H157494   0.176   4.934   3.982 -0.0131  1.0440  0.5420
12001TIP3    H257495   0.251   5.033   3.896  0.1717 -0.4499 -1.0646
12002TIP3   OH257496   4.467   5.172   0.301 -0.0214  0.2548  0.1477
12002TIP3    H157497   4.509   5.210   0.378 -0.7720  0.0165  0.6742
12002TIP3    H257498   4.505   5.221   0.227  0.4082  0.7472  0.6873
12003TIP3   OH257499   2.525   0.310  14.401 -0.2098  0.1871 -0.0679
12003TIP3    H157500   2.431   0.298  14.388  0.1889 -3.4484 -0.5472
12003TIP3    H257501   2.534   0.323  14.496 -1.1315  0.0718  0.0458
12004TIP3   OH257502   4.726   5.470   3.845 -0.2810 -0.0566 -0.0443
12004TIP3    H157503   4.674   5.545   3.814 -1.4091 -1.2056 -1.0508
12004TIP3    H257504   4.748   5.422   3.765  1.0398 -0.4340  0.5221
12005TIP3   OH257505   1.052   3.864  15.443 -0.1114  0.0046  0.0140
12005TIP3    H157506   1.059   3.802  15.370 -0.8008  0.6214 -0.5868
12005TIP3    H257507   1.069   3.950  15.404 -0.1210  0.3052  0.6537
12006TIP3   OH257508   6.712   0.841  12.266  0.0529  0.1086 -0.4487
12006TIP3    H157509   6.641   0.777  12.268 -0.0276  0.2123  0.0677
12006TIP3    H257510   6.670   0.926  12.277  0.3729  0.0638  1.4684
12007TIP3   OH257511   2.010   0.401  13.632  0.1686  0.9473  0.9085
12007TIP3    H157512   1.969   0.487  13.628 -1.0527  0.3446 -0.3534
12007TIP3    H257513   2.053   0.392  13.547 -1.2229 -0.3931  0.3256
12008TIP3   OH257514   0.265   5.612  14.655 -0.0518  0.0342 -0.0595
12008TIP3    H157515   0.176   5.616  14.621  0.7794  1.5917 -2.2947
12008TIP3    H257516   0.321   5.613  14.577  1.9845  2.0263  1.2947
12009TIP3   OH257517   1.836   2.474  17.016  0.2831 -0.2149 -0.2445
12009TIP3    H157518   1.765   2.538  17.015  0.7439  0.3394  1.0884
12009TIP3    H257519   1.859   2.464  17.109  1.2241 -1.1965 -0.5556
12010TIP3   OH257520   6.561   4.505  13.835 -0.0981 -0.2700 -0.0159
12010TIP3    H157521   6.629   4.457  13.881 -0.3622 -0.0209  0.6449
12010TIP3    H257522   6.554   4.588  13.882 -0.8298 -0.2783 -0.1014
12011TIP3   OH257523   5.971   2.153  13.112  0.1938  0.0312  0.2230
12011TIP3    H157524   5.967   2.249  13.109 -0.7052  0.0416  1.2408
12011TIP3    H257525   5.926   2.125  13.033 -0.2320  0.4473  0.3127
12012TIP3   OH257526   1.926   3.970  14.380  0.1276 -0.3107 -0.0952
12012TIP3    H157527   1.995   3.903  14.383  0.3456 -0.1349 -0.9066
12012TIP3    H257528   1.859   3.933  14.323 -0.3666 -0.3997  0.5436
12013TIP3   OH257529   3.334   1.918  16.759  0.2931  0.0638 -0.2623
12013TIP3    H157530   3.360   1.988  16.820 -0.1408 -0.0390  0.0414
12013TIP3    H257531   3.398   1.848  16.774  0.7735  0.4159 -0.6159
12014TIP3   OH257532   6.459   2.508   1.487  0.3794 -0.1552 -0.2546
12014TIP3    H157533   6.499   2.422   1.496 -1.9514 -1.3582 -0.5391
12014TIP3    H257534   6.407   2.519   1.566  1.3081  1.4255  0.1882
12015TIP3   OH257535   2.922   1.617   5.834 -0.0344  0.1577  0.2553
12015TIP3    H157536   2.841   1.598   5.786  0.3529 -0.7440 -0.0603
12015TIP3    H257537   2.912   1.570   5.917 -1.2441  2.7058  1.6660
12016TIP3   OH257538   0.548   0.987  17.096  0.5718 -0.1469 -0.0895
12016TIP3    H157539   0.540   0.917  17.160  0.2817 -1.4073 -1.4457
12016TIP3    H257540   0.574   0.943  17.015  0.0138  1.2526 -1.0805
12017TIP3   OH257541   2.014   1.481   4.600 -0.6703 -0.1983  0.1628
12017TIP3    H157542   2.093   1.520   4.563 -1.3684  1.0213 -0.0765
12017TIP3    H257543   1.985   1.419   4.534  0.4511 -1.1803  0.5493
12018TIP3   OH257544   1.978   4.533   3.802  0.2258 -0.3244  0.1091
12018TIP3    H157545   2.028   4.522   3.721 -1.1286 -1.4147 -0.6260
12018TIP3    H257546   1.958   4.444   3.830 -0.9761  0.0707  0.5676
12019TIP3   OH257547   2.372   5.760   1.668  0.9984 -0.1679  0.6506
12019TIP3    H157548   2.370   5.760   1.572 -0.1011  1.6676  0.6137
12019TIP3    H257549   2.464   5.768   1.690  1.3201 -1.2280 -0.2333
12020TIP3   OH257550   5.140   3.272   1.212  0.2666  0.4169  0.2969
12020TIP3    H157551   5.131   3.366   1.220 -0.8418  0.2867  0.6635
12020TIP3    H257552   5.235   3.257   1.211  0.4506  1.4781  0.7771
12021TIP3   OH257553   3.039   4.016  13.653  0.1601  0.3540 -0.1870
12021TIP3    H157554   3.116   4.072  13.656  1.5580 -1.5031  2.0502
12021TIP3    H257555   2.995   4.039  13.571  2.5728  2.1242 -1.0799
12022TIP3   OH257556   2.269   1.234  16.251 -0.3016  0.3343  0.0875
12022TIP3    H157557   2.184   1.225  16.206 -0.5413  1.7164  0.2090
12022TIP3    H257558   2.313   1.151  16.235 -1.5228 -0.2700 -0.3170
12023TIP3   OH257559   1.054   4.390   2.841  0.3658 -0.1417 -0.0854
12023TIP3    H157560   1.086   4.400   2.930 -0.7908 -2.4102  0.6452
12023TIP3    H257561   1.106   4.453   2.790  1.5827  0.6653  2.0234
12024TIP3   OH257562   3.418   0.052   1.681 -0.2033  0.0630  0.6939
12024TIP3    H157563   3.463   0.123   1.636  0.0898  0.1702  1.1556
12024TIP3    H257564   3.452   0.054   1.770  0.4056 -1.1610  0.5150
12025TIP3   OH257565   1.812   0.481  16.086 -0.3105  0.3532 -0.0247
12025TIP3    H157566   1.783   0.570  16.067 -0.2590  0.4324  0.2618
12025TIP3    H257567   1.761   0.456  16.164  1.3539  0.9930  1.3352
12026TIP3   OH257568   6.000   0.646  15.416 -0.0753  0.8868  0.4315
12026TIP3    H157569   6.084   0.664  15.458  0.6434  1.5079 -1.1934
12026TIP3    H257570   5.936   0.647  15.488  1.1429  1.5050  1.5431
12027TIP3   OH257571   3.433   4.559   2.405  0.1196  0.1883 -0.6430
12027TIP3    H157572   3.405   4.645   2.436  2.7271  1.3225 -1.2312
12027TIP3    H257573   3.480   4.521   2.479 -0.8223 -0.6891 -0.4657
12028TIP3   OH257574   5.284   0.532  15.813 -0.8590  0.3805 -0.7720
12028TIP3    H157575   5.334   0.523  15.732  3.3970 -0.8686  1.6370
12028TIP3    H257576   5.245   0.446  15.826  0.5953 -0.2593 -0.3770
12029TIP3   OH257577   3.242   4.487   2.211  0.2639  0.2257  0.2905
12029TIP3    H157578   3.313   4.482   2.275  0.3452 -0.6283  0.1518
12029TIP3    H257579   3.283   4.519   2.131  0.5495 -0.5114  0.1383
12030TIP3   OH257580   6.540   4.009  13.137  0.4126  0.3894  0.3672
12030TIP3    H157581   6.539   3.987  13.230 -0.2052 -0.8377  0.0947
12030TIP3    H257582   6.633   4.019  13.116  0.7876 -1.9892  0.5695
12031TIP3   OH257583   1.352   3.300  13.888  0.6492 -0.7302 -0.4891
12031TIP3    H157584   1.418   3.251  13.938  0.5845 -1.5850 -1.2127
12031TIP3    H257585   1.395   3.319  13.805  1.2841  1.9528  0.3502
12032TIP3   OH257586   6.783   6.158  15.434 -0.1449  0.8413 -0.0302
12032TIP3    H157587   6.763   6.085  15.376  0.0338  0.0939  0.8216
12032TIP3    H257588   6.853   6.206  15.390  1.1869 -0.6943  0.3328
12033TIP3   OH257589   4.042   3.329   0.816 -0.5017 -0.5431  0.4119
12033TIP3    H157590   4.108   3.393   0.790 -0.1750 -1.6888 -1.7606
12033TIP3    H257591   4.064   3.309   0.907  1.9439 -0.6321 -0.1241
12034TIP3   OH257592   2.359   5.205  12.843 -0.1734 -0.0166  0.4278
12034TIP3    H157593   2.332   5.249  12.763 -0.0196 -2.6328 -1.2041
12034TIP3    H257594   2.444   5.167  12.822 -0.5455 -1.5451  1.4483
12035TIP3   OH257595   0.860   1.970   4.385 -0.1949 -0.3489 -0.4108
12035TIP3    H157596   0.906   2.053   4.399  1.0758 -1.1460  0.3982
12035TIP3    H257597   0.917   1.921   4.326 -0.4263 -1.0161 -0.0912
12036TIP3   OH257598   2.582   6.240   6.309 -0.3114  0.6591 -0.2979
12036TIP3    H157599   2.510   6.302   6.321 -1.2364 -0.2760 -0.8891
12036TIP3    H257600   2.541   6.154   6.310  1.0327 -0.0151  1.1310
12037TIP3   OH257601   5.186   1.489  11.084  0.1735 -0.5839  0.0554
12037TIP3    H157602   5.149   1.512  11.170  0.4513  0.2941 -0.0501
12037TIP3    H257603   5.280   1.479  11.101  0.3635  0.4717 -0.3038
12038TIP3   OH257604   4.196   3.422  13.316  0.1771  0.0474 -0.6561
12038TIP3    H157605   4.157   3.342  13.350  0.4636  0.2947  0.3091
12038TIP3    H257606   4.286   3.398  13.295  0.1732  0.0333 -0.6572
12039TIP3   OH257607   2.350   4.985  11.114  0.2292 -0.8184  0.2992
12039TIP3    H157608   2.389   5.067  11.082 -1.3846 -0.9044 -2.1805
12039TIP3    H257609   2.405   4.960  11.188  1.9106  1.5198 -0.0234
12040TIP3   OH257610   3.843   3.886   3.716 -0.2267  0.4707 -0.2378
12040TIP3    H157611   3.915   3.942   3.687 -1.5520  2.0778 -0.5909
12040TIP3    H257612   3.881   3.831   3.784  1.2024  1.6400 -0.0377
12041TIP3   OH257613   4.904   6.726  17.025 -0.9205 -0.6354  0.7932
12041TIP3    H157614   4.898   6.715  17.120 -1.1534  0.0379  0.8627
12041TIP3    H257615   4.873   6.643  16.989 -0.7194 -0.9376  1.3041
12042TIP3   OH257616   1.625   5.196  16.414 -0.3918  0.4967 -0.6925
12042TIP3    H157617   1.669   5.251  16.479  0.4576 -0.9838  0.0206
12042TIP3    H257618   1.573   5.135  16.466  0.3167 -0.7248 -1.3806
12043TIP3   OH257619   3.999   6.247   4.014 -0.2281 -0.2757 -0.1720
12043TIP3    H157620   3.961   6.327   4.051 -0.4690 -0.2816 -0.4046
12043TIP3    H257621   3.943   6.177   4.046 -1.2144 -0.1626 -1.5832
12044TIP3   OH257622   0.020   0.749  15.043  0.2642  0.4633 -0.0072
12044TIP3    H157623  -0.055   0.805  15.064  0.1473  0.9083 -1.4459
12044TIP3    H257624   0.009   0.671  15.098 -0.0541  1.4564  1.3870
12045TIP3   OH257625   3.363   2.463   1.321 -0.3453 -0.0927  0.7172
12045TIP3    H157626   3.282   2.464   1.271 -0.5801  2.7344  0.9963
12045TIP3    H257627   3.423   2.518   1.270  0.3133  0.5239  2.1002
12046TIP3   OH257628   4.134   3.475  13.615  0.1552 -0.3031 -0.5348
12046TIP3    H157629   4.064   3.486  13.680 -0.3668 -2.4080 -0.6864
12046TIP3    H257630   4.098   3.512  13.534 -0.3043 -0.2871 -0.3247
12047TIP3   OH257631   1.896   6.304   2.984 -0.5618 -0.2313  0.3901
12047TIP3    H157632   1.914   6.223   3.033  1.1574  0.8415  1.6428
12047TIP3    H257633   1.927   6.374   3.042 -0.9881  1.2682 -1.1300
12048TIP3   OH257634   2.066   4.827  10.603  0.5089  0.0020  0.4910
12048TIP3    H157635   2.023   4.741  10.601 -0.2156  0.3745 -0.6644
12048TIP3    H257636   1.994   4.890  10.601  1.0612  0.6346 -0.7643
12049TIP3   OH257637   2.688   5.613   0.908  0.1718 -0.1176  0.5609
12049TIP3    H157638   2.607   5.642   0.952  0.1554 -1.8304  1.7718
12049TIP3    H257639   2.757   5.662   0.953 -0.0426 -0.0949  0.8773
12050TIP3   OH257640   0.680   5.133  11.653 -0.3776  0.6484  0.1599
12050TIP3    H157641   0.691   5.039  11.665 -1.3624  0.7528  2.1570
12050TIP3    H257642   0.715   5.172  11.732 -1.0399  1.8938 -0.1339
12051TIP3   OH257643   5.089   6.768   0.154 -0.1221  0.0677 -0.1886
12051TIP3    H157644   5.122   6.702   0.215 -0.5449 -0.0722 -0.1078
12051TIP3    H257645   5.120   6.738   0.068 -1.7080 -1.1685 -0.3821
12052TIP3   OH257646   0.438   5.551   1.559  0.1241 -0.2033  0.5640
12052TIP3    H157647   0.436   5.589   1.647  1.6726 -0.0204  0.5438
12052TIP3    H257648   0.530   5.527   1.545 -0.4636 -2.1854 -0.1821
12053TIP3   OH257649   5.082   3.463  13.680 -0.0037 -1.3371 -0.0820
12053TIP3    H157650   4.988   3.447  13.680 -0.2506 -0.2271 -2.0490
12053TIP3    H257651   5.102   3.492  13.769 -1.5469 -1.4593  0.3166
12054TIP3   OH257652   3.692   6.771   1.250 -0.3465  0.5431  0.3344
12054TIP3    H157653   3.666   6.716   1.175 -0.1530 -2.0859  2.0598
12054TIP3    H257654   3.659   6.723   1.326 -0.7966  3.2809  1.9655
12055TIP3   OH257655   0.899   6.177   6.159  0.3863  0.2749 -0.3031
12055TIP3    H157656   0.832   6.244   6.173 -1.3768 -1.3098 -0.7346
12055TIP3    H257657   0.915   6.142   6.247  1.3393  1.2440 -0.0710
12056TIP3   OH257658   1.144   4.529  12.103  0.7842  0.2019 -0.5803
12056TIP3    H157659   1.232   4.536  12.064  1.1346  0.2418  0.2146
12056TIP3    H257660   1.093   4.483  12.036  1.2962  0.5551 -1.2317
12057TIP3   OH257661   5.400   0.297  15.103  0.1004  0.0818  0.1300
12057TIP3    H157662   5.464   0.288  15.173  0.2037  1.8892  0.3193
12057TIP3    H257663   5.362   0.210  15.094  1.6446 -0.7148  0.9027
12058TIP3   OH257664   4.761   4.097   2.842  0.3764  0.7691  0.2247
12058TIP3    H157665   4.677   4.093   2.887  0.2486 -1.9876 -0.0556
12058TIP3    H257666   4.745   4.151   2.765 -1.5498 -0.7270 -0.4962
12059TIP3   OH257667   3.633   0.202  15.914 -0.8134  0.6625  0.7704
12059TIP3    H157668   3.664   0.112  15.907  0.1331  1.0005  0.5283
12059TIP3    H257669   3.632   0.234  15.823 -1.2978  0.8453  0.8394
12060TIP3   OH257670   3.833   6.569   0.547  0.5238 -0.2679 -0.6996
12060TIP3    H157671   3.784   6.573   0.629  1.3446 -0.2378 -0.1977
12060TIP3    H257672   3.889   6.492   0.556 -0.4339 -1.1461 -1.8519
12061TIP3   OH257673   3.487   0.688   5.375  0.3191 -0.5550 -0.0813
12061TIP3    H157674   3.521   0.681   5.464 -1.3775 -1.5447  0.5466
12061TIP3    H257675   3.528   0.615   5.329  1.8508  0.4495 -0.3888
12062TIP3   OH257676   6.273   3.473   4.209 -0.3449  1.1395  0.3112
12062TIP3    H157677   6.196   3.498   4.158  0.6993  2.0742 -0.8584
12062TIP3    H257678   6.340   3.452   4.144  0.3652  0.2003  1.3094
12063TIP3   OH257679   4.792   1.133  15.086  0.2096  0.0118  0.3143
12063TIP3    H157680   4.725   1.202  15.078  2.3537  2.0610 -1.1777
12063TIP3    H257681   4.862   1.173  15.138  2.1146 -0.4632 -1.7479
12064TIP3   OH257682   0.599   0.154   0.153 -0.8065  0.4039 -0.4495
12064TIP3    H157683   0.508   0.172   0.130 -0.2370 -0.1246 -3.6521
12064TIP3    H257684   0.643   0.239   0.144 -0.9506  0.6886  1.2348
12065TIP3   OH257685   3.407   0.110  16.891 -0.1039 -0.0587 -0.1581
12065TIP3    H157686   3.419   0.201  16.864 -1.8781 -0.1587 -1.4369
12065TIP3    H257687   3.496   0.079  16.911  0.6702  1.5835 -0.8608
12066TIP3   OH257688   4.593   3.912  14.838  0.2171 -0.1424 -0.4492
12066TIP3    H157689   4.536   3.926  14.914 -0.3144 -1.1242 -0.6487
12066TIP3    H257690   4.568   3.826  14.805  2.6844 -1.1924  0.2093
12067TIP3   OH257691   5.641   3.145  11.679 -0.2091 -0.3267 -1.0687
12067TIP3    H157692   5.647   3.091  11.600 -0.5667  0.9492 -1.9905
12067TIP3    H257693   5.676   3.230  11.653 -0.8110  0.2701  0.0038
12068TIP3   OH257694   0.374   4.701  17.129  0.2873 -0.0172  0.3968
12068TIP3    H157695   0.384   4.788  17.090 -0.4992 -0.2140 -0.2787
12068TIP3    H257696   0.347   4.645  17.056  2.2451 -1.1697  0.4956
12069TIP3   OH257697   0.975   0.894  11.701  0.0409  0.0307 -0.0220
12069TIP3    H157698   0.928   0.847  11.770  0.9065  1.9593  2.0338
12069TIP3    H257699   0.907   0.935  11.648 -0.6348 -0.0460  0.7686
12070TIP3   OH257700   1.628   6.402   1.942 -0.1289  0.1469  0.3151
12070TIP3    H157701   1.543   6.360   1.952  1.8294 -4.5899 -0.4295
12070TIP3    H257702   1.633   6.424   1.849 -0.9104  1.5442  0.5806
12071TIP3   OH257703   1.954   6.082   0.056 -0.3309  0.8717  0.0278
12071TIP3    H157704   1.881   6.021   0.067 -0.8290  1.2201 -1.1374
12071TIP3    H257705   2.021   6.031   0.010  1.2157 -0.1932  3.2018
12072TIP3   OH257706   0.710   2.690   1.175  0.0848 -0.1201 -0.3874
12072TIP3    H157707   0.731   2.599   1.197 -0.3078 -0.6591 -2.0735
12072TIP3    H257708   0.636   2.684   1.114 -2.6362  1.5331  2.4201
12073TIP3   OH257709   5.825   1.280  15.969  0.2726  0.5137  0.1920
12073TIP3    H157710   5.870   1.306  16.050 -1.1188  1.0930  0.8157
12073TIP3    H257711   5.849   1.188  15.958 -0.3039  0.1232  1.8440
12074TIP3   OH257712   5.354   1.586  15.285  0.0289  0.1872 -0.2957
12074TIP3    H157713   5.430   1.574  15.342  0.1597 -0.7208 -0.6403
12074TIP3    H257714   5.321   1.673  15.307 -0.9748 -0.7775  2.4515
12075TIP3   OH257715   4.510   3.547  14.371  0.0217  0.0940 -0.8199
12075TIP3    H157716   4.558   3.518  14.293 -1.9059 -1.1851 -1.5941
12075TIP3    H257717   4.520   3.474  14.433 -2.7599 -1.3072 -1.8584
12076TIP3   OH257718   1.258   6.077  13.898 -0.2531  0.2233  0.0806
12076TIP3    H157719   1.225   6.009  13.839 -0.1347  0.1026  0.1528
12076TIP3    H257720   1.256   6.037  13.985  0.8102 -0.0612 -0.0082
12077TIP3   OH257721   6.486   4.026   2.802  0.6373 -0.4483 -0.3607
12077TIP3    H157722   6.464   3.971   2.727  0.1524 -1.6230  0.6093
12077TIP3    H257723   6.516   3.964   2.869  3.4198  0.7657 -0.3595
12078TIP3   OH257724   2.764   4.722   5.261 -0.4970  0.2057 -0.0779
12078TIP3    H157725   2.676   4.728   5.223 -0.7778 -0.3632  0.4639
12078TIP3    H257726   2.756   4.763   5.347  0.0867  1.3041 -0.5289
12079TIP3   OH257727   4.816   2.966   3.537 -0.2398 -0.2013  0.2945
12079TIP3    H157728   4.839   2.873   3.527  1.5355  0.1243  0.8628
12079TIP3    H257729   4.899   3.008   3.561 -0.2964  2.0551 -2.8748
12080TIP3   OH257730   0.510   4.078  12.753 -0.2135 -0.1012 -0.4644
12080TIP3    H157731   0.529   4.171  12.736 -0.4094  0.6183  2.5336
12080TIP3    H257732   0.417   4.069  12.734 -0.3754  0.5475 -0.0390
12081TIP3   OH257733   3.786   1.539  15.248  0.2127 -0.2089 -0.4808
12081TIP3    H157734   3.726   1.549  15.175 -0.5724  1.1468  0.3026
12081TIP3    H257735   3.828   1.454  15.234 -0.5681 -0.3722 -1.9997
12082TIP3   OH257736   3.935   0.307   3.703  0.1124  0.2441  0.2186
12082TIP3    H157737   3.921   0.213   3.714  1.1084  0.1384  0.7820
12082TIP3    H257738   3.884   0.347   3.773  1.0441 -0.0027  1.0626
12083TIP3   OH257739   5.962   4.661  16.660  0.4022  0.4271 -0.6235
12083TIP3    H157740   5.933   4.682  16.749 -1.3585  0.0495 -1.0713
12083TIP3    H257741   5.972   4.746  16.618  0.6396  0.5925 -0.2363
12084TIP3   OH257742   1.515   0.959   3.559 -0.5485 -0.0354 -0.0672
12084TIP3    H157743   1.578   0.920   3.498 -0.7061 -0.3751 -0.0153
12084TIP3    H257744   1.458   1.013   3.504 -0.2591  0.2158 -0.1243
12085TIP3   OH257745   4.371   6.795  11.032  0.3877 -0.2003 -0.0710
12085TIP3    H157746   4.443   6.770  10.973  0.1231  0.7971 -0.8367
12085TIP3    H257747   4.328   6.868  10.988 -0.2568  0.1116  1.0391
12086TIP3   OH257748   5.603   4.088   3.303 -0.3152  0.1154  0.6406
12086TIP3    H157749   5.565   4.011   3.260  1.1995  0.0657 -0.7370
12086TIP3    H257750   5.584   4.160   3.244  0.5306  0.3114  0.5876
12087TIP3   OH257751   3.021   1.704   1.059  0.0817 -0.5210 -0.1693
12087TIP3    H157752   3.049   1.761   1.131 -1.0423  0.8129 -0.7477
12087TIP3    H257753   3.054   1.617   1.083  1.7058  0.3214  0.8231
12088TIP3   OH257754   6.177   3.000  14.512 -0.1783  0.2636  0.5703
12088TIP3    H157755   6.112   2.930  14.523  1.0984 -1.1520 -0.3435
12088TIP3    H257756   6.191   3.004  14.417  1.1666  0.4022  0.7519
12089TIP3   OH257757   2.874   4.635   4.915  0.3555 -0.2821  0.3273
12089TIP3    H157758   2.919   4.594   4.988 -1.5436 -1.0804  1.1099
12089TIP3    H257759   2.814   4.568   4.883 -1.8279  1.3696  0.7262
12090TIP3   OH257760   0.345   5.569  14.918  0.2586 -0.3482 -0.7399
12090TIP3    H157761   0.329   5.601  14.829 -0.8117 -0.6583 -0.6768
12090TIP3    H257762   0.339   5.647  14.973 -0.3000 -0.3365 -0.8117
12091TIP3   OH257763   1.713   6.110   1.971 -0.3303 -0.6000  0.5034
12091TIP3    H157764   1.692   6.110   1.878  0.8048 -1.3043  0.2227
12091TIP3    H257765   1.630   6.092   2.015 -1.3531  2.0670 -0.2098
12092TIP3   OH257766   6.147   5.408  12.836 -0.1374 -0.5594 -0.2303
12092TIP3    H157767   6.189   5.326  12.808 -0.0384  0.3207 -2.9344
12092TIP3    H257768   6.208   5.477  12.810 -1.8350  0.5585 -1.5128
12093TIP3   OH257769   1.580   1.359  11.033  0.2540 -0.6791  0.1806
12093TIP3    H157770   1.519   1.409  10.980 -0.0226 -0.0777  1.0434
12093TIP3    H257771   1.666   1.380  10.997  0.2376  1.2285  1.1389
12094TIP3   OH257772   1.951   6.670   5.951  0.0247  0.1744  0.6053
12094TIP3    H157773   1.957   6.740   6.017 -0.5256 -0.9466  1.8972
12094TIP3    H257774   1.858   6.650   5.946  0.3344 -1.8716  1.8427
12095TIP3   OH257775   2.647   6.438   1.688  0.4733  0.5018  0.3922
12095TIP3    H157776   2.679   6.489   1.614  1.4317  0.7847  0.9891
12095TIP3    H257777   2.725   6.396   1.724 -0.1931 -0.7898  0.3730
12096TIP3   OH257778   0.535   3.745  16.811 -0.0752 -0.0699 -0.3676
12096TIP3    H157779   0.521   3.664  16.860  1.1568 -1.5616 -2.3443
12096TIP3    H257780   0.566   3.807  16.876  0.9072 -1.7651  0.8642
12097TIP3   OH257781   0.482   1.870  13.098  0.5553 -0.5442  0.8838
12097TIP3    H157782   0.535   1.794  13.073 -0.4392 -0.8308 -0.4141
12097TIP3    H257783   0.546   1.940  13.112  1.2712 -0.5315 -1.8650
12098TIP3   OH257784   0.637   4.079  11.711  0.4839  0.6186 -0.1441
12098TIP3    H157785   0.549   4.052  11.735  0.5319  1.5334  1.1598
12098TIP3    H257786   0.647   4.167  11.748  1.5985  0.9411 -1.1232
12099TIP3   OH257787   3.495   1.505   3.276 -0.2762  0.3606 -0.2116
12099TIP3    H157788   3.516   1.515   3.183 -1.0262  1.4045 -0.2816
12099TIP3    H257789   3.556   1.565   3.320  0.2373 -0.3062 -0.0017
12100TIP3   OH257790   6.027   1.230   2.093  0.1849  0.2564 -0.3295
12100TIP3    H157791   5.987   1.229   2.180 -0.4691 -1.6890 -0.6087
12100TIP3    H257792   5.953   1.220   2.032  0.6912  1.0038 -1.0931
12101TIP3   OH257793   2.127   2.304  10.269 -0.1352 -0.0972  0.2424
12101TIP3    H157794   2.034   2.323  10.258 -0.3365 -0.5533  1.0659
12101TIP3    H257795   2.130   2.234  10.335  0.8085  0.1597  0.4914
12102TIP3   OH257796   1.234   1.250  11.330  0.5302  0.4579  0.4751
12102TIP3    H157797   1.307   1.222  11.274  0.2893  0.3142  0.2327
12102TIP3    H257798   1.156   1.216  11.286  0.4372 -0.9386  1.6708
12103TIP3   OH257799   5.088   0.670  13.884  0.7280 -0.2500 -0.0044
12103TIP3    H157800   5.178   0.679  13.914  1.6059 -0.8102 -2.2443
12103TIP3    H257801   5.076   0.743  13.823  0.4565 -1.4530 -1.4381
12104TIP3   OH257802   2.952   4.346   2.193 -0.4049 -0.1898 -0.6330
12104TIP3    H157803   3.015   4.274   2.184 -1.1985 -1.2647  1.6098
12104TIP3    H257804   2.996   4.422   2.155  1.7758 -1.1554 -0.1690
12105TIP3   OH257805   5.543   1.021  14.961 -0.3553 -0.2446 -0.0074
12105TIP3    H157806   5.624   1.000  14.916  1.3083 -0.2482  2.7735
12105TIP3    H257807   5.518   1.107  14.927  1.3619  0.1938 -0.2279
12106TIP3   OH257808   5.853   2.027   0.658  0.1295  0.1100  1.1350
12106TIP3    H157809   5.796   1.954   0.683  1.2296 -0.4554  2.0721
12106TIP3    H257810   5.793   2.099   0.640 -1.0354 -1.1668 -0.4395
12107TIP3   OH257811   4.455   1.597  13.872 -0.2846  0.6413 -0.4032
12107TIP3    H157812   4.375   1.638  13.836 -0.7642 -0.3143 -0.4417
12107TIP3    H257813   4.479   1.531  13.807  0.1328  0.4355 -0.0438
12108TIP3   OH257814   1.818   6.140  13.402  0.5572  0.1761 -0.0836
12108TIP3    H157815   1.823   6.112  13.311 -0.6693 -0.2400 -0.0356
12108TIP3    H257816   1.725   6.158  13.417  0.8751  1.1954  0.8098
12109TIP3   OH257817   1.365   1.944  16.291  0.6739 -0.4520  0.0674
12109TIP3    H157818   1.395   2.001  16.220 -0.5461 -0.0504 -0.1519
12109TIP3    H257819   1.355   2.003  16.366  1.5874 -0.8042  0.4752
12110TIP3   OH257820   3.163   4.401   1.784  0.3442 -0.2206 -0.7859
12110TIP3    H157821   3.169   4.309   1.811  0.7609  0.0355  0.0299
12110TIP3    H257822   3.169   4.398   1.689 -1.0530 -1.1446 -0.8651
12111TIP3   OH257823   5.643   3.422  15.153 -0.2585  0.1892 -0.3887
12111TIP3    H157824   5.700   3.368  15.098  0.3032  1.2009 -0.8342
12111TIP3    H257825   5.558   3.419  15.109 -0.1659 -0.1220 -0.5493
12112TIP3   OH257826   4.456   0.655   2.422 -0.2919  0.5156  0.0673
12112TIP3    H157827   4.368   0.691   2.407 -0.4836  0.9608  1.9466
12112TIP3    H257828   4.456   0.634   2.515  0.0577 -3.7090 -0.6886
12113TIP3   OH257829   1.539   1.048  15.397  0.2305 -0.4312 -0.1359
12113TIP3    H157830   1.449   1.016  15.391  0.0415  0.0876 -0.1373
12113TIP3    H257831   1.589   0.991  15.338 -0.4168  0.4018 -1.5236
12114TIP3   OH257832   1.488   5.975  11.848  0.4424  0.3207  0.5383
12114TIP3    H157833   1.402   5.946  11.880  0.4514 -0.7327 -0.3429
12114TIP3    H257834   1.479   6.069  11.838 -0.7034  0.1974  0.2349
12115TIP3   OH257835   0.331   1.818  12.373 -0.3072  0.1632  0.1606
12115TIP3    H157836   0.414   1.827  12.326 -0.0878 -0.2515  0.4609
12115TIP3    H257837   0.357   1.798  12.463 -0.7179  1.0867  0.4969
12116TIP3   OH257838   2.492   3.437  13.501  0.3930 -0.3020 -0.0628
12116TIP3    H157839   2.466   3.377  13.431 -1.4814 -1.1539  1.3011
12116TIP3    H257840   2.568   3.395  13.542 -0.9707 -1.8799  0.9589
12117TIP3   OH257841   5.069   5.379   1.317 -0.1938  0.8047 -0.0117
12117TIP3    H157842   5.159   5.399   1.344  0.8080 -3.1837  0.1180
12117TIP3    H257843   5.019   5.384   1.399  0.5173  0.1173  0.4764
12118TIP3   OH257844   6.824   4.617   1.996  0.2494  0.1638  0.4228
12118TIP3    H157845   6.774   4.698   1.986 -0.5619 -0.2483  0.9828
12118TIP3    H257846   6.903   4.630   1.944 -0.6408  0.6774 -0.8382
12119TIP3   OH257847   2.371   4.937  13.548 -0.1344 -0.2942  0.1817
12119TIP3    H157848   2.377   4.914  13.455  0.9620  0.6348 -0.0010
12119TIP3    H257849   2.433   4.878  13.591  1.4295  1.0726 -0.0724
12120TIP3   OH257850   6.112   2.387   4.287 -0.3776  0.3739  0.2044
12120TIP3    H157851   6.089   2.461   4.231  1.3322  1.2093  0.5465
12120TIP3    H257852   6.107   2.422   4.376  0.6377  0.1561  0.3599
12121TIP3   OH257853   2.182   6.815  15.498 -0.1200 -0.4083  0.4782
12121TIP3    H157854   2.100   6.782  15.535 -0.2287  0.0273  0.6278
12121TIP3    H257855   2.183   6.908  15.521 -0.1603 -0.1376 -0.5556
12122TIP3   OH257856   0.576   5.634   2.224 -0.1181  0.2460  0.3549
12122TIP3    H157857   0.578   5.726   2.196  0.8014  0.0150 -0.4055
12122TIP3    H257858   0.486   5.619   2.253 -0.4435  1.2080 -0.1248
12123TIP3   OH257859   2.478   6.036   3.558 -0.3868 -0.0246 -0.7033
12123TIP3    H157860   2.528   6.011   3.480  1.4083  0.7526  0.1408
12123TIP3    H257861   2.476   6.132   3.555 -3.5067 -0.0092 -1.6644
12124TIP3   OH257862   4.114   3.476  16.238 -0.5572 -0.1621  0.3480
12124TIP3    H157863   4.075   3.528  16.167 -1.2966  1.0651  1.6005
12124TIP3    H257864   4.191   3.526  16.265 -0.9867  0.0402  1.2303
12125TIP3   OH257865   5.274   6.543  13.808 -0.5889  0.3498  0.4780
12125TIP3    H157866   5.251   6.609  13.743 -0.2598  0.1731  0.1814
12125TIP3    H257867   5.349   6.579  13.854 -0.4207  0.1924  0.3281
12126TIP3   OH257868   4.630   4.159  12.874 -0.3119 -0.5437  0.0674
12126TIP3    H157869   4.691   4.091  12.901 -0.7987 -1.2062 -0.4764
12126TIP3    H257870   4.544   4.117  12.876 -0.3631 -0.7732 -2.7820
12127TIP3   OH257871   3.039   3.309  15.638  0.1581  0.0265  0.3339
12127TIP3    H157872   3.106   3.363  15.597  0.7850 -0.6622  0.4199
12127TIP3    H257873   3.089   3.244  15.689 -0.5823 -0.1352  0.8632
12128TIP3   OH257874   5.237   0.168   3.141  0.8954 -0.1007 -0.6062
12128TIP3    H157875   5.280   0.158   3.226 -0.7962  1.8589  0.5645
12128TIP3    H257876   5.196   0.083   3.124  1.0187 -0.4331  0.6867
12129TIP3   OH257877   1.115   3.634   3.300 -0.0329  0.0188 -0.0799
12129TIP3    H157878   1.169   3.701   3.258  0.5391 -1.3252 -1.5816
12129TIP3    H257879   1.030   3.641   3.258  0.1999 -0.5640 -0.6622
12130TIP3   OH257880   3.571   4.084   3.413 -0.0028  0.0666 -0.5159
12130TIP3    H157881   3.593   4.018   3.479  0.4992  1.7157  1.0381
12130TIP3    H257882   3.503   4.138   3.455 -1.8366 -0.5601 -2.4818
12131TIP3   OH257883   6.667   0.040  15.124  0.2574  0.5427  0.0970
12131TIP3    H157884   6.598   0.039  15.058 -0.6420  1.0903  1.0085
12131TIP3    H257885   6.671  -0.051  15.156  0.6996  0.2750 -0.6881
12132TIP3   OH257886   5.536   1.963   0.495  0.2436 -0.4272  0.1935
12132TIP3    H157887   5.606   1.914   0.536  0.8847  0.3811  0.0908
12132TIP3    H257888   5.468   1.898   0.476  0.9427 -1.2023  0.3375
12133TIP3   OH257889   3.288   2.773   2.998  0.2309  0.0222  0.2511
12133TIP3    H157890   3.227   2.706   2.970 -1.1614  0.4111  2.1545
12133TIP3    H257891   3.288   2.768   3.094  0.9808  1.9225  0.4080
12134TIP3   OH257892   5.631   6.349  16.233  0.5344  0.0188  0.2543
12134TIP3    H157893   5.546   6.392  16.235 -0.3857 -1.5920 -1.2255
12134TIP3    H257894   5.613   6.263  16.195  2.7538 -0.5380  0.3410
12135TIP3   OH257895   5.856   3.274  16.644 -0.2581  0.1449  0.2518
12135TIP3    H157896   5.930   3.289  16.584  0.6711 -0.9149  1.0756
12135TIP3    H257897   5.801   3.210  16.598  0.0069 -0.0255  0.1674
12136TIP3   OH257898   6.017   6.727   3.193 -0.7219  0.2448 -0.2985
12136TIP3    H157899   6.110   6.746   3.204 -0.8439  0.0380  1.2319
12136TIP3    H257900   6.005   6.723   3.098  1.1834 -1.4572 -0.5398
12137TIP3   OH257901   0.632   5.567  11.896  0.2760  0.1005 -0.0018
12137TIP3    H157902   0.574   5.553  11.971 -0.1902  1.1321 -0.1462
12137TIP3    H257903   0.706   5.616  11.933  0.8533 -0.8121  0.0908
12138TIP3   OH257904   5.105   1.545   3.076  0.4028 -0.4112 -0.2470
12138TIP3    H157905   5.136   1.621   3.125 -0.7716 -0.7628  1.0849
12138TIP3    H257906   5.163   1.474   3.103  0.9131 -0.2053 -0.7835
12139TIP3   OH257907   6.635   0.974   2.891 -0.2676  0.0833 -0.1730
12139TIP3    H157908   6.688   1.017   2.824  1.1946  1.0584  1.5328
12139TIP3    H257909   6.557   1.029   2.899  0.5739  1.2282  0.4358
12140TIP3   OH257910   5.945   5.131   6.517 -0.3153  0.3494  0.1439
12140TIP3    H157911   6.005   5.206   6.520  1.3899 -0.9147 -0.3266
12140TIP3    H257912   6.003   5.055   6.503 -2.0947 -0.8665 -1.0749
12141TIP3   OH257913   1.308   5.935   4.951  0.3501 -0.2494  0.1190
12141TIP3    H157914   1.348   5.890   4.877 -1.5136  0.1850 -1.2002
12141TIP3    H257915   1.228   5.887   4.970  0.9181 -0.5243  2.0802
12142TIP3   OH257916   0.906   4.449  14.305 -0.3334 -0.6048 -0.3974
12142TIP3    H157917   0.897   4.447  14.401 -1.4013 -3.4595 -0.4675
12142TIP3    H257918   0.879   4.538  14.281 -0.6660 -0.0097  1.8878
12143TIP3   OH257919   4.037   5.073   4.204  0.4627 -0.6128  0.1728
12143TIP3    H157920   4.082   5.019   4.139 -0.5564 -0.6244 -0.5364
12143TIP3    H257921   3.985   5.134   4.153  0.4032  0.0294  0.9800
12144TIP3   OH257922   1.042   1.698   2.207  0.3732  0.0385  0.0346
12144TIP3    H157923   1.119   1.743   2.242  0.7284 -1.5630  1.4457
12144TIP3    H257924   0.968   1.755   2.229  0.8403  0.1091  1.5330
12145TIP3   OH257925   1.885   0.687   4.510  0.0352  0.2859 -0.4453
12145TIP3    H157926   1.797   0.692   4.548 -0.4433 -1.5442 -1.2032
12145TIP3    H257927   1.874   0.720   4.421  0.3074  0.8099 -0.2904
12146TIP3   OH257928   2.987   1.670   2.048 -0.3077  0.3652  0.1445
12146TIP3    H157929   2.984   1.681   1.953  2.1926 -0.9575 -0.1694
12146TIP3    H257930   2.908   1.620   2.069 -1.3274  1.3861 -1.0767
12147TIP3   OH257931   0.935   3.955  11.650 -0.1766 -0.1076  0.1088
12147TIP3    H157932   0.870   3.900  11.695  0.1268  0.8093  1.7483
12147TIP3    H257933   0.952   4.026  11.711 -0.8457  2.0711 -2.0939
12148TIP3   OH257934   0.019   0.931   1.960  0.4271 -0.1780 -0.2165
12148TIP3    H157935   0.020   0.937   2.055  0.3976 -1.1817 -0.1459
12148TIP3    H257936  -0.045   0.862   1.941  2.4028 -1.9651 -0.8175
12149TIP3   OH257937   2.751   4.868  16.774 -0.0970 -0.0737  0.2589
12149TIP3    H157938   2.694   4.863  16.850 -1.3630  2.3992 -0.4349
12149TIP3    H257939   2.801   4.949  16.786 -0.0505  0.1702 -1.3373
12150TIP3   OH257940   2.477   5.571  16.942  0.2597  0.3542  0.2879
12150TIP3    H157941   2.506   5.485  16.912 -0.8850 -0.1543  0.5808
12150TIP3    H257942   2.390   5.556  16.979 -0.2379  1.7310 -0.2191
12151TIP3   OH257943   2.442   1.836  16.197  0.5734 -0.3302  0.3535
12151TIP3    H157944   2.419   1.903  16.261 -0.0639 -0.1137 -0.0871
12151TIP3    H257945   2.362   1.783  16.188  0.8628 -0.7465  0.2108
12152TIP3   OH257946   2.358   0.114   5.043  0.8359 -0.5770  0.4641
12152TIP3    H157947   2.426   0.176   5.068  1.2888 -0.7348 -0.3515
12152TIP3    H257948   2.304   0.105   5.121 -0.7034  2.7396 -0.0397
12153TIP3   OH257949   4.237   6.339   3.882  0.0599  0.1236 -0.1369
12153TIP3    H157950   4.315   6.285   3.896  1.9384  2.8667  0.7971
12153TIP3    H257951   4.167   6.293   3.929  0.8804 -2.7116 -1.4640
12154TIP3   OH257952   4.265   5.317  16.684 -0.2140 -0.1677  0.1633
12154TIP3    H157953   4.268   5.221  16.694  1.9998 -0.2341 -0.7735
12154TIP3    H257954   4.354   5.342  16.662 -1.1750  1.9104 -1.6815
12155TIP3   OH257955   0.138   0.866  12.961 -0.5434  0.2280 -0.6166
12155TIP3    H157956   0.066   0.927  12.978  0.6926  1.1685  1.6476
12155TIP3    H257957   0.212   0.923  12.938  0.4366 -0.4101  0.7965
12156TIP3   OH257958   2.669   0.817   5.288  0.3631  0.1857  0.0810
12156TIP3    H157959   2.625   0.890   5.246 -1.9146  0.8643  3.2241
12156TIP3    H257960   2.742   0.857   5.336 -0.3241  0.3404  1.0442
12157TIP3   OH257961   5.753   5.896  11.637  0.4126 -0.3381  0.1623
12157TIP3    H157962   5.839   5.856  11.644 -0.1100 -1.5633 -0.0834
12157TIP3    H257963   5.753   5.965  11.703  1.9021  0.3250 -0.4762
12158TIP3   OH257964   6.254   5.370   0.484  0.4588  0.3084  0.2514
12158TIP3    H157965   6.276   5.278   0.467  1.2627  0.1863  1.8124
12158TIP3    H257966   6.269   5.413   0.400  0.2497 -0.9368 -0.4637
12159TIP3   OH257967   2.022   0.818   5.182  0.6425 -0.3894 -0.1614
12159TIP3    H157968   2.064   0.903   5.195  1.5836 -0.7986 -0.4108
12159TIP3    H257969   1.929   0.835   5.190  0.8954  0.3285  1.7035
12160TIP3   OH257970   3.100   2.323  12.896 -0.4886 -0.4280  0.3532
12160TIP3    H157971   3.178   2.314  12.951 -1.0465  1.0123  1.4501
12160TIP3    H257972   3.039   2.373  12.950 -2.2033 -1.5566 -0.4673
12161TIP3   OH257973   4.799   0.438   5.819  0.8550  0.0883  0.5388
12161TIP3    H157974   4.749   0.519   5.816 -0.1272 -0.4920  0.7825
12161TIP3    H257975   4.758   0.386   5.888  2.2316 -0.1369  1.2357
12162TIP3   OH257976   6.456   3.272   5.727 -0.2239  0.2282 -0.6495
12162TIP3    H157977   6.463   3.299   5.818 -1.0747 -0.0935 -0.4768
12162TIP3    H257978   6.532   3.313   5.684 -0.4080  1.2829 -0.0242
12163TIP3   OH257979   6.526   5.658   2.688 -0.3048  0.9744  0.8016
12163TIP3    H157980   6.575   5.609   2.622 -0.0041  1.3934  0.7081
12163TIP3    H257981   6.559   5.626   2.772 -0.2684  0.8625  0.7445
12164TIP3   OH257982   6.572   4.180   2.487  0.3301  0.1846  0.5448
12164TIP3    H157983   6.590   4.245   2.420  1.6321 -1.8921 -1.2617
12164TIP3    H257984   6.650   4.180   2.543  0.8948 -0.6367 -0.2125
12165TIP3   OH257985   0.759   0.813  16.282  0.9526 -0.0933  0.0807
12165TIP3    H157986   0.667   0.788  16.272  1.5359 -2.9530  1.0189
12165TIP3    H257987   0.765   0.843  16.373  0.6112  1.9752 -0.5405
12166TIP3   OH257988   1.378   3.308   5.767  0.1962  0.0990  0.4416
12166TIP3    H157989   1.378   3.324   5.861 -0.9608  0.8343  0.3415
12166TIP3    H257990   1.470   3.309   5.742  0.4566  1.3576  1.3472
12167TIP3   OH257991   6.359   0.350  16.100 -0.8185 -0.0557 -0.2131
12167TIP3    H157992   6.434   0.389  16.146  0.5113  0.2434 -2.4856
12167TIP3    H257993   6.396   0.275  16.054 -2.1231 -0.4290 -0.6930
12168TIP3   OH257994   5.181   6.514  15.893 -0.2641 -0.9843 -0.1949
12168TIP3    H157995   5.274   6.509  15.916  0.2639  0.5787 -1.7795
12168TIP3    H257996   5.137   6.462  15.961  1.3244  1.5239  3.0110
12169TIP3   OH257997   2.057   1.064  11.448 -0.0209 -0.1326 -0.4062
12169TIP3    H157998   2.098   0.982  11.420  0.3871 -0.2370  0.4675
12169TIP3    H257999   2.082   1.127  11.380  3.2668  0.2748  1.0023
12170TIP3   OH258000   3.174   0.967  13.768 -0.0973  0.6141 -0.0916
12170TIP3    H158001   3.205   0.890  13.817  0.0394  2.0224  2.1774
12170TIP3    H258002   3.142   0.931  13.686  0.0364 -1.8699  0.8437
12171TIP3   OH258003   5.004   6.018  13.998  0.1884 -0.1244  0.3317
12171TIP3    H158004   4.995   6.069  14.079  1.4983 -0.7020  0.8706
12171TIP3    H258005   4.940   6.056  13.938 -0.2174  0.8669  1.3641
12172TIP3   OH258006   3.966   4.610   0.140 -0.2595 -0.2076 -0.4975
12172TIP3    H158007   3.873   4.606   0.159 -0.3859  1.5724 -0.5715
12172TIP3    H258008   4.003   4.532   0.180 -1.6058 -0.3120  0.5906
12173TIP3   OH258009   5.765   6.156   0.122  0.6392  0.3000 -0.8887
12173TIP3    H158010   5.850   6.146   0.164  0.8187  0.6695 -1.1648
12173TIP3    H258011   5.729   6.067   0.120  0.4527  0.3263  0.3926
12174TIP3   OH258012   4.273   0.343  14.320 -0.4280  0.2026  0.2847
12174TIP3    H158013   4.344   0.328  14.383 -1.2734 -0.4173  1.1072
12174TIP3    H258014   4.254   0.256  14.284 -0.8343  0.3541  0.1268
12175TIP3   OH258015   4.180   4.692  15.890 -0.2829  0.3714 -0.4088
12175TIP3    H158016   4.141   4.722  15.808 -1.1745 -0.8447 -0.4693
12175TIP3    H258017   4.175   4.596  15.885  0.6573  0.2428  0.5930
12176TIP3   OH258018   2.563   0.702  12.405  0.1322  0.3255  0.3601
12176TIP3    H158019   2.517   0.708  12.489  1.6514  2.3059  1.1271
12176TIP3    H258020   2.629   0.634  12.418 -0.7868 -0.6346  0.1378
12177TIP3   OH258021   2.020   3.248   5.033 -0.3967 -0.3341  0.0563
12177TIP3    H158022   1.995   3.333   4.997  1.5170 -1.0344 -3.3742
12177TIP3    H258023   2.114   3.257   5.052 -0.6425 -1.0780  1.7793
12178TIP3   OH258024   3.627   4.333   5.287 -0.2759  0.3936  0.4028
12178TIP3    H158025   3.541   4.298   5.264  0.0129 -0.4095  0.5019
12178TIP3    H258026   3.635   4.413   5.235 -0.6788 -0.0392 -0.3494
12179TIP3   OH258027   0.047   4.708  13.110  0.3770  0.1913  0.3503
12179TIP3    H158028   0.107   4.640  13.081 -0.7606 -0.4774 -0.5310
12179TIP3    H258029  -0.034   4.661  13.131 -0.2670  1.2174  0.2218
12180TIP3   OH258030   2.201   0.533   3.365  0.3121  0.0552 -0.3540
12180TIP3    H158031   2.259   0.467   3.328  0.0652 -0.0584 -0.5386
12180TIP3    H258032   2.207   0.519   3.460  0.6458  0.0972 -0.3663
12181TIP3   OH258033   0.703   3.503  10.528  0.0364 -0.1440 -0.8816
12181TIP3    H158034   0.784   3.460  10.501 -0.5762 -1.4204 -0.7612
12181TIP3    H258035   0.634   3.442  10.503 -0.9703  1.2346 -1.6344
12182TIP3   OH258036   2.474   5.129   0.374 -0.2925 -0.3959  0.0487
12182TIP3    H158037   2.448   5.047   0.416  0.1566  0.2475  1.6698
12182TIP3    H258038   2.505   5.184   0.446 -2.2525  1.8674 -0.6968
12183TIP3   OH258039   3.561   5.645  12.962 -0.1711 -1.0162 -0.0869
12183TIP3    H158040   3.637   5.702  12.953 -0.2964 -0.8479 -0.0670
12183TIP3    H258041   3.548   5.635  13.056  0.0646 -1.3608 -0.0888
12184TIP3   OH258042   2.003   2.541   4.089  0.0256  0.1313  0.0522
12184TIP3    H158043   1.995   2.636   4.090 -0.2511  0.1140  1.0654
12184TIP3    H258044   1.921   2.510   4.051  0.4978  0.3135 -1.1475
12185TIP3   OH258045   0.664   0.267   5.067  0.0163 -0.0147 -0.0116
12185TIP3    H158046   0.759   0.278   5.071 -0.0784  1.4958 -0.8921
12185TIP3    H258047   0.644   0.274   4.974 -0.9181 -0.8149  0.1201
12186TIP3   OH258048   6.302   0.625   4.307 -0.3047 -0.3091  0.2613
12186TIP3    H158049   6.331   0.649   4.396  1.4053  1.8493 -0.7717
12186TIP3    H258050   6.333   0.697   4.252 -1.1698 -1.6667 -2.1403
12187TIP3   OH258051   1.205   5.572   5.545  0.8631  0.3543 -0.7156
12187TIP3    H158052   1.252   5.526   5.614  2.6718  1.7979 -0.9023
12187TIP3    H258053   1.150   5.505   5.504 -0.0566 -0.5947  1.8925
12188TIP3   OH258054   0.046   2.274  13.006  0.4738 -0.1980  0.0385
12188TIP3    H158055  -0.035   2.319  12.982  0.3237 -0.2731  0.3931
12188TIP3    H258056   0.115   2.335  12.980  0.2375  1.1747  2.3282
12189TIP3   OH258057   0.773   6.145   0.663 -0.1528  0.4566  0.2332
12189TIP3    H158058   0.696   6.173   0.614  0.7859  1.8395 -0.5239
12189TIP3    H258059   0.847   6.183   0.615  1.0068 -0.7063  1.0124
12190TIP3   OH258060   6.426   2.417  14.091 -0.4144 -0.3329  0.8993
12190TIP3    H158061   6.481   2.350  14.051 -1.2768  0.4328 -1.7390
12190TIP3    H258062   6.488   2.478  14.131  0.7309  0.3345 -1.7280
12191TIP3   OH258063   2.888   5.753   1.023 -0.1184 -0.7105 -0.1779
12191TIP3    H158064   2.937   5.711   1.094  1.5111  0.9737 -0.2196
12191TIP3    H258065   2.955   5.797   0.970 -1.5541  0.4315 -1.1376
12192TIP3   OH258066   4.429   0.514  12.730 -0.0839 -0.0419 -0.2874
12192TIP3    H158067   4.346   0.466  12.728  0.3184 -0.7584 -0.1066
12192TIP3    H258068   4.479   0.471  12.799  0.0200  1.0950  0.3585
12193TIP3   OH258069   0.053   2.659  14.551  0.1542  0.0836 -0.4661
12193TIP3    H158070   0.067   2.612  14.633 -1.1937  2.0286  0.9498
12193TIP3    H258071  -0.042   2.661  14.540  0.3104 -0.5292 -2.3552
12194TIP3   OH258072   1.481   4.150   2.069  0.0463  0.0232 -1.1699
12194TIP3    H158073   1.411   4.190   2.019 -1.5851 -1.1202  0.1008
12194TIP3    H258074   1.506   4.216   2.134 -0.8162 -0.0335 -0.7649
12195TIP3   OH258075   0.352   2.450  11.921  0.1050 -0.6911 -0.0741
12195TIP3    H158076   0.268   2.430  11.963  0.7956  0.6071  2.1000
12195TIP3    H258077   0.417   2.407  11.977  1.2536  3.1301  1.8399
12196TIP3   OH258078   5.013   4.407  12.904 -0.0146 -0.0190 -0.2175
12196TIP3    H158079   4.941   4.429  12.845  1.1796  2.0743 -1.0025
12196TIP3    H258080   4.979   4.427  12.992 -0.7217 -0.0228 -0.4874
12197TIP3   OH258081   1.330   0.310   1.400 -0.3786 -0.4622  0.0714
12197TIP3    H158082   1.346   0.396   1.438  1.1840 -0.6735 -0.0386
12197TIP3    H258083   1.373   0.249   1.460 -0.0247 -1.0107 -0.7145
12198TIP3   OH258084   0.301   3.761   3.039  0.1883  0.2524  0.6420
12198TIP3    H158085   0.292   3.817   2.962  0.4630 -1.9417 -1.0723
12198TIP3    H258086   0.394   3.761   3.058  0.0707  1.1463  1.3000
12199TIP3   OH258087   6.187   0.749  10.752 -0.1434 -0.0436  0.2160
12199TIP3    H158088   6.220   0.666  10.720  1.0421  0.1907  0.7642
12199TIP3    H258089   6.116   0.772  10.692  1.0428 -0.3133 -1.3378
12200TIP3   OH258090   6.676   5.561   0.329  0.1964  0.4421 -0.3796
12200TIP3    H158091   6.666   5.501   0.404 -0.2525 -1.5453 -1.9516
12200TIP3    H258092   6.768   5.584   0.329  0.6941 -1.4186 -0.5529
12201TIP3   OH258093   1.668   1.332  14.012 -0.2231  0.2753  0.1844
12201TIP3    H158094   1.711   1.302  13.931 -0.1803  0.3185  0.1914
12201TIP3    H258095   1.674   1.427  14.008  1.0422  0.2481  0.9224
12202TIP3   OH258096   4.398   1.907  13.517  0.0758  0.4707  0.5155
12202TIP3    H158097   4.311   1.918  13.555  0.1000  0.9260  0.4388
12202TIP3    H258098   4.381   1.898  13.423  0.0242 -0.5438  0.6092
12203TIP3   OH258099   0.682   1.155  14.204  0.1529  0.2844  0.2683
12203TIP3    H158100   0.602   1.198  14.232 -0.8175 -1.5481  0.5077
12203TIP3    H258101   0.653   1.090  14.140  1.3005 -1.0439  1.0395
12204TIP3   OH258102   1.509   2.942   3.817 -0.3089  0.2690 -0.6007
12204TIP3    H158103   1.535   2.932   3.908  2.6136  0.6847 -1.2838
12204TIP3    H258104   1.473   2.856   3.792  2.0926 -1.0276  0.0629
12205TIP3   OH258105   3.155   4.621  15.977  0.2021 -0.3003  0.1293
12205TIP3    H158106   3.095   4.693  15.956  1.4627  1.6882  2.7581
12205TIP3    H258107   3.101   4.557  16.023 -0.6718 -0.4481 -1.0696
12206TIP3   OH258108   1.165   2.809  11.728 -0.0512  0.2332  0.0963
12206TIP3    H158109   1.205   2.890  11.696  2.2490 -0.1011  1.8519
12206TIP3    H258110   1.149   2.757  11.650  2.4985  0.6449 -0.7990
12207TIP3   OH258111   5.241   0.477   4.442  0.7665  0.0093 -0.2090
12207TIP3    H158112   5.306   0.410   4.425  0.7973 -0.5222  1.7111
12207TIP3    H258113   5.161   0.445   4.402  1.2710 -0.1596 -1.0942
12208TIP3   OH258114   3.029   1.853   5.362 -0.6247  0.1442 -0.0055
12208TIP3    H158115   3.064   1.835   5.449 -0.2604 -1.0935 -0.3866
12208TIP3    H258116   3.106   1.864   5.306 -0.8377  2.1639  0.0237
12209TIP3   OH258117   3.645   5.052  13.305 -0.7366 -0.0287  0.0819
12209TIP3    H158118   3.717   5.004  13.347 -0.7102 -0.9212 -0.9599
12209TIP3    H258119   3.610   4.991  13.240 -1.8289  0.7456 -0.0765
12210TIP3   OH258120   5.087   5.551   2.427  0.1852  0.6699 -0.6452
12210TIP3    H158121   5.046   5.504   2.354 -0.6626  2.2831 -1.2692
12210TIP3    H258122   5.054   5.507   2.506  1.9890 -1.8150 -1.1756
12211TIP3   OH258123   5.222   5.475   1.089  0.0939 -0.0451  0.4038
12211TIP3    H158124   5.176   5.476   1.173  1.1509  1.3800  1.0123
12211TIP3    H258125   5.252   5.385   1.079 -1.7439 -0.7248  0.5537
12212TIP3   OH258126   2.965   0.125  15.917  0.2992 -0.5237  0.1805
12212TIP3    H158127   2.969   0.091  16.007 -0.5867 -0.9302  0.0720
12212TIP3    H258128   3.053   0.110  15.882  0.6800 -0.2803  1.0074
12213TIP3   OH258129   4.303   0.775  15.264 -0.9238  0.5330  0.0982
12213TIP3    H158130   4.213   0.807  15.255 -0.5693  1.9312  1.1194
12213TIP3    H258131   4.317   0.773  15.359  1.0642  3.1985 -0.0447
12214TIP3   OH258132   5.028   6.509   4.784 -0.6002  0.3060  0.4868
12214TIP3    H158133   4.942   6.504   4.825 -1.5940  1.8243 -1.2209
12214TIP3    H258134   5.010   6.501   4.690  1.2872 -0.6372  0.1623
12215TIP3   OH258135   2.114   1.628   5.474 -0.3535  0.1888  0.3129
12215TIP3    H158136   2.113   1.560   5.407  0.2035  0.5247 -0.0386
12215TIP3    H258137   2.120   1.580   5.557  0.8589 -0.1828  0.0321
12216TIP3   OH258138   1.773   2.689  15.604 -0.7444 -0.5130  0.4529
12216TIP3    H158139   1.768   2.676  15.509 -1.9089 -0.2785  0.4713
12216TIP3    H258140   1.710   2.627  15.640  0.3418 -1.2494  1.1578
12217TIP3   OH258141   3.962   1.553  14.639  0.0151 -0.0661  0.1388
12217TIP3    H158142   4.057   1.565  14.639 -0.1155  1.1589 -0.3046
12217TIP3    H258143   3.942   1.516  14.553  0.2177 -1.6994  0.7654
12218TIP3   OH258144   1.673   1.852   1.193 -0.2891 -0.0406  0.0692
12218TIP3    H158145   1.746   1.791   1.203  0.0336  0.4344  0.6479
12218TIP3    H258146   1.644   1.869   1.282 -1.9828 -1.2399 -0.1946
12219TIP3   OH258147   4.262   5.609   5.659 -0.2176  1.2755  0.4176
12219TIP3    H158148   4.250   5.639   5.749 -0.1443  0.8275  0.5832
12219TIP3    H258149   4.328   5.667   5.622  2.2500 -0.5215  1.6920
12220TIP3   OH258150   5.341   5.596  13.219  0.1315 -0.1399 -0.2111
12220TIP3    H158151   5.308   5.682  13.246 -1.0946 -1.2297  2.0657
12220TIP3    H258152   5.435   5.608  13.209 -0.2925  2.0562 -2.6490
12221TIP3   OH258153   0.784   0.707   3.371  0.2299 -0.0254 -0.1480
12221TIP3    H158154   0.757   0.677   3.284  0.4654 -0.1099 -0.1914
12221TIP3    H258155   0.874   0.676   3.380  0.0747 -0.3503  0.2795
12222TIP3   OH258156   0.340   1.076  11.874  0.3883 -0.4953 -0.0912
12222TIP3    H158157   0.426   1.035  11.876  0.9101  0.5951  0.9074
12222TIP3    H258158   0.357   1.168  11.890 -0.8955 -0.1053 -0.7993
12223TIP3   OH258159   0.595   3.728   3.089  0.3719  0.2839  0.2857
12223TIP3    H158160   0.650   3.792   3.135  1.3823 -0.9592  0.8868
12223TIP3    H258161   0.656   3.658   3.066 -0.7182 -0.4880 -0.2998
12224TIP3   OH258162   6.476   0.701  15.686 -0.3392  0.1455  0.3427
12224TIP3    H158163   6.484   0.783  15.733 -3.0861  0.4907  0.3536
12224TIP3    H258164   6.526   0.638  15.738  0.8429  1.5383  0.9480
12225TIP3   OH258165   3.391   3.253   2.338  0.2292 -0.2579 -1.0076
12225TIP3    H158166   3.357   3.196   2.268  1.5122 -1.3675 -0.7835
12225TIP3    H258167   3.328   3.245   2.409 -0.5997  0.1300 -1.6892
12226TIP3   OH258168   5.862   0.989   3.386 -0.1221  0.3722  0.6281
12226TIP3    H158169   5.902   1.064   3.343 -1.3053  0.6778  0.0273
12226TIP3    H258170   5.935   0.945   3.430  0.9740  0.5320 -0.9644
12227TIP3   OH258171   4.151   5.777   0.407 -0.2186 -0.3024 -0.2794
12227TIP3    H158172   4.212   5.777   0.481  0.5508 -1.3996 -0.8872
12227TIP3    H258173   4.190   5.717   0.343 -0.2006  1.5824 -2.1486
12228TIP3   OH258174   5.469   2.931   3.428  0.1065  0.4398  0.2931
12228TIP3    H158175   5.501   3.018   3.454 -0.3660  0.6635  0.1413
12228TIP3    H258176   5.458   2.884   3.510  3.5240 -0.6459  0.2599
12229TIP3   OH258177   4.983   3.966   1.449  0.2147 -0.0948 -0.9574
12229TIP3    H158178   4.902   3.952   1.497  0.6071 -2.1830 -0.7717
12229TIP3    H258179   5.024   4.041   1.492 -0.5409 -0.4643  0.4850
12230TIP3   OH258180   1.287   1.683   4.727  0.4246  0.3967 -0.2266
12230TIP3    H158181   1.335   1.738   4.790  0.7992  1.5226 -1.4437
12230TIP3    H258182   1.288   1.734   4.646 -1.4631 -0.2858 -0.7166
12231TIP3   OH258183   3.044   6.381  14.306  0.9308 -0.5970 -0.2431
12231TIP3    H158184   3.137   6.390  14.328  0.6447 -0.9338  1.2347
12231TIP3    H258185   3.001   6.452  14.354  0.4002 -0.5601 -0.7692
12232TIP3   OH258186   2.652   2.024  12.066 -0.6442  0.7183 -0.0971
12232TIP3    H158187   2.616   2.055  12.149 -0.8069 -0.2586  0.2122
12232TIP3    H258188   2.577   2.025  12.006 -0.9210 -0.1480  0.2200
12233TIP3   OH258189   3.343   6.264   5.597 -0.0988 -0.0748 -0.2281
12233TIP3    H158190   3.328   6.262   5.691  1.1447  1.8189  0.0613
12233TIP3    H258191   3.322   6.175   5.567 -0.0169 -0.8513  1.8987
12234TIP3   OH258192   3.145   2.208   1.756  0.2071 -0.2526 -0.2542
12234TIP3    H158193   3.123   2.267   1.829  0.5710 -0.8366  0.3402
12234TIP3    H258194   3.151   2.266   1.680 -0.5589  0.3127  0.0988
12235TIP3   OH258195   4.220   1.468  11.780 -0.5956 -0.1225  0.1783
12235TIP3    H158196   4.247   1.379  11.759  1.4123  0.8394 -1.6212
12235TIP3    H258197   4.156   1.490  11.712 -1.6859 -0.3955  1.0719
12236TIP3   OH258198   6.643   0.081   3.477 -0.2717 -0.2594 -0.1199
12236TIP3    H158199   6.659   0.156   3.419 -1.9414 -0.2466 -0.6008
12236TIP3    H258200   6.660   0.115   3.565 -0.3255  0.4837 -0.3868
12237TIP3   OH258201   0.809   5.308  15.638 -0.4518 -0.7763 -0.0290
12237TIP3    H158202   0.903   5.322  15.633 -0.5087 -0.1258  0.6180
12237TIP3    H258203   0.780   5.361  15.712 -1.1875 -1.7158  0.3830
12238TIP3   OH258204   2.871   5.000   2.887 -0.8072  0.3511 -0.0740
12238TIP3    H158205   2.888   4.944   2.811  0.2711  0.9346 -0.2856
12238TIP3    H258206   2.953   5.047   2.901 -1.7448  2.0541 -0.0590
12239TIP3   OH258207   3.342   5.723  16.338 -0.0112  0.7713  0.4478
12239TIP3    H158208   3.438   5.722  16.346  0.0039  2.5010  0.8689
12239TIP3    H258209   3.320   5.816  16.329 -1.5836  0.3120 -0.7649
12240TIP3   OH258210   3.812   2.602  11.165 -0.4649 -0.7317  0.0735
12240TIP3    H158211   3.786   2.665  11.098  0.8861  0.7563  0.8900
12240TIP3    H258212   3.747   2.614  11.235 -1.9338 -2.3542 -0.9308
12241TIP3   OH258213   1.591   3.731   3.568  0.2633  0.2201 -0.1954
12241TIP3    H158214   1.550   3.742   3.482  0.5958 -1.8549 -0.6579
12241TIP3    H258215   1.645   3.652   3.560 -0.2498 -0.4494  2.1191
12242TIP3   OH258216   5.453   2.281   3.115 -1.3609  0.0402 -0.0681
12242TIP3    H158217   5.398   2.246   3.185 -0.9126 -1.1942 -0.3012
12242TIP3    H258218   5.393   2.328   3.058 -1.8052  0.6682  0.8855
12243TIP3   OH258219   5.146   6.477   4.058 -0.1233  0.4282 -0.3566
12243TIP3    H158220   5.173   6.470   4.149  0.5937  0.7241 -0.5401
12243TIP3    H258221   5.081   6.548   4.058 -1.5569 -0.8301  0.2167
12244TIP3   OH258222   0.247   3.422  14.528 -0.2629  0.2583  0.0450
12244TIP3    H158223   0.261   3.330  14.508 -1.9340  0.0401 -0.2943
12244TIP3    H258224   0.245   3.465  14.442 -2.4499  0.1062 -0.0338
12245TIP3   OH258225   2.352   1.541   5.716 -0.2312 -0.3709 -0.6803
12245TIP3    H158226   2.271   1.516   5.671 -1.1367  1.0811  0.0503
12245TIP3    H258227   2.404   1.461   5.719 -1.3220 -1.1616 -1.8240
12246TIP3   OH258228   6.594   1.001  14.202 -0.4376  0.1505  0.1829
12246TIP3    H158229   6.588   0.953  14.119 -0.5153  0.1759  0.1735
12246TIP3    H258230   6.622   0.935  14.266  1.2806  0.4917 -0.1781
12247TIP3   OH258231   3.469   1.621  14.925 -0.0215  0.2956 -0.2508
12247TIP3    H158232   3.473   1.557  14.996  1.8301 -0.8839 -1.3335
12247TIP3    H258233   3.410   1.581  14.860 -0.4046  0.5962 -0.0867
12248TIP3   OH258234   0.874   6.036  15.977 -0.0034 -0.3838  0.2519
12248TIP3    H158235   0.823   5.956  15.969 -0.4574 -0.2199  1.3539
12248TIP3    H258236   0.962   6.011  15.949  0.0308 -1.4620  1.2417
12249TIP3   OH258237   0.754   4.685  12.440 -0.5200  0.4350  0.3105
12249TIP3    H158238   0.795   4.639  12.366 -1.9787  0.8239 -0.7794
12249TIP3    H258239   0.734   4.616  12.503 -1.1039 -0.1959 -0.5451
12250TIP3   OH258240   2.496   5.889  14.595  0.6492 -0.1897  0.5637
12250TIP3    H158241   2.564   5.824  14.612  0.5492 -0.5963 -0.5031
12250TIP3    H258242   2.544   5.970  14.577  0.8366 -0.3373  0.3938
12251TIP3   OH258243   6.710   2.975  10.414  0.1913 -0.2325  0.3329
12251TIP3    H158244   6.765   3.037  10.367  0.8352 -0.7637  0.3795
12251TIP3    H258245   6.754   2.962  10.498 -0.8343  0.5387  1.0149
12252TIP3   OH258246   5.211   5.756  17.116  0.1185  0.4868  0.3142
12252TIP3    H158247   5.253   5.839  17.095  1.0351 -0.4995 -2.2403
12252TIP3    H258248   5.118   5.772  17.102  0.2815  1.1279 -0.0701
12253TIP3   OH258249   0.262   3.430   4.158 -0.0496 -0.0353  0.4880
12253TIP3    H158250   0.351   3.433   4.195 -0.2254 -0.5081  0.9551
12253TIP3    H258251   0.272   3.466   4.070  0.5556  0.1812  0.6367
12254TIP3   OH258252   4.753   5.123  11.810 -0.0949  0.0326  0.0751
12254TIP3    H158253   4.688   5.079  11.755  0.2118  0.7917 -0.9095
12254TIP3    H258254   4.807   5.052  11.845 -0.7194 -0.5088 -0.0424
12255TIP3   OH258255   3.377   6.501  14.036  0.1530  0.1913  0.5608
12255TIP3    H158256   3.359   6.579  13.983 -1.6140 -0.2309  0.4829
12255TIP3    H258257   3.433   6.532  14.106 -0.3528  1.5036  0.4058
12256TIP3   OH258258   3.836   6.801   4.061  0.3659 -0.1567  0.2003
12256TIP3    H158259   3.864   6.891   4.075 -0.6613  0.2079 -0.0060
12256TIP3    H258260   3.755   6.792   4.111  0.4715 -0.9759  0.2452
12257TIP3   OH258261   3.683   6.685  13.990  0.1317 -0.7078  0.1984
12257TIP3    H158262   3.693   6.719  14.078  1.4990  1.4659 -0.7119
12257TIP3    H258263   3.614   6.738  13.951  0.9527 -0.2062 -0.6352
12258TIP3   OH258264   1.727   4.955  11.274  0.0218  0.4302  0.1546
12258TIP3    H158265   1.654   4.997  11.319  0.1387  0.5880  0.1973
12258TIP3    H258266   1.725   4.864  11.305 -0.2142  0.4110  0.0821
12259TIP3   OH258267   1.539   0.320   0.939 -0.1525  0.3250 -0.7136
12259TIP3    H158268   1.449   0.288   0.938 -0.1466  0.2184  0.5361
12259TIP3    H258269   1.539   0.390   1.005  0.8506 -0.2641 -0.0491
12260TIP3   OH258270   1.647   0.141  13.809  0.3018  0.5470 -0.2416
12260TIP3    H158271   1.703   0.129  13.733 -0.0210 -0.5231 -0.3302
12260TIP3    H258272   1.707   0.164  13.880  0.5581  1.9911 -0.8975
12261TIP3   OH258273   3.733   5.748   3.104  0.4374 -0.1570  0.3687
12261TIP3    H158274   3.751   5.784   3.191 -1.2151  1.3774  0.1369
12261TIP3    H258275   3.738   5.653   3.115  0.6217  0.0239  2.0337
12262TIP3   OH258276   1.763   0.022  13.033  0.1571  0.0005  0.4827
12262TIP3    H158277   1.688   0.070  12.998  0.2714  0.2772  0.6197
12262TIP3    H258278   1.831   0.031  12.966 -0.2705 -1.1629 -0.1540
12263TIP3   OH258279   3.527   2.665  13.904 -0.1375 -0.1986 -0.1044
12263TIP3    H158280   3.495   2.629  13.822  1.7667  0.3950 -1.1660
12263TIP3    H258281   3.488   2.752  13.909 -0.5513 -0.3761 -0.1754
12264TIP3   OH258282   6.256   0.365   1.488 -0.4705 -0.3238 -0.3417
12264TIP3    H158283   6.315   0.419   1.436  0.2019  0.9421  1.6186
12264TIP3    H258284   6.218   0.303   1.426  1.0854  0.4091 -2.0930
12265TIP3   OH258285   3.233   5.371   4.167  0.3800  0.3131 -0.4210
12265TIP3    H158286   3.208   5.417   4.247 -0.2454  0.0687 -0.4651
12265TIP3    H258287   3.186   5.417   4.098  0.9435  0.5434 -0.6562
12266TIP3   OH258288   2.204   0.752   0.110  0.3850  0.1094 -0.5880
12266TIP3    H158289   2.136   0.695   0.144 -1.0102  1.1900 -1.4778
12266TIP3    H258290   2.201   0.740   0.015  0.8592  0.8016 -0.7013
12267TIP3   OH258291   5.234   3.468   4.787  0.3011 -0.1557 -0.3041
12267TIP3    H158292   5.273   3.390   4.825  1.6668  0.1000 -1.1288
12267TIP3    H258293   5.155   3.483   4.839  0.8858 -1.1314  0.9045
12268TIP3   OH258294   4.143   2.366   0.273  0.0398 -0.2577  0.1234
12268TIP3    H158295   4.168   2.337   0.361 -3.4475 -2.5462  0.5199
12268TIP3    H258296   4.076   2.305   0.245 -0.7627  1.8680 -3.1885
12269TIP3   OH258297   1.261   1.479  14.818  0.7435  0.4657 -0.4095
12269TIP3    H158298   1.274   1.556  14.873 -0.9191 -0.1094  0.8818
12269TIP3    H258299   1.254   1.407  14.880  0.4467 -0.4552 -1.4910
12270TIP3   OH258300   4.608   0.212  12.157  0.0290  0.0066 -0.3914
12270TIP3    H158301   4.553   0.156  12.212  0.9708  0.9930  1.6504
12270TIP3    H258302   4.550   0.239  12.085 -1.6758 -0.2426  0.8305
12271TIP3   OH258303   5.168   2.235   4.416  0.3944  0.5191 -0.1497
12271TIP3    H158304   5.168   2.191   4.501  2.0214 -0.2020 -0.4931
12271TIP3    H258305   5.232   2.306   4.426 -1.1180  1.9305 -0.0672
12272TIP3   OH258306   0.893   3.094  13.254 -0.0302 -0.3552  0.6043
12272TIP3    H158307   0.877   3.133  13.168 -1.7268 -1.5310  0.3241
12272TIP3    H258308   0.909   3.001  13.236  1.5624 -0.2632  1.4207
12273TIP3   OH258309   6.285   1.072   0.721 -0.2088 -0.0671  0.7482
12273TIP3    H158310   6.361   1.074   0.663 -0.9226 -0.4501 -0.2150
12273TIP3    H258311   6.315   1.023   0.798 -0.5375 -3.6436 -1.2158
12274TIP3   OH258312   3.774   4.537  12.649  0.6178  0.2348  0.4778
12274TIP3    H158313   3.710   4.569  12.585  0.8198 -2.1830 -1.0476
12274TIP3    H258314   3.858   4.568  12.615  1.0516 -3.1965 -2.1373
12275TIP3   OH258315   2.461   2.883   4.662 -0.4003  0.1436  0.0255
12275TIP3    H158316   2.435   2.960   4.713  1.1549 -1.1388  3.0297
12275TIP3    H258317   2.387   2.822   4.671 -0.1171 -0.0932  0.8719
12276TIP3   OH258318   2.420   4.038  13.955 -0.7697 -0.6769  0.2906
12276TIP3    H158319   2.508   4.011  13.929 -1.2053 -1.0256 -0.8595
12276TIP3    H258320   2.370   4.040  13.874 -1.0214  2.7151  0.3972
12277TIP3   OH258321   0.011   1.985   5.591  0.2054  0.5616  0.0383
12277TIP3    H158322  -0.079   1.966   5.568  0.0435  0.4605  0.7372
12277TIP3    H258323   0.059   1.904   5.574  0.0091  0.3562  0.4561
12278TIP3   OH258324   4.285   5.436   3.662  0.3304  0.3515 -0.2410
12278TIP3    H158325   4.213   5.386   3.702  0.6731 -0.4912 -0.6557
12278TIP3    H258326   4.333   5.472   3.737  0.5980 -0.6893  0.1146
12279TIP3   OH258327   5.234   3.960  13.896  0.6107  0.2889 -0.2138
12279TIP3    H158328   5.261   3.921  13.813 -0.8108 -2.3214  0.4521
12279TIP3    H258329   5.195   4.044  13.871  0.1252 -0.4828 -2.2266
12280TIP3   OH258330   0.120   5.590   4.772  0.8045 -0.4554  0.1264
12280TIP3    H158331   0.114   5.498   4.798  0.6999 -0.3589  0.4465
12280TIP3    H258332   0.058   5.598   4.699 -1.9796  0.1763  2.3890
12281TIP3   OH258333   4.536   5.729   2.014  0.3837  0.1527 -0.1198
12281TIP3    H158334   4.541   5.736   2.109  0.0715  0.9994 -0.1634
12281TIP3    H258335   4.467   5.664   1.999  0.4218  0.0289  0.2280
12282TIP3   OH258336   3.340   5.962  11.559  0.5611 -0.5373 -0.0342
12282TIP3    H158337   3.405   5.995  11.621  1.2433  0.1310 -1.0785
12282TIP3    H258338   3.392   5.921  11.490 -0.0697  0.5316 -1.1861
12283TIP3   OH258339   2.199   5.005  11.927 -0.5458 -0.3000  0.8171
12283TIP3    H158340   2.141   4.967  11.860  1.0978  0.9005 -1.4114
12283TIP3    H258341   2.150   5.080  11.960 -0.4692  0.5100 -0.8066
12284TIP3   OH258342   0.725   3.893  14.060 -0.3376  0.3979 -0.0729
12284TIP3    H158343   0.664   3.954  14.018  0.8818  1.7294 -0.0069
12284TIP3    H258344   0.679   3.864  14.139 -1.9123 -0.6883 -1.3420
12285TIP3   OH258345   2.255   4.862  17.069 -0.5245 -0.1136  0.0632
12285TIP3    H158346   2.192   4.790  17.068 -0.2789 -0.3489 -1.7278
12285TIP3    H258347   2.340   4.819  17.070 -0.3770  0.1299 -0.8325
12286TIP3   OH258348   4.074   3.616   3.305  0.4792  0.6303  0.1019
12286TIP3    H158349   4.044   3.549   3.367  2.2012  0.5235  0.8897
12286TIP3    H258350   4.026   3.695   3.331  1.1445  0.5787  1.5821
12287TIP3   OH258351   5.213   5.819   2.764  0.5514  0.0325 -0.0581
12287TIP3    H158352   5.268   5.842   2.839  0.7688 -0.0574 -0.1883
12287TIP3    H258353   5.191   5.727   2.777 -0.3846  0.3261  0.5041
12288TIP3   OH258354   6.041   3.813  11.489  0.0527  0.3201  0.0009
12288TIP3    H158355   5.975   3.879  11.467  0.5907  1.2117  1.0192
12288TIP3    H258356   6.039   3.808  11.584 -0.1332 -1.3188 -0.0553
12289TIP3   OH258357   4.071   4.670   6.161 -0.0658 -0.5791  0.3090
12289TIP3    H158358   4.108   4.731   6.096 -0.9258  0.0916  0.4369
12289TIP3    H258359   4.129   4.593   6.156 -0.4076 -0.7779 -1.6526
12290TIP3   OH258360   3.823   0.635  14.827 -0.2828 -0.1018 -0.2469
12290TIP3    H158361   3.842   0.613  14.919  1.0013  2.6610  0.2541
12290TIP3    H258362   3.736   0.674  14.830  0.4284  1.5379  0.1475
12291TIP3   OH258363   6.540   3.981   0.308 -0.7045 -0.1417 -0.1629
12291TIP3    H158364   6.610   4.037   0.273 -0.3043 -0.2554  0.4378
12291TIP3    H258365   6.586   3.917   0.363 -1.4101  0.6347  1.3659
12292TIP3   OH258366   2.435   2.001  17.037  0.2650 -0.5980 -0.6776
12292TIP3    H158367   2.428   1.906  17.036 -0.3867 -0.5707  0.4442
12292TIP3    H258368   2.358   2.031  17.084  0.8801  0.4505 -0.2904
12293TIP3   OH258369   3.242   3.964   0.428 -0.0859 -0.5317 -0.2382
12293TIP3    H158370   3.273   4.044   0.469 -1.7178 -0.6854  1.4356
12293TIP3    H258371   3.303   3.896   0.457 -0.4851 -0.4067  0.9221
12294TIP3   OH258372   5.050   0.166   4.561  0.1454 -0.2286  0.3472
12294TIP3    H158373   4.959   0.137   4.565  0.6652 -2.0527 -0.3296
12294TIP3    H258374   5.070   0.196   4.650 -0.5093 -1.7432  1.0349
12295TIP3   OH258375   5.417   3.262   0.099 -0.8642 -0.1437 -0.0936
12295TIP3    H158376   5.370   3.241   0.179  0.2064 -0.9205  0.3483
12295TIP3    H258377   5.413   3.181   0.047  1.2002 -0.7173  0.5763
12296TIP3   OH258378   2.351   6.464  14.894  0.5817 -0.2623  0.7365
12296TIP3    H158379   2.368   6.545  14.943  1.6801 -1.2705  2.1174
12296TIP3    H258380   2.437   6.424  14.883  0.3713 -0.1212 -2.0739
12297TIP3   OH258381   1.396   5.772   5.718  0.2180  0.7984 -0.7097
12297TIP3    H158382   1.455   5.845   5.697  1.0805 -0.0602 -1.3618
12297TIP3    H258383   1.320   5.814   5.759  0.0251  2.2188 -2.4103
12298TIP3   OH258384   1.521   4.744   1.122 -0.5395  0.2964 -0.3065
12298TIP3    H158385   1.581   4.695   1.178 -1.1151  0.1506  0.1982
12298TIP3    H258386   1.561   4.742   1.035  0.4594  0.6834  0.1312
12299TIP3   OH258387   4.086   4.372  10.581  0.3240 -0.4196  0.5616
12299TIP3    H158388   4.140   4.328  10.515 -0.0836 -0.3176  0.1523
12299TIP3    H258389   4.003   4.324  10.579  1.1170 -2.0652  2.7985
12300TIP3   OH258390   3.393   6.124   3.586  0.4509 -0.1664 -0.1472
12300TIP3    H158391   3.361   6.203   3.630  0.8891  0.2748 -0.5994
12300TIP3    H258392   3.371   6.138   3.494 -0.2002 -0.9475 -0.1227
12301TIP3   OH258393   3.650   6.755   3.697 -0.2680  0.1794 -0.0865
12301TIP3    H158394   3.612   6.817   3.758  0.0808 -0.7600  1.1297
12301TIP3    H258395   3.741   6.783   3.687  0.1219 -0.5959  1.1245
12302TIP3   OH258396   5.340   3.593   5.125 -0.2330  0.6291 -0.3652
12302TIP3    H158397   5.323   3.502   5.103 -0.0976  0.7188 -0.8610
12302TIP3    H258398   5.388   3.590   5.208  1.5929  0.1420 -1.3885
12303TIP3   OH258399   4.784   1.776   1.686 -0.2077 -0.4122  0.4778
12303TIP3    H158400   4.846   1.846   1.666 -0.1074 -0.6973 -0.2381
12303TIP3    H258401   4.781   1.723   1.607  1.7530 -2.7778  1.8149
12304TIP3   OH258402   3.337   4.889   3.177 -0.3222  0.0972 -0.3655
12304TIP3    H158403   3.350   4.867   3.085 -3.5801 -0.4007 -0.8175
12304TIP3    H258404   3.298   4.811   3.216 -1.8673  1.3292  0.6783
12305TIP3   OH258405   3.450   1.052  13.744  0.2455 -0.1000  0.3024
12305TIP3    H158406   3.465   1.093  13.659  0.0527  0.3156  0.4670
12305TIP3    H258407   3.355   1.037  13.748  0.3904 -1.2086 -0.0476
12306TIP3   OH258408   4.817   5.021   4.806  0.1801  0.9362 -0.5114
12306TIP3    H158409   4.793   5.094   4.863  1.5399  0.5879  0.5389
12306TIP3    H258410   4.902   4.991   4.838  0.4596 -0.0119 -2.0083
12307TIP3   OH258411   4.644   5.753  13.722 -0.0343 -0.0268 -0.1382
12307TIP3    H158412   4.556   5.784  13.743  0.5640  2.1091 -0.5936
12307TIP3    H258413   4.696   5.832  13.715  1.7123 -1.1985 -0.9384
12308TIP3   OH258414   5.971   2.400  16.677  0.3147 -1.0210 -0.2331
12308TIP3    H158415   5.901   2.363  16.623 -2.4213  2.9085  0.1784
12308TIP3    H258416   6.006   2.472  16.625  1.0407 -0.2151  1.2867
12309TIP3   OH258417   6.763   4.521   0.158  0.4459 -0.6567 -0.0159
12309TIP3    H158418   6.791   4.457   0.092 -0.2598 -0.5018 -0.4700
12309TIP3    H258419   6.831   4.589   0.155 -0.3552  0.1336 -1.6990
12310TIP3   OH258420   2.981   0.384  13.606  0.2415  0.2130  0.4653
12310TIP3    H158421   2.951   0.457  13.661 -2.2891  0.3129 -0.9306
12310TIP3    H258422   2.957   0.306  13.655 -4.3259  0.2190 -1.3374
12311TIP3   OH258423   5.302   4.269  14.103 -0.1923  0.6756  0.0863
12311TIP3    H158424   5.283   4.322  14.180 -0.9210  1.3919 -0.5672
12311TIP3    H258425   5.217   4.231  14.079 -0.2471  1.4692 -1.0858
12312TIP3   OH258426   1.455   5.191   0.581  0.1399 -0.0663 -0.0839
12312TIP3    H158427   1.377   5.206   0.635  0.0055  0.1703 -0.3449
12312TIP3    H258428   1.484   5.103   0.606  0.1364  0.0794  0.4460
12313TIP3   OH258429   1.250   6.730  12.563 -0.0233 -0.5174 -0.3681
12313TIP3    H158430   1.217   6.817  12.538 -0.2640 -1.0500 -1.9787
12313TIP3    H258431   1.171   6.681  12.586  0.1139 -0.3401  0.5458
12314TIP3   OH258432   3.984   4.828  14.419 -0.2125 -0.1306 -0.4723
12314TIP3    H158433   4.040   4.904  14.406 -2.6896  1.8537 -0.3661
12314TIP3    H258434   4.017   4.788  14.500  1.3320  0.6254 -0.6888
12315TIP3   OH258435   5.846   3.530   1.253  0.3696 -0.2078 -0.1630
12315TIP3    H158436   5.819   3.448   1.294  2.2108 -0.4572  0.6570
12315TIP3    H258437   5.846   3.594   1.325 -1.6480  0.7246 -0.9103
12316TIP3   OH258438   3.825   1.847   3.859 -0.0152  0.6137 -0.3473
12316TIP3    H158439   3.751   1.787   3.854  0.8756 -0.5984  0.4539
12316TIP3    H258440   3.892   1.799   3.908  1.0070  1.9827 -0.3351
12317TIP3   OH258441   0.397   2.279  16.281  0.4547 -0.0920  0.7492
12317TIP3    H158442   0.484   2.245  16.262  1.3785  2.2771  0.4334
12317TIP3    H258443   0.352   2.277  16.197  0.6153 -0.2110  0.6644
12318TIP3   OH258444   5.877   4.503   3.579  0.0802  0.0817 -0.3730
12318TIP3    H158445   5.834   4.419   3.590  1.2370 -0.9820 -2.9860
12318TIP3    H258446   5.960   4.495   3.625 -0.7516  0.7008  1.3217
12319TIP3   OH258447   3.100   6.436   4.846 -0.6474  0.2623 -0.2867
12319TIP3    H158448   3.114   6.425   4.752  0.5600  1.0877 -0.2300
12319TIP3    H258449   3.185   6.464   4.880 -0.6778 -1.3437  1.2789
12320TIP3   OH258450   4.635   5.417  12.090 -0.8688 -0.4516  0.2145
12320TIP3    H158451   4.576   5.342  12.088  0.2358 -1.3343 -0.5027
12320TIP3    H258452   4.631   5.449  12.180 -0.9887 -1.6813  0.6563
12321TIP3   OH258453   5.783   4.199   4.627 -0.2237  0.5417 -0.3162
12321TIP3    H158454   5.722   4.149   4.682 -0.1038  0.0999 -0.5859
12321TIP3    H258455   5.838   4.133   4.586  0.2641  0.9237 -0.2867
12322TIP3   OH258456   3.300   3.850  16.316 -0.1027  0.2000  0.1811
12322TIP3    H158457   3.259   3.771  16.349  1.0327  0.2484  1.7980
12322TIP3    H258458   3.325   3.828  16.226 -0.5165 -0.9871  0.3390
12323TIP3   OH258459   1.770   0.792   3.907  0.0910 -0.8631 -0.2815
12323TIP3    H158460   1.678   0.818   3.905  0.3849  0.2265 -0.2062
12323TIP3    H258461   1.807   0.838   3.983  0.4506 -2.1748  0.3627
12324TIP3   OH258462   2.554   3.385   3.358 -0.7220 -0.1245 -0.3269
12324TIP3    H158463   2.597   3.340   3.285 -0.5086 -1.1625  0.4205
12324TIP3    H258464   2.565   3.478   3.338 -2.2869 -0.3416 -2.5651
12325TIP3   OH258465   5.581   0.106   4.372 -0.2295  0.2330 -0.5870
12325TIP3    H158466   5.525   0.028   4.379  0.9954 -0.5912  0.4548
12325TIP3    H258467   5.667   0.072   4.349  1.0973  0.8691  2.8203
12326TIP3   OH258468   0.960   4.195   4.112  0.2356 -0.1756  0.5119
12326TIP3    H158469   0.932   4.103   4.118 -0.6053  0.1216  1.4177
12326TIP3    H258470   0.881   4.245   4.132  0.3522  0.7893 -1.2180
12327TIP3   OH258471   4.955   1.543   0.588 -0.1594  0.0722 -0.2123
12327TIP3    H158472   4.982   1.510   0.674  1.1059 -0.9119 -0.9317
12327TIP3    H258473   4.966   1.468   0.530  1.4995  1.3612 -1.6883
12328TIP3   OH258474   0.917   1.369   0.274 -0.5080 -0.1639  0.6520
12328TIP3    H158475   0.866   1.362   0.355 -0.9846  0.6614  0.4382
12328TIP3    H258476   0.946   1.460   0.273  0.9406 -0.6114  0.7346
12329TIP3   OH258477   2.777   0.343  16.548  0.1234  0.3433  0.0918
12329TIP3    H158478   2.724   0.380  16.477  0.0213  0.1637  0.0720
12329TIP3    H258479   2.827   0.273  16.505 -0.7129 -0.4696  0.3922
12330TIP3   OH258480   4.793   1.478   1.050  0.0102  0.2275 -0.3293
12330TIP3    H158481   4.702   1.493   1.077 -0.2090 -1.0887 -0.2758
12330TIP3    H258482   4.845   1.502   1.127 -0.4156 -0.6497  0.2504
12331TIP3   OH258483   5.759   6.127  16.452  0.0466 -0.6357 -0.1938
12331TIP3    H158484   5.757   6.102  16.360  0.0091 -0.8022 -0.1469
12331TIP3    H258485   5.729   6.050  16.500 -2.7919  0.3568 -0.2150
12332TIP3   OH258486   3.616   0.155   2.957 -0.6895 -0.0613  0.2408
12332TIP3    H158487   3.598   0.234   3.009 -2.0472 -0.1547 -0.0656
12332TIP3    H258488   3.663   0.098   3.018  1.6424  1.4960  0.0567
12333TIP3   OH258489   0.929   4.541  15.618 -0.0920  0.2152  0.3582
12333TIP3    H158490   0.999   4.597  15.649 -1.0822  3.3791 -2.5850
12333TIP3    H258491   0.952   4.453  15.650  3.0713  1.7327  2.7126
12334TIP3   OH258492   3.438   3.885   2.487  0.4201  0.5110 -0.2615
12334TIP3    H158493   3.448   3.979   2.504 -0.0106  0.1604  2.5175
12334TIP3    H258494   3.344   3.872   2.477  0.2703  0.1929  1.2333
12335TIP3   OH258495   5.062   4.735  14.637 -0.4966 -0.6371 -0.2598
12335TIP3    H158496   5.153   4.711  14.654 -0.4233  0.6756  1.4356
12335TIP3    H258497   5.062   4.763  14.545  1.9272  3.6160  0.7270
12336TIP3   OH258498   5.832   1.911   5.029  0.2662 -0.1293 -0.3981
12336TIP3    H158499   5.826   1.836   5.089 -1.4136  1.1954  1.1826
12336TIP3    H258500   5.832   1.988   5.086  0.0424  1.1592 -2.0570
12337TIP3   OH258501   5.649   4.411  11.388 -0.1372 -0.7611  0.0273
12337TIP3    H158502   5.667   4.366  11.306 -0.1703  1.8960 -1.5557
12337TIP3    H258503   5.583   4.477  11.366  0.2906  0.4462  2.0476
12338TIP3   OH258504   6.478   0.488  12.534  0.4727  0.1090 -1.2643
12338TIP3    H158505   6.567   0.506  12.566  0.1846  0.4143 -0.6189
12338TIP3    H258506   6.466   0.549  12.462  1.0509 -0.4376 -1.8445
12339TIP3   OH258507   1.141   3.842  17.088 -0.2568 -0.0016  0.5724
12339TIP3    H158508   1.077   3.898  17.132 -0.5781 -0.9671  1.3864
12339TIP3    H258509   1.177   3.787  17.159  1.2242  0.2831  0.0749
12340TIP3   OH258510   0.709   2.881  13.791  0.1537  0.3475  0.0601
12340TIP3    H158511   0.629   2.881  13.738 -1.0630 -0.1316  1.8008
12340TIP3    H258512   0.771   2.933  13.741 -0.6210 -0.7939 -2.2330
12341TIP3   OH258513   3.569   4.845  12.590 -0.3261  0.7446  0.3728
12341TIP3    H158514   3.595   4.905  12.520 -1.7351  1.0688  0.1004
12341TIP3    H258515   3.474   4.835  12.579 -0.1122 -1.7595  0.2187
12342TIP3   OH258516   2.071   6.512  14.883 -0.3796 -0.5176  0.1871
12342TIP3    H158517   2.153   6.468  14.904 -0.4047 -0.7893 -0.2732
12342TIP3    H258518   2.087   6.554  14.798 -0.8928 -1.0393 -0.1739
12343TIP3   OH258519   1.422   2.958   3.003 -0.3860 -0.1791 -0.3781
12343TIP3    H158520   1.328   2.949   3.021  0.0344  0.9720  3.1923
12343TIP3    H258521   1.460   2.875   3.033  0.0638  0.7787  1.8787
12344TIP3   OH258522   1.354   4.943   6.273 -0.3917  0.3816  0.0123
12344TIP3    H158523   1.281   4.927   6.333 -1.0098  0.4699 -0.6978
12344TIP3    H258524   1.312   4.962   6.189  0.4584  0.1922 -0.4673
12345TIP3   OH258525   2.802   6.521   5.092  0.3992  0.5627 -0.3045
12345TIP3    H158526   2.852   6.486   5.166  0.5922  0.2482 -0.5852
12345TIP3    H258527   2.783   6.445   5.038 -2.3362  0.2596  0.9211
12346TIP3   OH258528   2.952   3.250  15.140  0.1539  0.2326 -0.3393
12346TIP3    H158529   3.041   3.234  15.110 -0.0518 -0.8947 -0.3669
12346TIP3    H258530   2.949   3.345  15.153  1.8629  0.1361  1.2574
12347TIP3   OH258531   0.745   3.567  11.472  0.0065 -0.0979  0.4959
12347TIP3    H158532   0.711   3.568  11.561  0.0701 -1.2513  0.5531
12347TIP3    H258533   0.755   3.474  11.451 -0.9951  0.1109 -1.1063
12348TIP3   OH258534   1.734   4.026  15.106 -0.1023 -0.5632  0.0412
12348TIP3    H158535   1.824   4.039  15.136 -1.0835  0.0654  3.0705
12348TIP3    H258536   1.733   3.936  15.073  1.5420 -0.6844  0.2067
12349TIP3   OH258537   4.560   3.186   2.962  0.9561  0.0205 -0.4695
12349TIP3    H158538   4.513   3.154   3.039 -0.6356 -3.0933 -2.5334
12349TIP3    H258539   4.647   3.210   2.996  0.8143 -2.4868  2.1460
12350TIP3   OH258540   2.318   3.532  16.614 -0.9546  0.0928  0.0908
12350TIP3    H158541   2.327   3.474  16.538 -0.4381 -1.9393  1.6245
12350TIP3    H258542   2.315   3.620  16.576 -0.8701 -0.8395 -2.2848
12351TIP3   OH258543   4.812   2.520  15.082 -0.2425  0.4042  0.5780
12351TIP3    H158544   4.724   2.483  15.083 -0.1872  0.2758  0.9002
12351TIP3    H258545   4.861   2.465  15.021 -0.1289 -0.1335  1.1455
12352TIP3   OH258546   5.795   6.316   1.289  0.5831 -0.0578  0.0537
12352TIP3    H158547   5.722   6.273   1.332  0.8400 -0.5878 -0.0363
12352TIP3    H258548   5.841   6.246   1.242 -0.0606  0.5854 -1.6302
12353TIP3   OH258549   3.563   0.796  14.835 -0.4619  0.4228 -0.5575
12353TIP3    H158550   3.550   0.829  14.746 -1.0165 -1.2818 -1.1446
12353TIP3    H258551   3.628   0.856  14.873  0.6035  0.5800 -2.4727
12354TIP3   OH258552   5.854   6.337  16.987  0.7378  0.8314  0.0276
12354TIP3    H158553   5.926   6.275  17.001  1.1185  1.1907 -0.2880
12354TIP3    H258554   5.799   6.295  16.921 -0.0101  0.0131  1.1375
12355TIP3   OH258555   6.261   6.006   2.058  0.0940 -0.2496  0.5376
12355TIP3    H158556   6.216   5.969   1.982  0.8972  0.8784 -0.5374
12355TIP3    H258557   6.260   5.936   2.123 -0.1629 -1.4473 -0.7067
12356TIP3   OH258558   3.611   0.666   4.285 -0.0283  0.0021  0.0604
12356TIP3    H158559   3.706   0.679   4.292 -0.1706  0.5060  1.0995
12356TIP3    H258560   3.599   0.572   4.303  0.0308  0.4504  2.8435
12357TIP3   OH258561   2.122   2.449  16.466 -0.1908 -0.2769  0.1498
12357TIP3    H158562   2.121   2.543  16.486 -0.4636  0.0511 -1.3008
12357TIP3    H258563   2.178   2.411  16.534  0.5805  1.0530  0.2954
12358TIP3   OH258564   4.941   4.417  16.798 -0.4561 -0.3949  0.0709
12358TIP3    H158565   4.875   4.405  16.729  1.6707 -4.5834 -1.5764
12358TIP3    H258566   4.923   4.347  16.860  0.7897  0.1411  1.0700
12359TIP3   OH258567   0.333   3.708  11.257 -0.3404  0.7843  0.1293
12359TIP3    H158568   0.346   3.623  11.299 -0.6823  0.8243  0.3269
12359TIP3    H258569   0.310   3.686  11.167  1.4344  0.7297 -0.3359
12360TIP3   OH258570   4.983   6.739   0.832  0.1533 -0.0569  0.1536
12360TIP3    H158571   4.979   6.644   0.825 -1.7811 -0.1246  1.4027
12360TIP3    H258572   5.068   6.757   0.871  1.4150 -1.0775 -1.9313
12361TIP3   OH258573   3.840   6.300   0.707 -0.5629 -0.1237  0.2376
12361TIP3    H158574   3.900   6.296   0.633  0.7833  1.1503  1.1900
12361TIP3    H258575   3.884   6.252   0.777  0.3211  2.3326  1.5157
12362TIP3   OH258576   0.585   5.663   6.898 -0.7513 -0.9012 -0.3118
12362TIP3    H158577   0.552   5.605   6.967 -1.6442 -2.0344 -1.6338
12362TIP3    H258578   0.674   5.631   6.880 -0.3844 -0.3867  0.5025
12363TIP3   OH258579   0.764   4.553   2.275  0.2462 -0.2133  0.0310
12363TIP3    H158580   0.771   4.464   2.240  0.5219 -0.0707 -0.2836
12363TIP3    H258581   0.792   4.545   2.366 -1.2044 -0.7288  0.4611
12364TIP3   OH258582   4.624   2.527  10.596  0.3834  0.4932  0.1099
12364TIP3    H158583   4.610   2.433  10.581  0.7974  0.4259  0.1249
12364TIP3    H258584   4.590   2.569  10.518  1.5800  0.2196 -0.5856
12365TIP3   OH258585   0.471   0.115   3.377  0.0404 -0.2170 -0.3067
12365TIP3    H158586   0.431   0.064   3.448  0.5600 -1.6124 -0.9751
12365TIP3    H258587   0.397   0.152   3.329 -0.3234  0.4398  0.7378
12366TIP3   OH258588   3.179   6.245   5.193  0.1744 -0.4613 -0.6065
12366TIP3    H158589   3.192   6.156   5.160  1.8649 -0.1081 -0.9854
12366TIP3    H258590   3.259   6.291   5.170 -0.3438  0.9584  0.2926
12367TIP3   OH258591   0.144   3.690  14.425 -0.0739 -0.1937 -0.3241
12367TIP3    H158592   0.053   3.682  14.397 -0.0540  0.4487 -0.5730
12367TIP3    H258593   0.194   3.653  14.352 -0.0354  1.2578 -1.0547
12368TIP3   OH258594   6.510   1.667   1.811  0.0749 -0.1060  0.2392
12368TIP3    H158595   6.476   1.709   1.731  1.1762  2.0342  0.8099
12368TIP3    H258596   6.462   1.584   1.816  0.5868 -0.7759 -3.1197
12369TIP3   OH258597   1.949   6.632  11.244  0.4043 -0.2196 -0.0595
12369TIP3    H158598   1.905   6.702  11.196  1.8427 -0.3360 -1.6271
12369TIP3    H258599   2.033   6.621  11.199  1.0558 -1.5840  1.4010
12370TIP3   OH258600   5.320   1.381  14.048 -0.0662  0.3228  0.2861
12370TIP3    H158601   5.336   1.431  13.968 -0.1865 -1.5938 -1.0078
12370TIP3    H258602   5.338   1.443  14.119 -0.1587  2.1496 -1.1987
12371TIP3   OH258603   4.385   0.112  13.058  0.5112  0.1993  0.0877
12371TIP3    H158604   4.472   0.080  13.084  0.3690 -0.0678  0.2353
12371TIP3    H258605   4.352   0.046  12.997  0.2632  0.1190  0.3073
12372TIP3   OH258606   4.053   3.331   1.090 -0.0327  0.2852 -0.0490
12372TIP3    H158607   4.030   3.424   1.090  0.4476  0.4171  0.9431
12372TIP3    H258608   4.105   3.319   1.169 -0.9020 -1.0345  0.3571
12373TIP3   OH258609   6.755   5.235   3.205  0.7626  0.0562  0.1692
12373TIP3    H158610   6.762   5.256   3.112  2.3392  1.0855  0.4788
12373TIP3    H258611   6.753   5.139   3.208 -2.0816 -0.0258 -1.0298
12374TIP3   OH258612   5.235   5.012  13.461  0.3467  0.1938  0.2776
12374TIP3    H158613   5.317   5.037  13.418  0.4385 -1.8186 -0.8238
12374TIP3    H258614   5.260   4.943  13.523 -0.4171  0.0653  0.4561
12375TIP3   OH258615   2.815   1.101   1.271 -0.1208 -0.5742  0.5121
12375TIP3    H158616   2.812   1.171   1.206  0.4664  0.3526  1.4569
12375TIP3    H258617   2.780   1.141   1.351  3.6032 -0.1205  2.1211
12376TIP3   OH258618   2.842   2.435  15.725 -0.3686 -0.2064 -0.2647
12376TIP3    H158619   2.887   2.384  15.792  0.1473 -0.3962 -0.7373
12376TIP3    H258620   2.910   2.452  15.660 -0.7870  0.2265 -0.5918
12377TIP3   OH258621   4.913   3.402   1.917  0.4778 -0.1734 -0.0772
12377TIP3    H158622   4.873   3.316   1.909  0.1571 -0.2939  2.1011
12377TIP3    H258623   4.842   3.464   1.905  0.1631 -0.3155  0.9289
12378TIP3   OH258624   4.275   3.348  15.383  0.1142  0.1848 -0.1871
12378TIP3    H158625   4.248   3.352  15.475 -0.8494  1.0979 -0.4905
12378TIP3    H258626   4.258   3.436  15.349  2.2328  0.4132 -0.7840
12379TIP3   OH258627   1.188   0.172   3.816 -0.1464  0.5033 -0.4878
12379TIP3    H158628   1.275   0.158   3.853 -0.4533 -1.4172 -0.3959
12379TIP3    H258629   1.129   0.168   3.891 -0.3141  2.3291 -0.4740
12380TIP3   OH258630   3.653   1.900   1.969 -0.2799 -0.0013  0.8953
12380TIP3    H158631   3.674   1.990   1.997 -1.6703  0.9448 -0.8774
12380TIP3    H258632   3.588   1.870   2.033 -0.7542  0.7457  0.7815
12381TIP3   OH258633   0.026   6.058   1.278  0.5875 -0.5259  0.3272
12381TIP3    H158634   0.046   6.143   1.238 -0.3727  0.5090  1.9202
12381TIP3    H258635  -0.058   6.032   1.239  1.1885 -1.0988 -0.6378
12382TIP3   OH258636   4.788   3.734   5.023  0.0090 -0.2017 -0.3073
12382TIP3    H158637   4.762   3.747   4.932 -0.2124 -1.5045 -0.4442
12382TIP3    H258638   4.883   3.721   5.020 -0.0432 -0.5819 -0.4016
12383TIP3   OH258639   0.695   6.446  14.759 -0.3986  0.0303  0.6552
12383TIP3    H158640   0.692   6.412  14.848  0.6528 -2.2437 -0.1231
12383TIP3    H258641   0.715   6.539  14.770 -3.4994  0.5888  2.8698
12384TIP3   OH258642   5.102   3.539  14.722  0.0203  0.4799 -0.0708
12384TIP3    H158643   5.180   3.560  14.670 -0.9172  0.9299 -1.3696
12384TIP3    H258644   5.043   3.496  14.660 -0.8398  0.3158  0.8323
12385TIP3   OH258645   3.801   1.109   5.153 -0.4485  0.1535 -0.1426
12385TIP3    H158646   3.787   1.106   5.247 -0.7367 -0.0380 -0.1905
12385TIP3    H258647   3.871   1.046   5.137  0.9421  1.5587  0.1736
12386TIP3   OH258648   0.669   4.395   5.105  0.1626  0.5034  0.1962
12386TIP3    H158649   0.661   4.490   5.099 -0.6283  0.4387  0.1795
12386TIP3    H258650   0.584   4.366   5.137  0.7197 -0.1131  1.1512
12387TIP3   OH258651   3.312   2.717  16.501 -0.2258  0.1754 -0.5735
12387TIP3    H158652   3.395   2.671  16.490 -0.7007 -0.5006 -1.5714
12387TIP3    H258653   3.253   2.674  16.438 -1.0628  1.2536 -0.5504
12388TIP3   OH258654   0.061   3.547  16.519  0.4678  0.6378  0.1966
12388TIP3    H158655   0.126   3.587  16.577  1.5565 -1.5678  0.6246
12388TIP3    H258656   0.021   3.478  16.572 -1.4818  1.2455 -0.4183
12389TIP3   OH258657   4.730   5.599   5.249  0.0941  1.5233 -0.2840
12389TIP3    H158658   4.823   5.596   5.229  0.3910  1.4970  1.0020
12389TIP3    H258659   4.726   5.629   5.340 -1.1494  1.5487 -0.3285
12390TIP3   OH258660   4.138   2.840  16.039  0.4592  0.0682  0.6265
12390TIP3    H158661   4.055   2.793  16.034 -0.6057  2.0091 -2.5464
12390TIP3    H258662   4.131   2.891  16.120 -1.4949  0.2530  0.3909
12391TIP3   OH258663   5.546   2.601  14.496 -0.7485  0.0665 -0.8124
12391TIP3    H158664   5.507   2.560  14.574  0.3836 -2.8335 -1.6310
12391TIP3    H258665   5.547   2.531  14.430  0.3116  1.7882 -2.7466
12392TIP3   OH258666   0.163   1.322  10.549  0.0572  0.4718 -0.6314
12392TIP3    H158667   0.200   1.399  10.505  0.6587 -0.2903 -1.4930
12392TIP3    H258668   0.103   1.285  10.485  0.1951 -0.0908 -0.4409
12393TIP3   OH258669   1.638   3.527  11.579 -0.2042 -0.9288  0.3208
12393TIP3    H158670   1.676   3.465  11.518  0.1261  1.2215 -1.8183
12393TIP3    H258671   1.563   3.564  11.533  0.1264  0.8715  1.1082
12394TIP3   OH258672   3.148   2.241   0.338  0.4511 -0.4733 -0.4355
12394TIP3    H158673   3.145   2.158   0.289 -2.9019 -0.0638 -1.1603
12394TIP3    H258674   3.166   2.307   0.272 -3.4801  0.0077 -1.2695
12395TIP3   OH258675   0.765   3.943  10.980 -0.3265 -0.3268  0.3173
12395TIP3    H158676   0.722   4.021  11.014  0.8047 -0.2830  1.7479
12395TIP3    H258677   0.728   3.871  11.031 -0.1276 -0.5207  0.1881
12396TIP3   OH258678   1.078   0.562  16.466 -0.1013  0.2215  0.0590
12396TIP3    H158679   1.134   0.605  16.530  1.8326  0.4532 -1.6800
12396TIP3    H258680   1.090   0.613  16.386 -1.2687 -0.9382 -0.9009
12397TIP3   OH258681   3.442   6.632  12.291  0.4499 -0.2931  0.1168
12397TIP3    H158682   3.440   6.543  12.256 -3.2247 -0.0203 -0.7261
12397TIP3    H258683   3.422   6.688  12.216 -0.9626  0.8866  1.2987
12398TIP3   OH258684   1.387   3.498   2.122 -0.6151  0.4868  0.0545
12398TIP3    H158685   1.352   3.531   2.039 -1.1422  1.3626  0.6038
12398TIP3    H258686   1.358   3.562   2.187 -0.2290 -0.1984  0.9214
12399TIP3   OH258687   1.976   4.924   3.297  0.4771  0.1684 -0.0832
12399TIP3    H158688   1.973   5.005   3.347 -0.0755  0.4464 -0.5482
12399TIP3    H258689   2.054   4.931   3.243 -0.7963  1.4900 -1.8896
12400TIP3   OH258690   3.300   3.999  14.155 -1.0080  0.0752  0.8565
12400TIP3    H158691   3.241   4.063  14.194 -1.1018  0.4254  0.1607
12400TIP3    H258692   3.300   4.020  14.061 -1.4804 -1.2881  0.5187
12401TIP3   OH258693   6.339   3.988   1.103 -0.4747  0.2812  0.3642
12401TIP3    H158694   6.264   3.956   1.053 -0.5598  0.9960  0.0226
12401TIP3    H258695   6.414   3.969   1.048 -0.2915 -1.2417  1.0908
12402TIP3   OH258696   6.245   1.513  14.610  0.4056 -0.6362 -0.3456
12402TIP3    H158697   6.295   1.451  14.556 -0.2232 -0.3599 -1.2668
12402TIP3    H258698   6.183   1.459  14.658  1.3938 -0.9547  0.6080
12403TIP3   OH258699   5.642   3.072  16.037  0.0757  0.3375 -0.0482
12403TIP3    H158700   5.724   3.121  16.031  1.1037 -1.1305  1.4145
12403TIP3    H258701   5.583   3.131  16.084 -0.0251  1.7279 -1.8022
12404TIP3   OH258702   1.559   0.959   4.361  0.2749 -0.8272 -0.1603
12404TIP3    H158703   1.485   1.018   4.370  2.2486  1.7126  0.6531
12404TIP3    H258704   1.552   0.901   4.437 -0.3645  0.0237  0.4506
12405TIP3   OH258705   5.015   2.838  15.410 -0.1887 -0.5983 -0.1398
12405TIP3    H158706   5.049   2.878  15.330  0.9400  1.2187  1.1373
12405TIP3    H258707   5.094   2.810  15.458 -0.9040 -3.1858 -0.3351
12406TIP3   OH258708   2.572   3.423   2.373 -0.3193  0.7146  0.3292
12406TIP3    H158709   2.515   3.394   2.443  1.5042  1.4313  2.2300
12406TIP3    H258710   2.656   3.381   2.391  0.0764  0.4783 -1.7791
12407TIP3   OH258711   6.523   1.807  16.605  0.3915  0.6381  0.0343
12407TIP3    H158712   6.583   1.859  16.551 -2.1583  2.0022 -1.6991
12407TIP3    H258713   6.435   1.837  16.580 -1.0861 -1.4839  2.1610
12408TIP3   OH258714   0.259   3.683  16.641  0.3567  0.4626 -0.8456
12408TIP3    H158715   0.300   3.724  16.717  0.4714 -0.0036 -0.6513
12408TIP3    H258716   0.280   3.741  16.568  2.0584 -0.1563 -0.9019
12409TIP3   OH258717   3.475   5.690  15.912  0.8608 -0.2078  0.0385
12409TIP3    H158718   3.567   5.683  15.939  1.0595  0.4595 -0.4603
12409TIP3    H258719   3.473   5.762  15.849  0.4010 -1.6604 -1.6933
12410TIP3   OH258720   6.364   1.786   2.950  0.0176 -0.0815  0.9522
12410TIP3    H158721   6.348   1.834   2.869 -1.4815 -0.3517  1.0504
12410TIP3    H258722   6.334   1.845   3.020 -0.1432 -0.4385  1.1923
12411TIP3   OH258723   5.062   5.217   0.797 -0.0276 -0.1726 -0.6120
12411TIP3    H158724   4.996   5.256   0.739  0.0437 -0.0309 -0.5997
12411TIP3    H258725   5.027   5.232   0.885 -0.0810 -0.2862 -0.6137
12412TIP3   OH258726   3.967   0.763  16.922 -0.4518 -0.0630 -0.2875
12412TIP3    H158727   3.971   0.675  16.959  0.9593  0.4751  0.9545
12412TIP3    H258728   3.936   0.750  16.832  2.3970 -2.1682 -1.1045
12413TIP3   OH258729   3.320   2.455   6.145  0.0497 -0.1934  0.0239
12413TIP3    H158730   3.320   2.372   6.192  0.2855 -0.0157  0.3330
12413TIP3    H258731   3.278   2.434   6.061 -2.3032 -0.0575  1.1017
12414TIP3   OH258732   3.873   1.526  14.934 -0.3628 -0.4904  0.8735
12414TIP3    H158733   3.822   1.606  14.921  2.4457  1.2487 -0.4156
12414TIP3    H258734   3.894   1.497  14.845  1.5064 -0.6600  1.3303
12415TIP3   OH258735   4.964   1.587  16.251  0.1709  0.0692  0.4155
12415TIP3    H158736   4.968   1.596  16.156  1.3266  0.4229  0.4920
12415TIP3    H258737   4.932   1.497  16.265  0.0045  0.0126 -0.2940
12416TIP3   OH258738   0.117   1.772   1.369  0.0492 -0.6287  0.5491
12416TIP3    H158739   0.107   1.728   1.285  1.7095  0.3596 -0.1983
12416TIP3    H258740   0.076   1.857   1.358 -0.5063 -0.8248  1.0362
12417TIP3   OH258741   0.141   6.742  11.397 -0.0596 -0.1327  0.3768
12417TIP3    H158742   0.070   6.798  11.425 -1.0670 -1.6108  0.9019
12417TIP3    H258743   0.139   6.746  11.301 -0.7959 -0.0868  0.3931
12418TIP3   OH258744   0.588   5.457   4.276 -0.9750  0.2462  0.0255
12418TIP3    H158745   0.657   5.431   4.214 -0.3107  0.2337  0.7640
12418TIP3    H258746   0.553   5.539   4.241 -0.4339  0.3680 -0.2293
12419TIP3   OH258747   5.399   6.152   1.722 -0.1930 -0.2342 -0.0620
12419TIP3    H158748   5.462   6.193   1.781  0.7420  3.1010 -3.0743
12419TIP3    H258749   5.314   6.185   1.752  0.1198  0.3800  0.1606
12420TIP3   OH258750   5.765   4.179   0.446  0.3705  0.4816 -0.0025
12420TIP3    H158751   5.682   4.132   0.447  1.0896 -0.8179  0.6293
12420TIP3    H258752   5.811   4.144   0.370  0.9284  0.1305  0.4947
12421TIP3   OH258753   5.645   0.258  12.162 -0.4451  0.1946  0.2003
12421TIP3    H158754   5.699   0.258  12.083  0.2376  0.0661  0.6571
12421TIP3    H258755   5.669   0.177  12.207 -1.7526 -0.3645 -0.0760
12422TIP3   OH258756   3.391   4.241   5.208 -0.3789 -0.1433 -0.3026
12422TIP3    H158757   3.407   4.197   5.125 -0.7092  2.1570 -1.6900
12422TIP3    H258758   3.383   4.170   5.272  0.0782 -1.9895 -2.1719
12423TIP3   OH258759   2.570   3.175  11.038 -0.0073 -0.2498 -0.3328
12423TIP3    H158760   2.530   3.095  11.070  2.8364 -2.1829 -1.2118
12423TIP3    H258761   2.578   3.162  10.944  0.7354  0.9411 -0.4568
12424TIP3   OH258762   5.041   5.299  16.089 -0.5448 -0.1533 -0.6095
12424TIP3    H158763   4.958   5.252  16.095 -1.2994  0.8713 -2.1299
12424TIP3    H258764   5.015   5.391  16.081  0.7872  0.2693 -0.2074
12425TIP3   OH258765   5.277   0.126   4.894  0.5428 -0.1332 -0.0354
12425TIP3    H158766   5.318   0.196   4.844  1.1470 -0.2818  0.2411
12425TIP3    H258767   5.267   0.055   4.831  1.6144 -0.4409  0.1161
12426TIP3   OH258768   3.237   1.956  14.459 -0.3853 -0.7715 -0.0597
12426TIP3    H158769   3.306   1.984  14.399 -0.6301  1.3063  0.5593
12426TIP3    H258770   3.280   1.950  14.544 -0.6198 -1.0667  0.0415
12427TIP3   OH258771   2.629   4.638  13.421  0.6676  0.3892 -0.0536
12427TIP3    H158772   2.672   4.566  13.467  0.7896  0.6061  0.1702
12427TIP3    H258773   2.701   4.693  13.390  0.5670  0.5303 -0.0375
12428TIP3   OH258774   4.748   3.221   0.944  0.4799  0.2412 -0.6256
12428TIP3    H158775   4.834   3.179   0.944 -0.4358 -1.7644  0.2220
12428TIP3    H258776   4.697   3.172   0.880 -0.2471  0.9273 -0.5898
12429TIP3   OH258777   5.541   2.503  13.486 -0.5326  0.4140  0.9791
12429TIP3    H158778   5.636   2.510  13.498 -0.4515 -1.5697  2.0641
12429TIP3    H258779   5.507   2.590  13.505  1.0968  1.2363  0.2604
12430TIP3   OH258780   0.110   1.555   5.045 -0.4333 -0.2825 -0.4373
12430TIP3    H158781   0.114   1.529   4.953 -1.6935  0.9660 -0.8787
12430TIP3    H258782   0.020   1.582   5.058 -0.3892 -0.8889  1.3170
12431TIP3   OH258783   4.820   4.945   2.540 -0.5791  0.3574 -1.1253
12431TIP3    H158784   4.794   4.964   2.630  1.3948  0.3688 -0.4903
12431TIP3    H258785   4.891   5.007   2.522 -0.4009 -0.1851 -2.3997
12432TIP3   OH258786   0.845   1.230   1.508  0.3493  0.0147 -0.0083
12432TIP3    H158787   0.761   1.266   1.480 -1.0936 -1.8146  1.6901
12432TIP3    H258788   0.835   1.135   1.497  2.3670 -0.2270 -0.1498
12433TIP3   OH258789   5.635   6.640  16.885 -0.7637  0.6887  0.1326
12433TIP3    H158790   5.569   6.660  16.952  0.4841 -1.1702  2.0578
12433TIP3    H258791   5.619   6.549  16.863  0.9267  0.2980  0.4207
12434TIP3   OH258792   0.882   5.776  13.908  0.2661 -0.3581 -0.1824
12434TIP3    H158793   0.858   5.726  13.986  0.5073  0.2596  0.3025
12434TIP3    H258794   0.931   5.713  13.854 -1.7653 -1.4180 -0.8675
12435TIP3   OH258795   4.691   6.699  11.888 -0.9056  0.1795  0.2243
12435TIP3    H158796   4.610   6.748  11.901 -0.6256  0.5144  0.7168
12435TIP3    H258797   4.697   6.641  11.964 -0.6196  0.2451  0.2527
12436TIP3   OH258798   0.636   3.082   4.810 -0.3328  0.1159  0.3342
12436TIP3    H158799   0.638   3.123   4.724  1.2958 -0.9896 -0.1971
12436TIP3    H258800   0.560   3.122   4.854 -1.9088 -0.1432 -1.9811
12437TIP3   OH258801   4.500   3.242  14.968  0.2244 -0.0933 -0.0728
12437TIP3    H158802   4.450   3.188  15.029  0.5854  0.2757  0.5529
12437TIP3    H258803   4.567   3.183  14.933  0.8552  0.0471  0.8930
12438TIP3   OH258804   6.723   0.580   5.767 -0.0215 -0.6459 -0.0625
12438TIP3    H158805   6.780   0.644   5.724  0.9967 -1.6549 -0.2631
12438TIP3    H258806   6.739   0.591   5.860  0.8957 -1.2588 -0.1382
12439TIP3   OH258807   3.935   1.686  17.115 -0.3199  0.2685  0.6615
12439TIP3    H158808   3.840   1.682  17.115 -0.4021  1.1428 -1.1553
12439TIP3    H258809   3.959   1.688  17.208 -1.9949 -0.8723  1.1594
12440TIP3   OH258810   3.134   5.390  13.478 -0.3352 -0.3607 -0.3949
12440TIP3    H158811   3.217   5.350  13.502 -0.6891 -1.0724 -0.3219
12440TIP3    H258812   3.068   5.328  13.509 -0.9087  0.4526  0.0367
12441TIP3   OH258813   2.440   2.120   3.052 -0.3255 -0.5875 -0.3651
12441TIP3    H158814   2.532   2.142   3.062 -0.4930  0.6680 -1.3349
12441TIP3    H258815   2.394   2.203   3.063 -1.4064 -1.2976  0.7330
12442TIP3   OH258816   0.876   0.480  12.596 -0.0402  0.5639 -0.6493
12442TIP3    H158817   0.826   0.399  12.606  0.1505  0.5945  0.7164
12442TIP3    H258818   0.967   0.452  12.591  0.0999  0.7175  0.6701
12443TIP3   OH258819   3.203   2.332  10.808 -0.8438 -0.1133 -0.1832
12443TIP3    H158820   3.280   2.337  10.865 -0.6627  2.3919 -0.5299
12443TIP3    H258821   3.140   2.280  10.858  0.3122 -0.4018  1.0432
12444TIP3   OH258822   5.419   6.497   6.184 -0.5020  0.7093  0.0142
12444TIP3    H158823   5.339   6.447   6.202  0.3898 -0.6584  0.3062
12444TIP3    H258824   5.479   6.434   6.145  1.1834  1.1579  1.7056
12445TIP3   OH258825   4.074   0.524  15.599  0.5382  0.2521 -0.1845
12445TIP3    H158826   4.050   0.604  15.647  2.2146  1.5741 -1.4090
12445TIP3    H258827   3.990   0.485  15.575 -0.3408  0.5626  2.1100
12446TIP3   OH258828   3.258   6.131  16.869  0.4098 -0.5154 -0.6785
12446TIP3    H158829   3.191   6.197  16.888 -0.4840 -1.6414  0.2688
12446TIP3    H258830   3.339   6.181  16.860 -0.1738  0.6804  0.3185
12447TIP3   OH258831   5.888   6.595  16.799 -0.5103 -0.0606  0.4056
12447TIP3    H158832   5.797   6.587  16.826 -1.1696 -0.4744 -1.7223
12447TIP3    H258833   5.932   6.519  16.837 -0.9953  0.2575  1.6173
12448TIP3   OH258834   6.206   6.416  15.718  0.3809 -0.4668  0.0829
12448TIP3    H158835   6.265   6.383  15.650 -0.1376 -1.2516 -0.0006
12448TIP3    H258836   6.120   6.417  15.676  0.0981 -0.7092  0.6542
12449TIP3   OH258837   1.264   4.428   3.690 -0.1394 -0.1036  0.2730
12449TIP3    H158838   1.218   4.400   3.769 -1.5920  1.3276 -0.0161
12449TIP3    H258839   1.200   4.479   3.642  1.8962  2.5217  0.0985
12450TIP3   OH258840   0.862   2.489   3.171 -0.1456 -0.5524  0.3610
12450TIP3    H158841   0.875   2.401   3.208  0.5363  0.0829  1.6957
12450TIP3    H258842   0.777   2.484   3.127 -1.2856 -1.2068  2.5202
12451TIP3   OH258843   0.251   0.941  14.317  0.6843  0.4715 -0.0838
12451TIP3    H158844   0.295   0.993  14.250  0.4272  0.9834  0.1349
12451TIP3    H258845   0.252   0.996  14.395 -1.6641  1.1626 -0.4619
12452TIP3   OH258846   0.811   3.809   4.600  0.0591 -0.4426  0.4734
12452TIP3    H158847   0.878   3.764   4.548  0.9246 -0.0304  1.2046
12452TIP3    H258848   0.800   3.755   4.677 -0.6412 -0.6317  0.2507
12453TIP3   OH258849   3.160   2.272   4.297  0.1373 -0.0599 -0.3399
12453TIP3    H158850   3.188   2.328   4.370 -0.6931  0.2959 -0.2851
12453TIP3    H258851   3.148   2.331   4.224  0.3393 -0.3304 -0.5957
12454TIP3   OH258852   4.456   6.775  15.235  0.4706 -0.3645 -0.0212
12454TIP3    H158853   4.372   6.781  15.281  0.9879  0.6042  0.8377
12454TIP3    H258854   4.457   6.850  15.177  0.7851 -0.3191  0.0443
12455TIP3   OH258855   4.580   5.077   1.185 -0.8646  0.2935 -0.3075
12455TIP3    H158856   4.558   5.141   1.252 -3.8254 -1.4720  0.5823
12455TIP3    H258857   4.550   4.993   1.221  0.9343 -1.3181 -2.2833
12456TIP3   OH258858   0.842   5.767   5.596 -0.0094 -0.6120 -0.6312
12456TIP3    H158859   0.838   5.723   5.511  1.8772 -2.7780  0.2913
12456TIP3    H258860   0.921   5.731   5.637  0.2248  1.8416  1.2597
12457TIP3   OH258861   0.748   4.696  13.482 -0.3096 -0.1387 -0.0365
12457TIP3    H158862   0.746   4.638  13.407  1.3332  0.2396 -0.4092
12457TIP3    H258863   0.780   4.780  13.448  1.9037 -0.3616  1.2735
12458TIP3   OH258864   0.242   5.395   1.477  0.5709 -0.0908 -0.0838
12458TIP3    H158865   0.313   5.451   1.507 -0.4596  0.4431  1.4960
12458TIP3    H258866   0.252   5.315   1.528 -0.0508  0.0664  0.3013
12459TIP3   OH258867   2.707   0.522   1.714 -0.2364  0.0566  0.6212
12459TIP3    H158868   2.742   0.611   1.717 -0.9406  0.3282  2.4063
12459TIP3    H258869   2.761   0.473   1.776 -0.3697 -0.5500  0.2644
12460TIP3   OH258870   3.358   1.881  12.650 -0.2360  0.0432 -0.1432
12460TIP3    H158871   3.378   1.969  12.617  2.1028 -0.4162 -0.1133
12460TIP3    H258872   3.336   1.895  12.743  0.9278  0.5406  0.0758
12461TIP3   OH258873   1.575   5.811  16.729  0.5410 -0.4245 -0.1389
12461TIP3    H158874   1.481   5.796  16.733  0.6181 -0.8201  0.2271
12461TIP3    H258875   1.613   5.746  16.788  1.2218 -1.7879 -1.9534
12462TIP3   OH258876   1.329   2.703   5.049 -0.1971  0.1273 -0.0922
12462TIP3    H158877   1.407   2.728   5.098 -0.3777  2.0615 -0.7171
12462TIP3    H258878   1.273   2.659   5.114  1.0699 -0.6204  0.5325
12463TIP3   OH258879   5.182   4.033  13.551  0.1689 -0.0203  0.8138
12463TIP3    H158880   5.090   4.008  13.554  0.2837 -1.0906 -1.7033
12463TIP3    H258881   5.229   3.953  13.575  0.4446 -0.1303 -0.0553
12464TIP3   OH258882   4.300   4.813   1.068  0.1106  0.0291  0.3768
12464TIP3    H158883   4.394   4.800   1.074  0.0165 -0.9993 -0.2370
12464TIP3    H258884   4.266   4.732   1.029 -1.0370  0.3375  0.6860
12465TIP3   OH258885   0.735   6.405  17.173  0.7687  0.3530  0.1958
12465TIP3    H158886   0.787   6.325  17.184 -0.6537 -0.7746 -0.9607
12465TIP3    H258887   0.796   6.476  17.194  2.0333 -1.0159  1.3873
12466TIP3   OH258888   4.947   5.037   1.214  0.1288  0.0577 -0.2763
12466TIP3    H158889   4.948   4.942   1.229  1.1011  0.0013 -0.6600
12466TIP3    H258890   4.898   5.072   1.289  0.3821 -0.6816  0.2478
12467TIP3   OH258891   0.292   1.273  15.256  0.3285 -0.6942  0.4272
12467TIP3    H158892   0.354   1.226  15.200  0.0219  0.7874 -1.2369
12467TIP3    H258893   0.340   1.286  15.338  0.9892 -2.4192  0.3658
12468TIP3   OH258894   1.799   1.941  12.909 -0.2542 -0.1446 -0.0851
12468TIP3    H158895   1.748   1.911  12.984 -0.9082  0.2237 -0.3796
12468TIP3    H258896   1.792   1.870  12.845  0.8273 -0.7431  0.4221
12469TIP3   OH258897   0.754   0.329   3.564  0.6749 -0.1305 -0.0928
12469TIP3    H158898   0.763   0.424   3.564  0.0920 -0.0638  0.6346
12469TIP3    H258899   0.721   0.308   3.652  1.7435 -1.0947  0.0961
12470TIP3   OH258900   3.011   6.558   5.750  0.2924  0.1825 -0.2938
12470TIP3    H158901   2.979   6.504   5.823  2.9873 -0.4552  0.5627
12470TIP3    H258902   3.001   6.648   5.780  1.2436 -0.0692  0.8916
12471TIP3   OH258903   0.249   3.033   2.631 -0.4404 -0.0704 -0.0231
12471TIP3    H158904   0.261   3.026   2.725  0.0009 -0.8572 -0.1317
12471TIP3    H258905   0.334   3.010   2.594 -0.7638 -0.3123 -0.6298
12472TIP3   OH258906   2.472   0.600   3.567 -0.3470  0.0320 -0.0023
12472TIP3    H158907   2.406   0.539   3.600  0.2156 -0.9837 -0.7151
12472TIP3    H258908   2.526   0.548   3.508  1.7128  0.6088  1.3044
12473TIP3   OH258909   1.281   6.384  15.621  0.5478  0.1315  0.4650
12473TIP3    H158910   1.226   6.442  15.569 -0.7122 -1.4394 -0.0544
12473TIP3    H258911   1.220   6.345  15.685  1.6589  0.5083  1.7974
12474TIP3   OH258912   6.378   4.852   2.849 -0.3200  0.7868  0.3479
12474TIP3    H158913   6.472   4.835   2.839 -0.4117  0.4672 -0.0055
12474TIP3    H258914   6.373   4.946   2.865  0.0407  0.8725 -0.0016
12475TIP3   OH258915   2.701   3.213  15.032  0.5222  0.4996  0.2784
12475TIP3    H158916   2.672   3.175  15.116  1.2421  0.5724  0.5686
12475TIP3    H258917   2.796   3.217  15.040  0.4982  1.8130  0.0125
12476TIP3   OH258918   5.084   5.068  15.741  0.3082 -0.0042  0.0180
12476TIP3    H158919   5.128   5.125  15.677 -0.1429 -0.4191 -0.6792
12476TIP3    H258920   4.994   5.100  15.743  0.5906  0.7940  1.3876
12477TIP3   OH258921   3.502   1.131   1.502  0.0207  0.0498  0.1043
12477TIP3    H158922   3.518   1.149   1.409 -0.2975  0.1632  0.0720
12477TIP3    H258923   3.418   1.172   1.521 -1.8544 -3.1996 -0.5134
12478TIP3   OH258924   0.812   0.274   5.330 -0.3465 -0.2759  0.0762
12478TIP3    H158925   0.854   0.303   5.248 -0.6917 -0.3792 -0.1409
12478TIP3    H258926   0.863   0.199   5.358 -1.4352 -1.5369 -1.1475
12479TIP3   OH258927   0.783   3.459   4.446 -0.3093  0.4218  0.3616
12479TIP3    H158928   0.696   3.498   4.440 -0.3725  0.2335  0.0681
12479TIP3    H258929   0.830   3.492   4.370 -0.4371 -0.2529 -0.0235
12480TIP3   OH258930   3.499   2.863  11.091  0.1055  0.5903  0.2451
12480TIP3    H158931   3.422   2.806  11.091  0.1857  0.4800  0.0449
12480TIP3    H258932   3.503   2.899  11.003  0.9678 -0.3463 -0.1151
12481TIP3   OH258933   6.777   6.764  11.840 -0.2401 -0.7113 -0.6712
12481TIP3    H158934   6.818   6.742  11.757 -0.4827 -3.0507 -0.2442
12481TIP3    H258935   6.798   6.691  11.898 -0.5133  0.6032  1.1870
12482TIP3   OH258936   1.237   2.202  15.635 -0.2423  0.4723 -0.9061
12482TIP3    H158937   1.172   2.272  15.645 -1.2757 -0.3672 -1.6785
12482TIP3    H258938   1.208   2.133  15.694  1.3078  1.0212  0.5967
12483TIP3   OH258939   0.470   1.675   5.347 -0.1735  0.1302 -0.3479
12483TIP3    H158940   0.549   1.652   5.298  0.1590  2.0452 -0.7648
12483TIP3    H258941   0.409   1.705   5.280  0.1388  2.3692  0.3130
12484TIP3   OH258942   2.449   2.311  10.770 -0.2971 -0.4690  0.2705
12484TIP3    H158943   2.454   2.246  10.701 -0.8707  1.0674 -1.2886
12484TIP3    H258944   2.421   2.391  10.726  0.4529  0.8693  2.0824
12485TIP3   OH258945   1.074   5.427  16.912  0.6508 -0.4679  0.1045
12485TIP3    H158946   1.038   5.471  16.835  0.5545  0.2949  0.5793
12485TIP3    H258947   1.125   5.354  16.876 -0.0086 -0.5672 -0.6450
12486TIP3   OH258948   0.979   5.818   2.989 -0.7279  0.1651  0.0271
12486TIP3    H158949   0.925   5.773   2.925  1.0199 -0.2913 -1.1821
12486TIP3    H258950   0.974   5.911   2.964 -2.5752  0.4619  1.2179
12487TIP3   OH258951   2.082   2.063  11.427  0.3191  0.4612 -0.2842
12487TIP3    H158952   2.031   2.115  11.489 -1.0203  1.1960 -1.9303
12487TIP3    H258953   2.031   1.982  11.416  0.9197  0.0227  0.0863
12488TIP3   OH258954   5.727   5.212   5.214 -0.2065  0.0999  0.4864
12488TIP3    H158955   5.757   5.209   5.305  1.6342  2.6244  0.0716
12488TIP3    H258956   5.723   5.305   5.193 -1.9280 -0.3809 -1.6377
12489TIP3   OH258957   4.794   3.633   5.459  0.2824  0.3316 -0.4081
12489TIP3    H158958   4.836   3.613   5.542 -0.5361 -0.2440 -0.1231
12489TIP3    H258959   4.768   3.548   5.424  0.9074  0.5357 -1.4162
12490TIP3   OH258960   5.989   1.315   1.697  0.6659 -0.4569  0.6244
12490TIP3    H158961   5.902   1.294   1.665  1.2806 -1.8572 -0.2421
12490TIP3    H258962   6.031   1.362   1.625  1.0250 -0.8772  0.5539
12491TIP3   OH258963   0.227   3.044  13.770 -0.4028 -0.6636  0.3233
12491TIP3    H158964   0.185   3.007  13.692  0.2205 -0.9244  0.1003
12491TIP3    H258965   0.180   3.126  13.786 -1.0166 -0.9715  0.1104
12492TIP3   OH258966   6.247   0.155  12.456 -0.6839  0.0984 -0.0932
12492TIP3    H158967   6.241   0.059  12.464  0.1800  0.1603  2.0720
12492TIP3    H258968   6.179   0.188  12.514 -0.4070  0.7860 -0.1564
12493TIP3   OH258969   2.521   3.919  15.169  0.2307  0.0914 -0.0764
12493TIP3    H158970   2.459   3.976  15.123 -1.7272 -0.2954  1.9018
12493TIP3    H258971   2.585   3.978  15.207  1.1746  0.5031 -2.1595
12494TIP3   OH258972   6.790   1.761   0.550  0.0710 -0.2599  0.1674
12494TIP3    H158973   6.836   1.681   0.523  0.8228  0.2276 -0.0278
12494TIP3    H258974   6.741   1.788   0.472  1.5188  0.6416 -0.4664
12495TIP3   OH258975   3.640   1.836   0.543 -0.7274 -0.0608  0.2734
12495TIP3    H158976   3.721   1.876   0.511 -0.6670 -1.6362 -1.7457
12495TIP3    H258977   3.669   1.774   0.610 -0.5403  1.0816  1.2852
12496TIP3   OH258978   1.056   6.506  14.931 -0.3068  0.2867  0.5491
12496TIP3    H158979   1.102   6.478  14.852 -0.8703  1.3943 -0.1889
12496TIP3    H258980   1.126   6.538  14.989  0.0021  0.5963  0.0169
12497TIP3   OH258981   4.553   6.277   5.314 -0.0369 -0.3969  0.3064
12497TIP3    H158982   4.562   6.263   5.408 -0.0782  0.4323  0.4421
12497TIP3    H258983   4.600   6.204   5.274 -1.5927 -1.8154  0.9424
12498TIP3   OH258984   5.864   6.027  16.810  0.4501 -0.2219 -0.6978
12498TIP3    H158985   5.882   5.954  16.869  1.7823 -0.8567 -1.8368
12498TIP3    H258986   5.922   6.097  16.839 -0.2342  0.1069 -0.1154
12499TIP3   OH258987   1.647   0.287  14.949  0.7006  0.1358  0.2228
12499TIP3    H158988   1.595   0.314  14.873 -0.0142 -2.6135 -0.3977
12499TIP3    H258989   1.731   0.332  14.938 -0.3245  1.9196 -0.6800
12500TIP3   OH258990   0.428   0.155   1.634  0.4192 -0.4542  0.8863
12500TIP3    H158991   0.371   0.103   1.690  0.5564  1.3447  2.8342
12500TIP3    H258992   0.383   0.239   1.626  1.0234 -0.2537 -0.7206
12501TIP3   OH258993   5.821   1.183   2.612  0.0410 -0.2902 -0.8387
12501TIP3    H158994   5.847   1.091   2.604  1.5385  0.1531 -1.3321
12501TIP3    H258995   5.732   1.186   2.575 -0.9005 -1.8909  1.0762
12502TIP3   OH258996   3.843   1.110   4.202  0.4562 -0.4561 -0.1125
12502TIP3    H158997   3.760   1.108   4.251  0.6672 -0.8883  0.2385
12502TIP3    H258998   3.910   1.122   4.270  0.7479 -0.9984 -0.2963
12503TIP3   OH258999   5.809   2.771  15.918  0.0556  0.6105 -0.0066
12503TIP3    H159000   5.773   2.746  15.833 -0.0458  0.1643  0.1667
12503TIP3    H259001   5.883   2.829  15.897 -0.0807  0.6508 -0.3892
12504TIP3   OH259002   2.143   1.983  16.976 -0.1176  0.4726  0.3560
12504TIP3    H159003   2.074   2.049  16.976  1.7064  2.5546 -1.3057
12504TIP3    H259004   2.131   1.937  16.893 -1.6168 -1.6765  1.6806
12505TIP3   OH259005   2.251   1.896   5.076 -0.0961  0.0339 -0.2374
12505TIP3    H159006   2.293   1.957   5.136  0.0471 -0.5141  0.2362
12505TIP3    H259007   2.262   1.935   4.989 -1.2086  1.3373  0.1947
12506TIP3   OH259008   3.681   3.086   2.299  0.2475  0.0350  0.3146
12506TIP3    H159009   3.633   3.045   2.227 -0.8710 -0.6198  1.3988
12506TIP3    H259010   3.704   3.173   2.266  1.8103 -1.0402 -1.6670
12507TIP3   OH259011   2.521   2.800   4.988 -0.5245  1.0358  0.2470
12507TIP3    H159012   2.556   2.812   5.077  1.0701  0.4517 -0.2716
12507TIP3    H259013   2.597   2.807   4.931 -1.1599 -0.7694 -0.9070
12508TIP3   OH259014   4.116   6.323   1.918  0.1282 -0.7499 -0.7676
12508TIP3    H159015   4.163   6.276   1.850 -0.9680 -1.5401 -1.0142
12508TIP3    H259016   4.088   6.255   1.980 -0.1520 -0.2295 -0.3115
12509TIP3   OH259017   1.669   5.105  14.789 -0.3220  0.3331 -0.5244
12509TIP3    H159018   1.631   5.053  14.718  0.6035  0.4993 -1.1659
12509TIP3    H259019   1.729   5.164  14.745 -2.2997  2.9287  0.0416
12510TIP3   OH259020   0.789   3.130  11.741  0.1424  0.1085 -0.0459
12510TIP3    H159021   0.831   3.075  11.674  1.3066  1.6939 -0.6699
12510TIP3    H259022   0.743   3.067  11.797  0.0456 -1.3760 -1.6647
12511TIP3   OH259023   1.842   6.179   0.396 -0.0077 -0.3242  0.3218
12511TIP3    H159024   1.909   6.207   0.335 -1.7031  2.1177 -0.5671
12511TIP3    H259025   1.786   6.119   0.346  0.9764 -1.7271  0.8306
12512TIP3   OH259026   3.741   0.706   2.686 -0.0260 -0.1681  0.0624
12512TIP3    H159027   3.780   0.728   2.601  0.3326  1.2161  0.5463
12512TIP3    H259028   3.794   0.755   2.749 -2.7976  2.2287  0.7317
12513TIP3   OH259029   4.042   5.292   3.768  0.2318 -0.3518 -0.7338
12513TIP3    H159030   4.087   5.278   3.851 -0.3600  0.7545 -0.1990
12513TIP3    H259031   3.951   5.268   3.786  0.1289 -0.2533 -1.1039
12514TIP3   OH259032   2.719   5.320  11.170  0.2146 -0.1843 -0.0330
12514TIP3    H159033   2.692   5.270  11.247  0.9342 -2.1902 -1.0125
12514TIP3    H259034   2.803   5.282  11.145 -0.1885  0.1233 -2.0561
12515TIP3   OH259035   5.147   2.745  13.345  0.4390  0.5502  0.3831
12515TIP3    H159036   5.097   2.824  13.369  0.0184  0.2703  0.4459
12515TIP3    H259037   5.108   2.675  13.398 -1.2587 -0.3092 -1.8340
12516TIP3   OH259038   3.654   2.689  10.728 -0.1238 -0.1925  0.1371
12516TIP3    H159039   3.729   2.651  10.775 -0.5025 -1.2241 -0.0805
12516TIP3    H259040   3.691   2.764  10.681  0.1375  1.3462  2.6292
12517TIP3   OH259041   3.287   3.311  14.322  0.4143 -0.4353  0.4383
12517TIP3    H159042   3.212   3.364  14.296  0.5690 -0.2251  0.4105
12517TIP3    H259043   3.251   3.225  14.342  0.3879 -0.8542 -1.2497
12518TIP3   OH259044   5.169   0.798   4.316  0.6237  0.1156  0.1477
12518TIP3    H159045   5.214   0.716   4.334  1.0071  0.5750  1.4493
12518TIP3    H259046   5.238   0.864   4.320 -0.1573  0.9318  2.9695
12519TIP3   OH259047   5.344   5.701  16.465 -0.1534 -0.0708  0.1647
12519TIP3    H159048   5.320   5.625  16.518 -1.1546 -0.1424 -0.3653
12519TIP3    H259049   5.349   5.773  16.527  2.1445 -0.7682  0.9176
12520TIP3   OH259050   0.656   0.404  16.779  0.3980  0.0136  0.7564
12520TIP3    H159051   0.681   0.349  16.705 -0.2762  0.9633 -0.2010
12520TIP3    H259052   0.670   0.348  16.856  2.1865 -0.6143  0.0236
12521TIP3   OH259053   2.945   1.633   0.673 -0.0403 -0.3908 -0.4468
12521TIP3    H159054   3.030   1.660   0.640  0.8012 -0.0981  1.8004
12521TIP3    H259055   2.884   1.698   0.639  0.8801  0.2957 -0.8149
12522TIP3   OH259056   2.406   6.403  16.327 -0.7620 -0.2738 -0.6551
12522TIP3    H159057   2.451   6.320  16.310 -0.7165 -0.7720  1.6197
12522TIP3    H259058   2.314   6.384  16.311 -0.7171 -0.6863 -0.4423
12523TIP3   OH259059   0.197   4.512  11.779  0.5513 -0.2946 -0.1957
12523TIP3    H159060   0.125   4.455  11.751  0.8465 -1.1918  0.8200
12523TIP3    H259061   0.181   4.526  11.873  0.3805  1.4684 -0.4536
12524TIP3   OH259062   6.482   5.204   1.246 -0.2091 -0.1263 -0.4459
12524TIP3    H159063   6.483   5.189   1.152 -1.7555 -4.7512 -0.0069
12524TIP3    H259064   6.392   5.183   1.272  0.4266  0.0519  2.1724
12525TIP3   OH259065   4.601   3.691   1.154  0.2318  0.0237  0.3059
12525TIP3    H159066   4.615   3.764   1.093 -0.4465 -0.9066 -1.0023
12525TIP3    H259067   4.650   3.619   1.116 -1.4201 -0.9949  0.0016
12526TIP3   OH259068   1.948   2.622   3.442  0.4421  0.6272 -0.3378
12526TIP3    H159069   2.000   2.547   3.471 -2.0304 -1.2985 -0.5824
12526TIP3    H259070   1.926   2.668   3.522  0.4767  0.0633  0.0005
12527TIP3   OH259071   2.477   5.584   4.171  0.1394  1.1454  0.3128
12527TIP3    H159072   2.515   5.517   4.114  0.4653 -0.9279  2.7701
12527TIP3    H259073   2.383   5.569   4.167  0.1350  1.2344  0.0679
12528TIP3   OH259074   5.115   6.333  16.102 -0.1708  0.0293  0.4355
12528TIP3    H159075   5.154   6.270  16.162 -2.8081 -0.2469  2.0060
12528TIP3    H259076   5.029   6.297  16.081  0.3175  0.5222 -2.9797
12529TIP3   OH259077   2.272   0.692   4.558  0.9712  0.4080  0.1465
12529TIP3    H159078   2.263   0.670   4.465 -1.7662  1.0355  0.1794
12529TIP3    H259079   2.333   0.626   4.592  1.4837 -0.2668 -1.9344
12530TIP3   OH259080   5.289   3.399   0.555 -0.1402 -0.3892 -0.1890
12530TIP3    H159081   5.367   3.441   0.519 -0.6934  0.1959 -0.7249
12530TIP3    H259082   5.323   3.339   0.622  0.7877 -0.4091 -0.6613
12531TIP3   OH259083   6.198   6.835  15.051  0.0851 -0.7448 -0.7799
12531TIP3    H159084   6.195   6.812  15.144  3.1369  0.8660 -0.1444
12531TIP3    H259085   6.116   6.882  15.036 -0.2391 -0.5362  1.2732
12532TIP3   OH259086   2.462   6.417  15.755  0.1444  0.3083  0.4471
12532TIP3    H159087   2.398   6.346  15.743  1.2301 -0.6349  0.0179
12532TIP3    H259088   2.528   6.380  15.814  2.4057 -0.2732 -2.1817
12533TIP3   OH259089   0.745   0.770  13.265 -0.1618 -0.0448  0.5901
12533TIP3    H159090   0.804   0.741  13.196  0.8197  0.5454  1.1654
12533TIP3    H259091   0.743   0.699  13.328 -0.3113 -0.1888  0.4243
12534TIP3   OH259092   4.142   0.327   4.754 -0.0914 -0.5552 -0.6157
12534TIP3    H159093   4.123   0.268   4.828  1.6865 -1.6606 -0.9767
12534TIP3    H259094   4.071   0.391   4.756 -0.1442 -0.5908  1.9938
12535TIP3   OH259095   3.320   4.668  12.568 -0.5042 -0.3860  0.1944
12535TIP3    H159096   3.288   4.661  12.658 -0.5696 -1.0508  0.1222
12535TIP3    H259097   3.377   4.592  12.556 -0.6744 -0.4277 -0.3965
12536TIP3   OH259098   5.892   1.982  13.320  0.5405  0.0019  0.4183
12536TIP3    H159099   5.983   1.960  13.340  0.3025 -1.9548 -0.4010
12536TIP3    H259100   5.895   2.022  13.233  0.6517  0.2528  0.5377
12537TIP3   OH259101   1.507   0.982  17.077 -0.3543 -0.0523 -0.2265
12537TIP3    H159102   1.574   1.046  17.053 -0.5098  0.1539 -0.1163
12537TIP3    H259103   1.428   1.011  17.030 -0.2751 -0.4957 -0.6368
12538TIP3   OH259104   6.494   0.048   4.088  0.8349  0.0208  0.1369
12538TIP3    H159105   6.492   0.138   4.056 -1.1029  0.3618  1.0749
12538TIP3    H259106   6.462  -0.005   4.015  1.7888  0.0990 -0.3493
12539TIP3   OH259107   6.641   4.233   6.355 -0.1151 -0.4132  0.1747
12539TIP3    H159108   6.700   4.306   6.376  0.0457  0.1363 -1.9703
12539TIP3    H259109   6.700   4.159   6.340 -0.1371 -0.4443  0.2384
12540TIP3   OH259110   1.451   2.410  14.775 -0.2188  0.2418 -0.7992
12540TIP3    H159111   1.442   2.406  14.870  0.1505  0.1522 -0.7684
12540TIP3    H259112   1.401   2.335  14.743  0.2891 -0.1704 -0.6348
12541TIP3   OH259113   5.055   4.376   1.774  0.2580  0.1044  0.3264
12541TIP3    H159114   5.115   4.447   1.755 -3.1498  3.5779  1.1152
12541TIP3    H259115   5.067   4.358   1.867  0.2624  0.6155  0.4261
12542TIP3   OH259116   4.782   2.131   4.589  0.0579 -0.1673 -0.2276
12542TIP3    H159117   4.724   2.057   4.570  4.6754 -4.2192 -0.5136
12542TIP3    H259118   4.778   2.140   4.684  1.0551 -2.5312  0.1184
12543TIP3   OH259119   5.771   4.934   2.861 -0.6093 -0.0185 -0.1519
12543TIP3    H159120   5.846   4.965   2.912 -1.3154  3.9608 -1.1302
12543TIP3    H259121   5.736   4.860   2.910  2.3011 -0.2652  1.7698
12544TIP3   OH259122   0.766   3.303  11.472  0.0536  0.0835 -0.3239
12544TIP3    H159123   0.715   3.257  11.406  0.1663  1.8959 -1.7572
12544TIP3    H259124   0.767   3.244  11.548 -0.9197 -1.6225 -1.5810
12545TIP3   OH259125   3.562   1.797  12.434 -0.2293  0.1486  0.3250
12545TIP3    H159126   3.598   1.883  12.412 -0.4640  0.0671 -0.4204
12545TIP3    H259127   3.506   1.812  12.509  0.1052  0.5612  0.4956
12546TIP3   OH259128   3.820   3.557  12.746 -0.9022 -0.2696 -0.1539
12546TIP3    H159129   3.731   3.584  12.768 -0.9728  0.7400 -1.5255
12546TIP3    H259130   3.868   3.564  12.828 -1.5741  1.4314  0.1432
12547TIP3   OH259131   0.080   6.176   6.507 -0.4718 -0.1508 -0.3312
12547TIP3    H159132   0.167   6.143   6.485  0.1022  0.4277  0.9143
12547TIP3    H259133   0.025   6.152   6.433  1.0435  0.6669 -1.8052
12548TIP3   OH259134   4.939   1.001   3.017  0.5377  0.1199 -0.0202
12548TIP3    H159135   4.975   0.919   2.983  0.8358  1.0307 -2.1049
12548TIP3    H259136   4.846   0.998   2.997  0.6884  0.6002 -0.8531
12549TIP3   OH259137   0.530   5.906  12.127  0.1352  0.5508  0.1712
12549TIP3    H159138   0.621   5.924  12.103  0.1587  0.3356  0.1004
12549TIP3    H259139   0.488   5.992  12.124  0.6382  0.8711  1.5444
12550TIP3   OH259140   5.454   1.569   5.656  0.0060  0.0125  0.4446
12550TIP3    H159141   5.478   1.660   5.644 -1.5966  0.3239 -0.7134
12550TIP3    H259142   5.531   1.520   5.626  0.0087  0.9698 -1.2562
12551TIP3   OH259143   3.023   1.136  10.959  0.4755  0.0821  0.4933
12551TIP3    H159144   2.960   1.201  10.930 -2.4844 -2.0584  1.6190
12551TIP3    H259145   3.072   1.179  11.029  0.5266  1.8981 -0.5921
12552TIP3   OH259146   5.149   3.378  16.378  0.3569  0.1211 -0.2273
12552TIP3    H159147   5.191   3.350  16.459 -0.0825  1.8052  0.6470
12552TIP3    H259148   5.175   3.313  16.313  1.6521 -0.6477  0.9980
12553TIP3   OH259149   4.460   4.421   0.783 -0.0430  0.4818  0.0794
12553TIP3    H159150   4.460   4.330   0.753  1.0431  0.6564 -0.4857
12553TIP3    H259151   4.377   4.456   0.751  0.4633  0.2697 -1.5623
12554TIP3   OH259152   2.168   6.281   3.383 -0.0913 -0.1536  0.1784
12554TIP3    H159153   2.253   6.325   3.388 -0.8975  1.4636  0.3754
12554TIP3    H259154   2.168   6.220   3.456  0.7834  0.0420  0.3537
12555TIP3   OH259155   6.740   0.249   5.627  0.1774  0.2460 -0.5194
12555TIP3    H159156   6.805   0.192   5.587  0.5174  0.0230  0.3416
12555TIP3    H259157   6.659   0.198   5.627  0.3722 -0.0603 -0.1684
12556TIP3   OH259158   4.427   4.837   1.714 -0.1065 -0.0351 -0.0627
12556TIP3    H159159   4.359   4.905   1.709  0.1662  0.2392 -0.0240
12556TIP3    H259160   4.421   4.792   1.629 -0.8228 -0.4831  0.2129
12557TIP3   OH259161   1.242   5.140  11.626  0.0150 -0.4943  0.0292
12557TIP3    H159162   1.175   5.170  11.687 -1.3922  0.6331 -1.9367
12557TIP3    H259163   1.286   5.220  11.597  0.2905 -0.9296 -0.7979
12558TIP3   OH259164   4.936   2.773   4.535 -0.1725 -0.0074 -0.2001
12558TIP3    H159165   4.958   2.717   4.609  0.1473  2.1157  1.4128
12558TIP3    H259166   5.015   2.774   4.481  0.2805 -0.0604  0.4538
12559TIP3   OH259167   1.863   2.394  11.831  0.2183 -0.2355 -0.5402
12559TIP3    H159168   1.947   2.435  11.813 -0.6924  1.2616 -1.6517
12559TIP3    H259169   1.837   2.428  11.917  1.0038 -1.1655  0.0699
12560TIP3   OH259170   3.709   5.913   3.929 -0.0778 -0.8136  0.4159
12560TIP3    H159171   3.622   5.952   3.936  0.8787  1.7471 -0.7824
12560TIP3    H259172   3.723   5.901   3.835  1.1992 -0.2782  0.5149
12561TIP3   OH259173   1.827   1.638   5.981 -0.6510 -0.7893  0.1886
12561TIP3    H159174   1.918   1.651   6.006  0.3785  0.5526 -3.5341
12561TIP3    H259175   1.783   1.719   6.009 -0.2648 -0.6286  0.3442
12562TIP3   OH259176   0.693   6.735   6.103  0.2594 -0.2407  0.0641
12562TIP3    H159177   0.623   6.679   6.137  0.9119 -0.9389  0.2971
12562TIP3    H259178   0.710   6.701   6.015  0.1583  0.0671 -0.0743
12563TIP3   OH259179   6.726   3.681  11.657 -0.2152 -0.0221 -0.2189
12563TIP3    H159180   6.668   3.754  11.678  0.5563  1.1688 -1.9685
12563TIP3    H259181   6.714   3.619  11.729 -0.4923  2.0603  1.6456
12564TIP3   OH259182   6.368   4.460  16.349  0.2710  0.6133 -0.1250
12564TIP3    H159183   6.310   4.505  16.288  0.1163  0.2810 -0.2285
12564TIP3    H259184   6.428   4.410  16.294  1.8871  2.4083 -0.0729
12565TIP3   OH259185   4.049   3.603   1.144 -0.7956 -0.0096 -0.2502
12565TIP3    H159186   4.104   3.651   1.206 -1.7265 -1.6210  1.9778
12565TIP3    H259187   3.963   3.603   1.185 -2.8066  2.9322 -3.8940
12566TIP3   OH259188   1.006   2.618   2.930 -0.5400  0.0045 -0.1967
12566TIP3    H159189   0.987   2.576   3.013 -0.6137  0.7801  0.1884
12566TIP3    H259190   0.927   2.670   2.911  0.2927  1.5329  0.3351
12567TIP3   OH259191   4.196   3.521   4.423 -0.1863 -0.1017 -0.6067
12567TIP3    H159192   4.218   3.508   4.515  0.5381 -1.9205 -1.0049
12567TIP3    H259193   4.104   3.496   4.415 -0.5559  1.0571 -0.2123
12568TIP3   OH259194   0.233   2.313   2.294 -0.0198 -0.2315 -0.3339
12568TIP3    H159195   0.318   2.344   2.326  0.9836 -1.5925 -1.5723
12568TIP3    H259196   0.254   2.240   2.236 -2.1162 -1.2275  0.0748
12569TIP3   OH259197   5.348   1.284   4.798 -0.2715 -0.0874 -1.1008
12569TIP3    H159198   5.403   1.234   4.737  0.7811 -0.7265  0.3289
12569TIP3    H259199   5.405   1.353   4.830 -0.7284  0.0779 -0.6316
12570TIP3   OH259200   3.143   3.944   4.462 -0.1688  0.5064  0.3070
12570TIP3    H159201   3.126   3.981   4.548  0.7250  0.7928  0.3647
12570TIP3    H259202   3.088   3.866   4.458 -0.6460  0.8049  0.9072
12571TIP3   OH259203   0.041   5.550  12.859  0.2805  0.1381  0.2113
12571TIP3    H159204   0.012   5.463  12.886  5.5806 -2.1619 -0.2540
12571TIP3    H259205   0.091   5.583  12.935  0.5650  1.5854 -0.5676
12572TIP3   OH259206   6.470   6.070   3.824 -0.1193  0.2767  0.4202
12572TIP3    H159207   6.465   6.135   3.895  1.5620  1.0803 -0.1320
12572TIP3    H259208   6.503   6.120   3.749  2.4776 -1.4287  0.3111
12573TIP3   OH259209   2.807   3.843  13.644  0.2388 -0.2565  0.1078
12573TIP3    H159210   2.742   3.913  13.634  1.3964  0.6374 -1.6258
12573TIP3    H259211   2.890   3.888  13.654  0.6619 -1.3847  2.3294
12574TIP3   OH259212   1.865   4.872   2.156  0.5361 -0.0470  0.7377
12574TIP3    H159213   1.924   4.868   2.231 -1.2097  0.8863  2.2375
12574TIP3    H259214   1.835   4.963   2.153  0.8399  0.0459 -1.3595
12575TIP3   OH259215   3.869   4.837   6.216  0.0284 -0.0922  0.1667
12575TIP3    H159216   3.959   4.804   6.218  1.1703  2.7473  1.7884
12575TIP3    H259217   3.858   4.873   6.128  1.7835  2.4864  0.8791
12576TIP3   OH259218   4.883   5.059   4.518 -0.2433 -0.4784 -0.3577
12576TIP3    H159219   4.864   5.085   4.608 -0.7449  1.4306 -0.9647
12576TIP3    H259220   4.968   5.099   4.500 -0.7265  0.2360 -1.1163
12577TIP3   OH259221   6.539   2.019   3.853 -0.2106 -0.3666 -0.0103
12577TIP3    H159222   6.550   1.932   3.815 -2.2139 -1.3115  1.4035
12577TIP3    H259223   6.523   2.003   3.946  1.2507  1.6569  0.6577
12578TIP3   OH259224   3.225   0.774   5.402  0.0642  0.3674 -0.4294
12578TIP3    H159225   3.315   0.744   5.385 -0.4812 -0.7483 -1.5828
12578TIP3    H259226   3.190   0.709   5.463  0.3194  1.3425  0.7835
12579TIP3   OH259227   2.117   1.487   3.307  0.1476  0.2196  0.2978
12579TIP3    H159228   2.024   1.465   3.308 -0.0652  1.1006  0.5932
12579TIP3    H259229   2.149   1.452   3.224 -0.1973 -1.0346  0.6556
12580TIP3   OH259230   3.759   1.080   5.446  0.8793 -0.2796  0.3134
12580TIP3    H159231   3.849   1.066   5.476  1.3104  1.1664 -0.2760
12580TIP3    H259232   3.705   1.046   5.518  1.8928 -0.0997  1.1793
12581TIP3   OH259233   1.801   6.813  11.487  0.5656  0.1479 -0.3888
12581TIP3    H159234   1.848   6.848  11.562  1.0267 -0.1304 -0.5439
12581TIP3    H259235   1.800   6.719  11.500 -0.2956  0.1725 -0.1919
12582TIP3   OH259236   2.360   6.826  14.766  0.3616 -0.4110 -0.1498
12582TIP3    H159237   2.406   6.906  14.791 -1.5811  0.9607 -0.7139
12582TIP3    H259238   2.370   6.768  14.841  0.7825  0.8360  0.7971
12583TIP3   OH259239   3.623   0.594   2.923  0.5777  0.1295 -0.0195
12583TIP3    H159240   3.657   0.616   2.836 -1.1197 -0.8155 -0.9680
12583TIP3    H259241   3.553   0.531   2.907  1.7069 -1.8559  2.2040
12584TIP3   OH259242   2.689   1.078   5.869  0.1190  0.2240  0.4082
12584TIP3    H159243   2.676   1.148   5.933  0.5045  0.2881  0.4236
12584TIP3    H259244   2.774   1.040   5.893 -1.2046 -1.9489  1.9789
12585TIP3   OH259245   3.026   6.659   4.998 -0.2982 -0.3165 -0.3095
12585TIP3    H159246   3.063   6.585   4.951 -0.8112 -0.8687  0.1455
12585TIP3    H259247   2.932   6.640   5.002 -0.2137 -0.4867  1.3028
12586TIP3   OH259248   5.250   5.894   2.441 -0.3927 -0.2165 -0.2452
12586TIP3    H159249   5.159   5.871   2.422 -1.0935  0.7462  1.7268
12586TIP3    H259250   5.282   5.823   2.497  0.2762 -0.8070 -1.3224
12587TIP3   OH259251   3.199   0.659  14.717  0.2514 -0.0060  0.3284
12587TIP3    H159252   3.261   0.612  14.773 -0.1735  0.5762  1.3172
12587TIP3    H259253   3.207   0.751  14.744  0.9752  0.5121 -1.4872
12588TIP3   OH259254   2.377   4.294   4.600  0.1648 -0.2275  0.4293
12588TIP3    H159255   2.330   4.211   4.597 -0.0675 -0.0758 -0.9194
12588TIP3    H259256   2.329   4.351   4.539  1.8709  0.0422 -0.7235
12589TIP3   OH259257   1.400   1.998  11.377  0.3888 -0.2986 -0.2018
12589TIP3    H159258   1.459   1.925  11.399  0.7302 -0.2302 -0.8585
12589TIP3    H259259   1.412   2.061  11.448  0.8542 -0.4406 -0.1473
12590TIP3   OH259260   5.062   4.759   5.552 -0.7011  0.1298 -0.4713
12590TIP3    H159261   5.152   4.727   5.545 -0.8392 -0.0243 -1.7879
12590TIP3    H259262   5.020   4.733   5.470 -1.4747  1.6565 -0.5976
12591TIP3   OH259263   5.049   2.210   1.957  0.4172 -0.7715  0.2516
12591TIP3    H159264   5.060   2.123   1.995  1.5895 -0.2761  1.1300
12591TIP3    H259265   5.030   2.267   2.032 -3.7426 -0.7089 -0.6096
12592TIP3   OH259266   4.707   0.424   6.402  0.0336  0.1378 -0.3905
12592TIP3    H159267   4.775   0.454   6.341  0.0980  1.6123  0.3631
12592TIP3    H259268   4.729   0.332   6.418  1.0092  0.1940 -1.2571
12593TIP3   OH259269   1.225   4.304  15.817 -0.0413  0.1451 -0.0649
12593TIP3    H159270   1.210   4.231  15.877  0.6815  0.9053  1.0752
12593TIP3    H259271   1.196   4.271  15.732  1.1834 -1.8213  0.2074
12594TIP3   OH259272   4.026   0.893   0.128  0.4614  0.1558  0.6199
12594TIP3    H159273   4.033   0.820   0.189  1.8101  0.5097  0.9175
12594TIP3    H259274   4.117   0.919   0.111  0.0257  1.3344 -0.0011
12595TIP3   OH259275   4.182   1.816   4.136  0.1410  0.3015  0.4512
12595TIP3    H159276   4.255   1.820   4.074  0.7410 -0.2286  1.1149
12595TIP3    H259277   4.140   1.902   4.128  0.3528  0.3300 -0.5117
12596TIP3   OH259278   1.990   0.932   0.060  0.2656  0.1710  0.1063
12596TIP3    H159279   1.990   0.859  -0.001  0.4109  0.1408  0.1405
12596TIP3    H259280   1.975   0.892   0.146 -0.1659  0.2382  0.0641
12597TIP3   OH259281   1.308   1.576  13.988 -0.3757  0.3012 -0.7655
12597TIP3    H159282   1.338   1.488  13.969 -2.6643 -0.1018 -3.1303
12597TIP3    H259283   1.338   1.594  14.077  0.0126 -2.9111 -0.1506
12598TIP3   OH259284   5.483   1.773   1.230  0.3237  0.1314  0.1779
12598TIP3    H159285   5.458   1.754   1.320  0.9348  0.5812  0.4415
12598TIP3    H259286   5.448   1.860   1.212  0.0261 -0.0394 -0.0905
12599TIP3   OH259287   5.810   4.123  16.136 -0.3007  0.9117  0.1645
12599TIP3    H159288   5.743   4.191  16.122  0.9478  2.1359 -0.0242
12599TIP3    H259289   5.885   4.171  16.170  0.2744 -0.5452  0.9968
12600TIP3   OH259290   1.714   3.231  16.461  0.3750 -0.0134 -0.1567
12600TIP3    H159291   1.756   3.311  16.429  1.4337 -1.3021 -2.1297
12600TIP3    H259292   1.675   3.191  16.383 -0.3596 -1.3146  0.8378
12601TIP3   OH259293   5.265   1.807   2.399  0.8698  0.3357  0.0463
12601TIP3    H159294   5.244   1.899   2.381  1.1732  0.1047 -1.6388
12601TIP3    H259295   5.301   1.774   2.317  0.9200 -1.2631  0.6735
12602TIP3   OH259296   5.790   2.449  16.862 -0.0656 -0.1221 -0.4761
12602TIP3    H159297   5.727   2.500  16.811  0.8987  0.7369 -0.8371
12602TIP3    H259298   5.863   2.436  16.803  0.5358 -0.1994  0.2752
12603TIP3   OH259299   0.218   5.417   2.650  0.2726 -0.0079  0.4074
12603TIP3    H159300   0.229   5.334   2.696  0.3409 -0.4640 -0.4120
12603TIP3    H259301   0.185   5.477   2.717 -1.0244 -1.0255  0.7266
12604TIP3   OH259302   6.500   1.567  11.667  0.0998  0.1451  0.4607
12604TIP3    H159303   6.508   1.571  11.762  0.9090  0.5472  0.3830
12604TIP3    H259304   6.557   1.637  11.635 -0.6580  0.4275 -0.2983
12605TIP3   OH259305   3.894   6.826   3.571 -0.7239 -0.2526  0.1707
12605TIP3    H159306   3.884   6.741   3.527  0.7025 -0.7741  0.7866
12605TIP3    H259307   3.953   6.876   3.515  0.5818 -0.6837  1.0919
12606TIP3   OH259308   1.992   6.149  16.857 -0.3452  0.0156  0.2475
12606TIP3    H159309   1.978   6.235  16.818 -1.6267  0.2478  1.1479
12606TIP3    H259310   2.024   6.167  16.945  3.3071 -0.5024 -0.7947
12607TIP3   OH259311   3.884   1.093  11.392 -0.1649  0.7427 -0.5239
12607TIP3    H159312   3.943   1.017  11.396  0.9512  1.6168  0.1202
12607TIP3    H259313   3.915   1.143  11.317 -1.4056  0.1914 -1.4377
12608TIP3   OH259314   6.744   0.578  11.096  0.4248  0.3466 -0.2638
12608TIP3    H159315   6.764   0.639  11.025  1.5094  0.7327  0.3418
12608TIP3    H259316   6.808   0.599  11.164  1.8670 -2.4845 -0.6025
12609TIP3   OH259317   4.137   6.393   4.275 -0.3562  0.0273 -0.4748
12609TIP3    H159318   4.189   6.430   4.346  0.0740 -0.4467 -0.5357
12609TIP3    H259319   4.152   6.451   4.201  0.9035 -0.6541 -0.7814
12610TIP3   OH259320   2.873   1.082   0.421 -0.0913 -0.0465  0.0960
12610TIP3    H159321   2.786   1.044   0.411 -0.6751  1.0473  0.7788
12610TIP3    H259322   2.884   1.091   0.516  0.1659  1.1314 -0.0271
12611TIP3   OH259323   2.256   5.417  12.052 -0.0733 -0.2473 -0.2340
12611TIP3    H159324   2.303   5.418  12.135  0.5699 -0.9126 -0.5781
12611TIP3    H259325   2.310   5.470  11.993  0.5049 -1.3731 -0.7540
12612TIP3   OH259326   3.092   1.081  14.071 -0.2219  0.0681 -0.3100
12612TIP3    H159327   3.034   1.138  14.020  0.4417  1.6453  0.6081
12612TIP3    H259328   3.169   1.071  14.015  0.2765  1.3406  0.1005
12613TIP3   OH259329   3.706   2.123  16.544 -0.8156  0.0048 -0.8232
12613TIP3    H159330   3.727   2.036  16.578  2.0306  0.2636 -1.6169
12613TIP3    H259331   3.791   2.160  16.520 -1.9566  2.9227 -0.7670
12614TIP3   OH259332   1.449   1.823  12.804  0.1219  0.1848  0.5108
12614TIP3    H159333   1.487   1.755  12.860  0.6495 -0.0302 -0.0892
12614TIP3    H259334   1.387   1.868  12.860  2.0749  1.2980  1.9107
12615TIP3   OH259335   5.866   3.850   5.321 -0.1679 -0.2698  0.1688
12615TIP3    H159336   5.962   3.855   5.324 -0.2289  0.5635  0.9488
12615TIP3    H259337   5.848   3.762   5.287  0.8723 -0.9610  1.3483
12616TIP3   OH259338   6.691   3.030  12.526 -0.1251 -0.2433 -0.1820
12616TIP3    H159339   6.606   3.075  12.529  0.0244  0.0144  1.2056
12616TIP3    H259340   6.753   3.097  12.496  0.0677  0.4948  1.7063
12617TIP3   OH259341   5.317   1.669  16.086 -0.1982  0.3264  0.0172
12617TIP3    H159342   5.314   1.699  15.995 -1.5730  0.9232  0.2297
12617TIP3    H259343   5.261   1.730  16.133  0.5832  0.0857  1.2981
12618TIP3   OH259344   2.328   5.327  15.863 -0.1029  0.2413  0.0855
12618TIP3    H159345   2.272   5.320  15.785  1.5291 -0.4302 -1.0953
12618TIP3    H259346   2.335   5.237  15.895  1.8744 -0.0582 -1.0126
12619TIP3   OH259347   5.587   2.423   1.591 -0.7184  0.1790 -0.3739
12619TIP3    H159348   5.613   2.510   1.563 -0.6357  0.9788  1.9262
12619TIP3    H259349   5.667   2.385   1.628 -0.6927 -1.0034 -1.5767
12620TIP3   OH259350   3.001   1.836  10.859  0.0085 -0.6054 -0.5190
12620TIP3    H159351   2.915   1.797  10.845 -0.9541  0.9771  0.7174
12620TIP3    H259352   3.042   1.779  10.925 -0.6446 -0.5829 -0.0849
12621TIP3   OH259353   4.888   0.443   1.457  0.5996 -0.4057 -0.3795
12621TIP3    H159354   4.894   0.525   1.507  1.8998 -1.8088  1.9582
12621TIP3    H259355   4.950   0.455   1.385  2.8068 -0.1862  1.4123
12622TIP3   OH259356   0.945   4.217  16.058 -0.6602 -0.5397  0.1038
12622TIP3    H159357   0.915   4.242  15.971 -0.5371 -1.4863 -0.2225
12622TIP3    H259358   1.026   4.168  16.042 -0.7316 -0.8724  0.7397
12623TIP3   OH259359   1.641   4.475  10.990  0.5066  0.2020 -0.8609
12623TIP3    H159360   1.574   4.406  10.990  1.2328 -0.5770  1.1392
12623TIP3    H259361   1.591   4.556  10.983 -0.4719 -0.4622 -1.8413
12624TIP3   OH259362   5.465   0.788  11.993  0.3970 -0.1264  0.6105
12624TIP3    H159363   5.484   0.732  11.917  2.6004 -0.0058  0.9908
12624TIP3    H259364   5.447   0.727  12.064  1.4328 -0.3586  0.6974
12625TIP3   OH259365   1.547   2.442   1.231  0.1300 -0.1111 -0.0952
12625TIP3    H159366   1.560   2.469   1.322  2.1273 -0.0947 -0.3484
12625TIP3    H259367   1.561   2.522   1.180 -1.6141  0.0281 -0.4238
12626TIP3   OH259368   6.061   1.922  11.600  0.4984 -0.1558  0.1183
12626TIP3    H159369   6.051   1.846  11.542  0.2541 -0.3771  0.4485
12626TIP3    H259370   6.124   1.893  11.667 -2.1604 -1.3266  2.3058
12627TIP3   OH259371   2.945   6.542  12.202  0.2170 -0.2972  0.4199
12627TIP3    H159372   2.877   6.578  12.259 -0.7104 -1.3083  0.0056
12627TIP3    H259373   3.016   6.517  12.261 -0.5387 -0.9078  1.0989
12628TIP3   OH259374   3.705   0.230   6.381 -0.0015  0.6105 -0.3209
12628TIP3    H159375   3.783   0.206   6.330 -0.9487  0.0403 -1.5774
12628TIP3    H259376   3.737   0.240   6.470  1.2467 -1.2313 -0.4903
12629TIP3   OH259377   4.057   0.856  11.664 -0.4280 -0.0921 -0.3096
12629TIP3    H159378   3.982   0.870  11.723  0.9218  2.7752  0.8945
12629TIP3    H259379   4.054   0.762  11.644 -3.2902 -0.4120  1.1008
12630TIP3   OH259380   4.779   6.502   4.878  0.0388  0.2857 -0.5337
12630TIP3    H159381   4.712   6.433   4.877  1.9156 -1.8230  2.4854
12630TIP3    H259382   4.762   6.550   4.959 -0.0070  2.1740 -1.6141
12631TIP3   OH259383   1.663   5.192  13.231 -0.2007 -0.8384  0.0761
12631TIP3    H159384   1.613   5.144  13.165 -0.6792  0.3626 -0.4779
12631TIP3    H259385   1.603   5.260  13.262 -0.2099 -1.7651  2.2543
12632TIP3   OH259386   5.075   5.504  12.609  0.3526  0.1871  0.2454
12632TIP3    H159387   5.000   5.466  12.562  1.1704  0.3972 -1.2866
12632TIP3    H259388   5.152   5.462  12.570  1.0864  0.5715  1.2310
12633TIP3   OH259389   2.715   0.017  11.451 -0.6654  0.0075 -0.1879
12633TIP3    H159390   2.690   0.109  11.459 -0.1514  0.3761 -2.2819
12633TIP3    H259391   2.735   0.005  11.358 -1.4639 -2.4117 -0.1307
12634TIP3   OH259392   3.376   1.473  14.137 -0.3743 -0.5063  0.0183
12634TIP3    H159393   3.368   1.523  14.219 -0.5183 -0.6583  0.0969
12634TIP3    H259394   3.306   1.508  14.081 -2.8821 -3.0051  1.3026
12635TIP3   OH259395   4.754   0.830   2.707  0.2525 -0.0584 -0.6258
12635TIP3    H159396   4.761   0.739   2.737  0.0724  0.1198 -0.0330
12635TIP3    H259397   4.722   0.878   2.783 -1.4110  0.2098 -1.4362
12636TIP3   OH259398   3.002   1.985   1.739 -0.2447  0.3094 -0.2171
12636TIP3    H159399   2.918   1.998   1.696 -0.1225 -0.8692 -0.8408
12636TIP3    H259400   3.045   2.071   1.734 -1.7057  1.1467  0.8292
12637TIP3   OH259401   0.339   1.534  14.799 -0.4656 -0.7823 -0.4580
12637TIP3    H159402   0.350   1.626  14.823  1.2358 -1.1056  0.0937
12637TIP3    H259403   0.268   1.535  14.734 -0.7164  0.8608 -0.2118
12638TIP3   OH259404   2.128   1.371  13.260 -0.6850 -0.4681 -0.2266
12638TIP3    H159405   2.151   1.462  13.239 -2.5895  0.3517  0.9263
12638TIP3    H259406   2.032   1.369  13.252 -0.8420 -1.8879  1.5182
12639TIP3   OH259407   4.840   4.564  14.118 -0.3775 -0.3276 -0.1364
12639TIP3    H159408   4.860   4.473  14.095  2.9700  0.6500 -1.6610
12639TIP3    H259409   4.803   4.558  14.206  0.7061 -3.0983  0.2437
12640TIP3   OH259410   1.911   5.514  11.176 -0.2284  0.6908  0.8291
12640TIP3    H159411   1.962   5.482  11.102 -0.1115  1.9528  0.3509
12640TIP3    H259412   1.827   5.469  11.169 -0.0461  0.4418  0.2159
12641TIP3   OH259413   4.882   0.373  11.471  0.0603 -0.5049 -0.1794
12641TIP3    H159414   4.839   0.456  11.491  0.1408 -0.6216  0.4974
12641TIP3    H259415   4.811   0.317  11.439 -0.3978 -0.8416  1.3496
12642TIP3   OH259416   4.314   0.434  13.382  0.0701 -0.8368  0.3330
12642TIP3    H159417   4.325   0.523  13.415  2.7512 -0.4871 -1.1481
12642TIP3    H259418   4.362   0.379  13.445 -0.0009 -0.9892  0.2550
12643TIP3   OH259419   0.138   5.853  11.750 -0.2140  0.1944 -0.0475
12643TIP3    H159420   0.178   5.767  11.743 -0.1564  0.2183 -0.0083
12643TIP3    H259421   0.050   5.842  11.713  0.3659  0.5150 -1.5901
12644TIP3   OH259422   3.835   0.946  15.215  0.6978  0.2820  0.9598
12644TIP3    H159423   3.922   0.935  15.254  0.0264 -1.3918  2.1092
12644TIP3    H259424   3.775   0.950  15.290 -0.3078  0.4834  0.1696
12645TIP3   OH259425   1.004   6.054   1.311  0.3274  0.3248  0.6664
12645TIP3    H159426   0.954   5.975   1.334  0.0237  0.3284  0.0290
12645TIP3    H259427   1.034   6.088   1.396  1.0290 -0.8341  0.9031
12646TIP3   OH259428   0.790   4.728   0.604 -0.2337 -0.5151  0.2952
12646TIP3    H159429   0.724   4.778   0.653  1.6726  0.1680  2.3654
12646TIP3    H259430   0.750   4.642   0.591 -1.7081  0.0140  1.0633
12647TIP3   OH259431   4.891   1.413  13.633 -0.2960  0.2414  0.0948
12647TIP3    H159432   4.952   1.354  13.591  3.0851  2.4797  1.4303
12647TIP3    H259433   4.887   1.490  13.576 -3.2429 -0.3927 -0.7494
12648TIP3   OH259434   0.669   1.060   3.836  0.3175  0.3224  0.5085
12648TIP3    H159435   0.729   1.002   3.883 -0.1619 -0.6374 -0.0176
12648TIP3    H259436   0.726   1.118   3.785  0.8479 -1.1344 -0.6629
12649TIP3   OH259437   4.909   5.239  12.434 -0.0730 -0.4243  0.1718
12649TIP3    H159438   4.821   5.277  12.435 -0.5606 -1.3592 -1.8616
12649TIP3    H259439   4.923   5.207  12.523 -1.9668 -0.6407  0.4319
12650TIP3   OH259440   0.796   2.323  15.473 -0.0683 -0.1352  0.6347
12650TIP3    H159441   0.783   2.400  15.416  0.9096  0.6180  1.3971
12650TIP3    H259442   0.815   2.252  15.412 -0.6432  0.2978 -0.0701
12651TIP3   OH259443   6.041   3.829  17.043  0.0434 -0.5094 -0.0600
12651TIP3    H159444   6.074   3.845  16.955 -0.7544 -0.2646 -0.3227
12651TIP3    H259445   6.021   3.736  17.046  0.3136 -0.5669 -0.0524
12652TIP3   OH259446   2.502   5.873   2.605  0.4036  0.0529  0.6568
12652TIP3    H159447   2.479   5.781   2.613  0.3448 -0.1854 -1.5813
12652TIP3    H259448   2.431   5.911   2.552  2.7387  0.2458 -2.6882
12653TIP3   OH259449   1.363   1.273  15.007 -0.8972  0.5523  0.3685
12653TIP3    H159450   1.395   1.363  15.014 -2.1365  1.1407 -1.0326
12653TIP3    H259451   1.442   1.221  14.991 -0.1409  1.3502  1.3814
12654TIP3   OH259452   3.599   6.549   2.673  0.0416  0.7678  0.4446
12654TIP3    H159453   3.591   6.513   2.584 -1.1676 -0.6131  1.0784
12654TIP3    H259454   3.559   6.636   2.666 -0.1812  0.6191 -0.3356
12655TIP3   OH259455   0.365   6.818   5.772 -0.0997 -0.2222  0.7396
12655TIP3    H159456   0.402   6.734   5.747  0.4985 -0.2558  1.6712
12655TIP3    H259457   0.421   6.848   5.844 -0.9822  0.4438  1.1675
12656TIP3   OH259458   5.868   6.555   5.815  0.8166  0.4524 -0.3306
12656TIP3    H159459   5.842   6.479   5.866  2.9691  0.7514  1.3495
12656TIP3    H259460   5.804   6.560   5.744  0.9659 -3.2946 -0.8943
12657TIP3   OH259461   3.962   2.650   1.017  0.1833  0.2751 -0.1819
12657TIP3    H159462   3.938   2.727   0.965  0.5321  1.1999  0.9661
12657TIP3    H259463   3.900   2.583   0.991  0.4177  0.6626 -1.8511
12658TIP3   OH259464   0.125   5.198  16.834  0.0548 -0.2833 -0.0798
12658TIP3    H159465   0.087   5.141  16.900  2.1925 -1.8452 -0.0760
12658TIP3    H259466   0.051   5.229  16.782 -1.3229 -1.7868  0.9238
12659TIP3   OH259467   6.339   2.468  15.504  0.4446 -0.3351  0.1611
12659TIP3    H159468   6.272   2.408  15.473 -0.9263  0.4312  1.5253
12659TIP3    H259469   6.300   2.555  15.494  1.1270  0.1052  1.2132
12660TIP3   OH259470   3.357   1.192  13.993 -0.3208  0.3953  0.1491
12660TIP3    H159471   3.436   1.203  13.939  0.6109 -1.0663  1.1216
12660TIP3    H259472   3.362   1.262  14.057  0.7271 -0.2243  0.7784
12661TIP3   OH259473   0.913   0.586  14.860 -0.0366 -0.1962  0.4108
12661TIP3    H159474   0.891   0.559  14.949 -0.4627  1.7369  0.9392
12661TIP3    H259475   0.832   0.625  14.826  0.4033 -0.0318 -0.4768
12662TIP3   OH259476   4.870   2.640   5.175  0.3745 -0.3907 -0.6803
12662TIP3    H159477   4.795   2.595   5.214  0.0460  0.2319 -0.5777
12662TIP3    H259478   4.846   2.652   5.083 -0.0485  0.5979 -0.4556
12663TIP3   OH259479   3.130   6.303   2.690 -0.4189 -0.0704  0.1792
12663TIP3    H159480   3.063   6.362   2.726 -0.5040 -0.7931  1.2691
12663TIP3    H259481   3.185   6.281   2.766 -1.1698 -2.4135  0.0947
12664TIP3   OH259482   3.731   0.270   3.265 -0.3897  0.2133  0.0157
12664TIP3    H159483   3.673   0.227   3.328 -0.1399  0.2561  0.2791
12664TIP3    H259484   3.798   0.204   3.246 -0.0886  0.4293  0.3073
12665TIP3   OH259485   1.530   3.691  14.778 -0.1491  1.0147  0.6225
12665TIP3    H159486   1.504   3.764  14.722  2.0723  0.2739 -1.5979
12665TIP3    H259487   1.448   3.646  14.799 -1.4266  3.3809  1.0161
12666TIP3   OH259488   2.249   3.802   3.704  0.1757  0.0828  0.1825
12666TIP3    H159489   2.243   3.892   3.736 -0.7253 -0.1623  0.7518
12666TIP3    H259490   2.340   3.792   3.677  0.2303  1.2406 -0.1199
12667TIP3   OH259491   0.232   1.188   1.335 -0.1462 -0.4401 -0.4452
12667TIP3    H159492   0.203   1.101   1.362  2.4464 -1.0871  0.5825
12667TIP3    H259493   0.218   1.242   1.413  1.1882 -0.7418  0.0350
12668TIP3   OH259494   5.660   2.602  16.671 -0.1693  0.0865  0.6418
12668TIP3    H159495   5.696   2.619  16.584 -2.6306 -2.4409 -1.0570
12668TIP3    H259496   5.580   2.655  16.675  0.4615  0.9901  1.8526
12669TIP3   OH259497   5.880   0.956   0.405  0.3774  0.0275 -0.0489
12669TIP3    H159498   5.831   1.038   0.412  2.1345  1.1557 -0.3713
12669TIP3    H259499   5.823   0.899   0.352 -0.0669  1.7173 -1.4977
12670TIP3   OH259500   0.899   6.280  14.219  0.0290 -0.0760  1.1867
12670TIP3    H159501   0.975   6.221  14.223 -0.5545 -0.9049  0.3994
12670TIP3    H259502   0.825   6.226  14.247 -0.4544  0.3905  0.8285
12671TIP3   OH259503   2.024   6.779  16.744  0.5219 -0.3501  0.2293
12671TIP3    H159504   1.995   6.788  16.834  1.2341  0.3682  0.3976
12671TIP3    H259505   2.073   6.859  16.726 -1.3849  0.5293 -1.4724
12672TIP3   OH259506   4.390   6.027   1.335  0.2144 -0.7781  0.1865
12672TIP3    H159507   4.477   6.033   1.296  0.8198 -0.1050  1.5714
12672TIP3    H259508   4.347   6.110   1.311  0.7370 -0.1786  1.2321
12673TIP3   OH259509   1.216   1.583   1.113  0.1769 -0.6526 -0.0337
12673TIP3    H159510   1.259   1.551   1.034 -0.9857 -0.8908 -0.5855
12673TIP3    H259511   1.142   1.524   1.126 -0.4595  0.2230  0.4318
12674TIP3   OH259512   5.249   1.191  16.345 -0.0341  0.6520 -0.6572
12674TIP3    H159513   5.292   1.122  16.397 -1.0669 -0.9656 -1.8513
12674TIP3    H259514   5.312   1.263  16.345  1.3515 -0.4903  0.1788
12675TIP3   OH259515   1.654   1.488   3.619  0.2471  0.4606 -0.4745
12675TIP3    H159516   1.637   1.582   3.623  2.5906  0.9020  1.1929
12675TIP3    H259517   1.716   1.471   3.690 -0.2100 -2.3916 -0.6168
12676TIP3   OH259518   1.714   1.925   2.271  0.4815 -0.1511 -0.5450
12676TIP3    H159519   1.716   1.839   2.229  0.1054 -1.0685  1.2427
12676TIP3    H259520   1.796   1.930   2.320  0.1311  0.1754  0.0163
12677TIP3   OH259521   1.647   3.738  14.448  0.9833  0.7749 -0.6810
12677TIP3    H159522   1.666   3.831  14.464 -0.2807  1.3195 -2.1193
12677TIP3    H259523   1.692   3.692  14.519  0.6295  2.5649  0.7872
12678TIP3   OH259524   1.685   1.671  16.114  0.0882  0.7048  0.0660
12678TIP3    H159525   1.658   1.581  16.095  0.9320  0.5470 -0.3997
12678TIP3    H259526   1.755   1.662  16.179  0.2164  1.0275 -0.0278
12679TIP3   OH259527   1.357   2.432   5.172  0.0624  0.0980  0.3703
12679TIP3    H159528   1.280   2.459   5.223 -1.2296 -0.0842 -1.4108
12679TIP3    H259529   1.371   2.341   5.198  0.1167  0.3370  1.2177
12680TIP3   OH259530   4.062   1.142   0.342 -0.4426  0.1923  0.1581
12680TIP3    H159531   4.124   1.187   0.399  0.2837 -2.8218  1.9803
12680TIP3    H259532   4.117   1.095   0.279 -1.0862  0.5973 -0.7248
12681TIP3   OH259533   1.247   2.783  12.004 -0.6260  0.1668 -0.6977
12681TIP3    H159534   1.269   2.701  11.958 -0.3406 -0.7858  1.0589
12681TIP3    H259535   1.184   2.826  11.945 -0.5164 -1.1349 -1.8360
12682TIP3   OH259536   1.452   4.698   4.211  0.1819  0.0706  0.0145
12682TIP3    H159537   1.400   4.712   4.290  0.4063 -0.7952  0.3222
12682TIP3    H259538   1.537   4.736   4.230  0.0444  0.4045 -0.0373
12683TIP3   OH259539   5.046   2.396   4.142  0.0546 -0.0979 -1.0016
12683TIP3    H159540   5.099   2.348   4.079  0.6929  0.0379 -0.5833
12683TIP3    H259541   5.092   2.385   4.225 -0.8842 -0.4456 -0.5155
12684TIP3   OH259542   5.412   0.579   5.567 -0.2628 -0.1986 -0.3555
12684TIP3    H159543   5.361   0.509   5.525 -1.4071  0.7497 -0.5905
12684TIP3    H259544   5.366   0.659   5.545 -1.2519  0.3623  3.0804
12685TIP3   OH259545   4.572   5.251  15.470  0.1440 -0.3912 -0.2813
12685TIP3    H159546   4.498   5.190  15.472  0.8958 -1.3161  0.3994
12685TIP3    H259547   4.623   5.225  15.393 -0.0984  0.0730 -0.5999
12686TIP3   OH259548   5.446   4.876  15.602  0.1856  0.1740 -0.6683
12686TIP3    H159549   5.441   4.944  15.535 -0.9398 -2.9297 -4.0890
12686TIP3    H259550   5.355   4.847  15.613  0.6533 -0.9331  0.4810
12687TIP3   OH259551   0.713   3.848   5.470 -0.1066 -0.0200  0.3803
12687TIP3    H159552   0.732   3.764   5.512 -0.2985 -1.1882 -1.7438
12687TIP3    H259553   0.779   3.908   5.506  0.4653 -1.2396  1.4351
12688TIP3   OH259554   1.106   4.018   4.749  0.2118  0.1333  0.6727
12688TIP3    H159555   1.081   3.942   4.801 -0.4969 -0.0915  0.0167
12688TIP3    H259556   1.057   4.090   4.788 -3.1482 -0.6059 -1.7545
12689TIP3   OH259557   1.827   6.239  16.040 -0.4558  0.2642 -0.2119
12689TIP3    H159558   1.855   6.151  16.066 -0.2253 -0.2384 -1.9994
12689TIP3    H259559   1.799   6.229  15.949 -1.8003  1.7743 -0.0039
12690TIP3   OH259560   1.894   5.204  17.104  0.0788  0.0447  0.5281
12690TIP3    H159561   1.811   5.243  17.078  0.3641  0.2172 -0.1467
12690TIP3    H259562   1.954   5.278  17.111  1.2503 -0.3936 -3.1117
12691TIP3   OH259563   4.784   5.504  12.465  0.1549 -0.1678 -0.0014
12691TIP3    H159564   4.724   5.523  12.393  1.1578  0.1442 -0.7852
12691TIP3    H259565   4.730   5.461  12.531 -0.8766 -0.0823 -0.7648
12692TIP3   OH259566   6.777   0.274   5.095 -1.0450 -0.6346  0.2297
12692TIP3    H159567   6.858   0.224   5.100 -1.4541 -1.2147  1.3638
12692TIP3    H259568   6.805   0.364   5.076 -0.2556 -1.1282 -1.0724
12693TIP3   OH259569   2.129   6.782   0.352 -0.0785  0.0394 -0.1026
12693TIP3    H159570   2.095   6.707   0.302 -0.8400  1.0042 -1.0957
12693TIP3    H259571   2.096   6.769   0.441  0.5651 -1.2607 -0.0276
12694TIP3   OH259572   1.321   3.887   4.139 -0.3406  0.1220  0.2605
12694TIP3    H159573   1.388   3.894   4.206 -0.1940 -0.5120  0.1885
12694TIP3    H259574   1.312   3.793   4.123 -0.3255  0.2583 -0.6472
12695TIP3   OH259575   6.332   3.751  14.312  0.3153  0.3147 -0.2814
12695TIP3    H159576   6.309   3.768  14.221  0.8805 -1.8348 -0.8831
12695TIP3    H259577   6.423   3.778  14.320  0.4989 -0.1967 -0.5860
12696TIP3   OH259578   5.610   2.682   0.999 -0.3646  0.3188 -0.3308
12696TIP3    H159579   5.664   2.741   1.051 -1.0248  0.2633  0.4313
12696TIP3    H259580   5.670   2.612   0.972  0.0558  0.5117  0.0926
12697TIP3   OH259581   0.007   6.747   6.378  0.6016  0.0282 -0.3525
12697TIP3    H159582   0.057   6.765   6.457 -0.7866  1.0871  0.3328
12697TIP3    H259583  -0.025   6.657   6.388 -2.5613  1.2408  2.1034
12698TIP3   OH259584   4.588   3.808   4.268 -0.4372  0.5356 -0.6336
12698TIP3    H159585   4.580   3.761   4.184  0.6072 -0.0752 -0.4238
12698TIP3    H259586   4.506   3.791   4.313  0.4160 -2.4797  0.0796
12699TIP3   OH259587   4.099   3.742   2.852  0.3420 -0.2289  0.3481
12699TIP3    H159588   4.046   3.796   2.910  2.0437  3.0514 -0.8996
12699TIP3    H259589   4.140   3.677   2.909  1.1990  2.2499  2.7286
12700TIP3   OH259590   6.588   3.691   3.580 -0.8581  0.1866  0.5136
12700TIP3    H159591   6.575   3.619   3.518  1.6226 -0.2213  0.3920
12700TIP3    H259592   6.508   3.744   3.571 -0.6988  0.0828 -2.9185
12701TIP3   OH259593   2.470   4.698  17.065 -0.2174  0.2361  0.9773
12701TIP3    H159594   2.563   4.713  17.078 -0.3019  0.2000  1.6749
12701TIP3    H259595   2.445   4.638  17.136 -0.5681 -0.5383  0.2235
12702TIP3   OH259596   1.859   5.913   2.727 -0.3906  0.2101  0.0247
12702TIP3    H159597   1.865   5.953   2.813  0.8592 -2.7644  1.4627
12702TIP3    H259598   1.809   5.832   2.741  2.0207 -1.6841 -1.4079
12703TIP3   OH259599   1.487   0.959  15.016 -0.4241  0.4152 -0.8456
12703TIP3    H159600   1.535   0.933  15.095 -2.5832  1.5149  0.9533
12703TIP3    H259601   1.556   0.977  14.951  1.4244 -0.9234  0.6067
12704TIP3   OH259602   4.828   5.144  14.335 -0.0330 -0.6774 -0.1127
12704TIP3    H159603   4.911   5.133  14.289 -1.2936 -1.2231 -2.4243
12704TIP3    H259604   4.814   5.238  14.337 -1.2589 -0.6249 -3.6183
12705TIP3   OH259605   3.811   3.338  17.020 -0.5154 -0.2689  0.5657
12705TIP3    H159606   3.825   3.280  16.945 -0.3359 -1.5655  1.5556
12705TIP3    H259607   3.785   3.421  16.982  0.2687 -0.6876 -0.9550
12706TIP3   OH259608   6.729   4.849  16.282  0.4502 -0.2108 -0.0540
12706TIP3    H159609   6.711   4.756  16.263 -0.9640 -0.2229  1.1593
12706TIP3    H259610   6.661   4.896  16.235 -1.0771 -0.0545  2.1600
12707TIP3   OH259611   6.248   6.831  11.941  0.2856  0.1426 -0.0416
12707TIP3    H159612   6.272   6.901  12.002  1.2502  1.6696 -2.0530
12707TIP3    H259613   6.330   6.802  11.903 -0.4191  0.5320 -1.9440
12708TIP3   OH259614   0.497   0.363   2.350 -0.1345 -0.2630  0.1802
12708TIP3    H159615   0.436   0.373   2.277 -1.1231 -0.4267  0.9498
12708TIP3    H259616   0.529   0.451   2.368 -1.5852  0.1485  0.9386
12709TIP3   OH259617   1.814   1.889  16.002 -0.4573  0.0292 -0.2022
12709TIP3    H159618   1.895   1.895  16.054 -1.4401  0.2651  1.3559
12709TIP3    H259619   1.755   1.836  16.055 -1.5274  0.3230 -1.0676
12710TIP3   OH259620   1.401   0.303   3.611  0.1713  0.1416  0.1208
12710TIP3    H159621   1.394   0.247   3.688  0.7530 -0.9571 -0.6075
12710TIP3    H259622   1.493   0.298   3.585 -0.4974 -1.7614 -2.2501
12711TIP3   OH259623   0.112   1.383  16.239  0.1402  0.3912 -0.1536
12711TIP3    H159624   0.056   1.440  16.293  0.2852  0.8723 -0.5100
12711TIP3    H259625   0.195   1.430  16.232  0.6528 -0.3677  0.4648
12712TIP3   OH259626   6.326   3.920  12.491  0.1775  0.3627 -0.3718
12712TIP3    H159627   6.278   4.002  12.496 -1.6106 -0.6527  0.0537
12712TIP3    H259628   6.273   3.858  12.542  0.8384 -1.3354 -1.6326
12713TIP3   OH259629   5.167   4.934  11.860 -0.1317 -0.1743 -0.0419
12713TIP3    H159630   5.180   5.024  11.829 -1.7583  0.2893  0.4630
12713TIP3    H259631   5.072   4.922  11.857 -0.4623 -0.1812  4.2515
12714TIP3   OH259632   1.253   6.814  14.841  0.2754  0.4645  0.3082
12714TIP3    H159633   1.246   6.807  14.936 -0.9449 -0.3106  0.1826
12714TIP3    H259634   1.170   6.780  14.808  1.3098 -0.8311 -1.1059
12715TIP3   OH259635   1.989   4.258   2.479 -0.2256  0.1289  0.0061
12715TIP3    H159636   1.983   4.351   2.457  0.1452  0.3246  0.6816
12715TIP3    H259637   1.941   4.213   2.409  1.3148  0.6666 -1.4677
12716TIP3   OH259638   3.145   4.062   6.138  0.8134 -0.6350 -0.3780
12716TIP3    H159639   3.064   4.097   6.101 -0.4826 -0.5736  2.2642
12716TIP3    H259640   3.155   3.976   6.097 -2.9316 -2.5015  1.9784
12717TIP3   OH259641   4.571   4.000   2.593 -0.2828  0.1753  0.0172
12717TIP3    H159642   4.567   4.078   2.538 -1.9579  0.2168  0.1619
12717TIP3    H259643   4.580   3.927   2.532  0.4074  0.3970 -0.1582
12718TIP3   OH259644   3.796   4.929   0.824 -0.1137  0.4695  0.1467
12718TIP3    H159645   3.804   5.008   0.770 -2.7791  0.8980  0.2380
12718TIP3    H259646   3.754   4.959   0.905 -0.3582 -0.8906  0.5527
12719TIP3   OH259647   6.583   1.463  14.660  0.5521 -0.0952  0.3514
12719TIP3    H159648   6.580   1.520  14.583  2.3394  1.0229  1.0332
12719TIP3    H259649   6.642   1.508  14.721  0.1088 -1.5148  1.9185
12720TIP3   OH259650   5.260   2.436   1.262  0.2751 -0.1691 -0.1840
12720TIP3    H159651   5.206   2.493   1.208  0.2258 -1.2351 -1.3197
12720TIP3    H259652   5.348   2.472   1.256  0.3822 -0.5981 -1.4957
12721TIP3   OH259653   4.207   0.342   6.113 -0.0683 -0.0659 -0.4402
12721TIP3    H159654   4.248   0.388   6.186  0.0871 -0.8205 -0.0407
12721TIP3    H259655   4.159   0.410   6.065  0.3236  0.5378  0.0163
12722TIP3   OH259656   6.279   0.770  12.129 -0.4526  0.2292 -0.7156
12722TIP3    H159657   6.209   0.801  12.072 -0.6612 -0.6988 -0.9801
12722TIP3    H259658   6.312   0.849  12.172 -0.2670  0.9571 -2.1392
12723TIP3   OH259659   2.538   6.429   1.266  0.2847  0.0577 -0.1533
12723TIP3    H159660   2.496   6.372   1.202  0.2401  1.4155 -1.4023
12723TIP3    H259661   2.562   6.507   1.216  2.4850  0.1697  0.9483
12724TIP3   OH259662   4.160   4.074  14.489  0.2863  0.3049 -0.1605
12724TIP3    H159663   4.161   4.120  14.405  1.4278 -0.3541 -0.5391
12724TIP3    H259664   4.229   4.008  14.481  0.4497  0.2496  1.3117
12725TIP3   OH259665   1.604   5.172  11.668  0.3735 -0.0887 -0.4254
12725TIP3    H159666   1.613   5.159  11.762 -0.1248 -1.8334 -0.5765
12725TIP3    H259667   1.589   5.266  11.658 -0.3122  0.0213  1.2889
12726TIP3   OH259668   1.304   4.064  13.221  0.2171  0.2036  0.3009
12726TIP3    H159669   1.258   4.142  13.188  0.8070  1.3268  1.9711
12726TIP3    H259670   1.275   4.057  13.312 -2.9589 -3.9652 -0.7372
12727TIP3   OH259671   3.890   5.156   5.339  0.5489 -0.3655 -0.4063
12727TIP3    H159672   3.925   5.104   5.266  0.1042 -0.2641 -0.6952
12727TIP3    H259673   3.900   5.099   5.415  0.6540 -0.6293 -0.6128
12728TIP3   OH259674   1.996   2.437  15.986 -0.0881  0.1965  0.3337
12728TIP3    H159675   2.091   2.450  15.978 -0.1417  1.3131  1.2722
12728TIP3    H259676   1.958   2.521  15.963 -0.7198  0.4669  2.1976
12729TIP3   OH259677   0.594   4.122  13.999 -0.1126  0.5811 -0.1093
12729TIP3    H159678   0.646   4.188  14.044 -0.9921  1.3213 -0.1535
12729TIP3    H259679   0.526   4.098  14.063  0.3958 -0.5383  0.0367
12730TIP3   OH259680   5.842   2.121   5.833 -0.0300  0.4335 -0.0320
12730TIP3    H159681   5.871   2.052   5.774 -0.9666 -1.7162  1.8304
12730TIP3    H259682   5.919   2.142   5.885  0.0934  0.2471 -0.1383
12731TIP3   OH259683   6.357   2.207   5.234  0.3487  0.2543 -0.1838
12731TIP3    H159684   6.364   2.274   5.167 -2.1478  2.3308  1.4502
12731TIP3    H259685   6.308   2.136   5.192  2.3616 -0.3122 -1.7014
12732TIP3   OH259686   4.514   3.551  11.574  0.2560 -0.6226 -0.5651
12732TIP3    H159687   4.583   3.485  11.579  1.1600  0.3619  0.7472
12732TIP3    H259688   4.517   3.595  11.659 -1.5410 -0.0951 -0.7330
12733TIP3   OH259689   6.278   1.107  10.950  0.1891 -0.6850 -0.1907
12733TIP3    H159690   6.272   1.191  10.995 -0.3816 -0.8942  0.1335
12733TIP3    H259691   6.278   1.130  10.857  1.5132 -0.2424 -0.1089
12734TIP3   OH259692   5.451   0.795   2.053 -0.2539  0.0233 -0.1293
12734TIP3    H159693   5.458   0.886   2.026 -0.7224 -0.3985 -1.7628
12734TIP3    H259694   5.357   0.782   2.071  0.0130  0.2362  1.5861
12735TIP3   OH259695   1.687   0.127   6.113 -0.2815  0.9449 -0.3144
12735TIP3    H159696   1.662   0.068   6.185  0.3915 -0.2738 -1.0346
12735TIP3    H259697   1.761   0.176   6.147 -1.1996  1.8337  0.4957
12736TIP3   OH259698   2.815   5.532   5.181  0.2677  0.0408 -0.1454
12736TIP3    H159699   2.908   5.510   5.193  0.8329  1.5127 -1.4259
12736TIP3    H259700   2.815   5.626   5.161 -1.5714  0.1950  0.4245
12737TIP3   OH259701   6.386   1.353  12.240 -0.1406 -0.4772  0.0937
12737TIP3    H159702   6.425   1.382  12.157  0.7236  1.2166  1.0319
12737TIP3    H259703   6.323   1.422  12.261  0.0398 -0.6088  1.1046
12738TIP3   OH259704   6.398   6.053  11.592  0.2798  0.5562 -0.3903
12738TIP3    H159705   6.444   6.136  11.584  1.7253 -0.1095  0.5126
12738TIP3    H259706   6.346   6.062  11.672  2.6360 -0.3317  1.3517
12739TIP3   OH259707   5.051   6.636   2.773  0.4273 -0.1572 -0.3935
12739TIP3    H159708   4.978   6.575   2.760  0.6945 -0.2475 -1.6457
12739TIP3    H259709   5.129   6.587   2.746  0.7999  0.3354 -0.2341
12740TIP3   OH259710   4.949   3.193  16.093  0.5383  0.2508 -0.8973
12740TIP3    H159711   4.977   3.102  16.087 -0.0400  0.0741 -1.0266
12740TIP3    H259712   4.878   3.201  16.028 -0.0618  0.5424 -0.2239
12741TIP3   OH259713   0.069   4.055  16.259  0.0839 -0.7210 -0.0330
12741TIP3    H159714   0.040   4.006  16.336 -0.3280 -0.5694 -0.0892
12741TIP3    H259715   0.051   4.146  16.280  1.2241 -0.5360  0.2390
12742TIP3   OH259716   3.614   3.249   3.539  0.3569 -0.2647 -0.3484
12742TIP3    H159717   3.706   3.275   3.533 -0.0270  1.1826 -0.3902
12742TIP3    H259718   3.614   3.176   3.601  1.3477  0.7846  0.9438
12743TIP3   OH259719   5.386   6.013   1.089 -0.4205  0.2454 -0.2453
12743TIP3    H159720   5.480   6.025   1.076 -0.2796 -2.5087 -2.9450
12743TIP3    H259721   5.380   5.934   1.142 -1.2639  0.7397  0.4163
12744TIP3   OH259722   5.118   0.112  16.628  0.6567 -0.2435 -0.3591
12744TIP3    H159723   5.202   0.120  16.675  1.2833  1.7524 -1.7002
12744TIP3    H259724   5.057   0.164  16.679  0.3027 -1.3283  0.3682
12745TIP3   OH259725   2.793   5.065  16.178 -0.8734 -0.0413  0.5691
12745TIP3    H159726   2.809   5.080  16.085 -1.2079 -1.6029  0.2367
12745TIP3    H259727   2.877   5.086  16.220  0.2170 -2.0654 -0.4417
12746TIP3   OH259728   4.477   2.328  11.953  0.0010  0.0645  0.7999
12746TIP3    H159729   4.437   2.284  12.028  0.3164 -0.0172  0.9251
12746TIP3    H259730   4.556   2.276  11.934  0.5177  0.7148  1.1054
12747TIP3   OH259731   0.342   1.924  12.002 -0.3221  0.0456 -0.3044
12747TIP3    H159732   0.347   1.977  11.922 -0.4701 -0.2322 -0.5010
12747TIP3    H259733   0.249   1.899  12.008 -0.3791  0.3501  0.1415
12748TIP3   OH259734   4.039   4.154  15.705  0.1722  0.3672  0.6618
12748TIP3    H159735   4.112   4.144  15.766 -0.9464 -0.4942  1.9187
12748TIP3    H259736   3.998   4.237  15.729  1.2362  1.3138 -0.6470
12749TIP3   OH259737   3.402   6.796  12.896  0.0905  0.5209 -0.4778
12749TIP3    H159738   3.483   6.798  12.947 -0.9158 -0.9881  1.3021
12749TIP3    H259739   3.431   6.792  12.805  1.9765  1.4254  0.0230
12750TIP3   OH259740   6.791   6.705   0.528 -0.4105  0.0079 -0.0956
12750TIP3    H159741   6.763   6.792   0.558 -1.8714 -0.0300 -1.2501
12750TIP3    H259742   6.710   6.655   0.521 -0.2152 -0.0391 -3.8623
12751TIP3   OH259743   4.071   5.762  10.505 -0.5133  0.0829 -0.0528
12751TIP3    H159744   4.072   5.666  10.506 -0.4036  0.0819  1.0823
12751TIP3    H259745   4.138   5.787  10.568  1.0854  0.9519 -2.0195
12752TIP3   OH259746   2.180   0.850   6.071 -0.7680  0.3711  0.4843
12752TIP3    H159747   2.176   0.793   6.147 -0.1027 -1.1427 -0.5530
12752TIP3    H259748   2.156   0.793   5.997  1.1276  1.0761 -0.7593
12753TIP3   OH259749   3.448   3.561   1.992 -0.4900  0.4108  0.3065
12753TIP3    H159750   3.357   3.536   1.981 -0.3379 -0.0861  0.1584
12753TIP3    H259751   3.446   3.628   2.061 -1.1231  1.4745 -0.7037
12754TIP3   OH259752   0.894   1.140   5.845 -0.2386 -0.3725 -0.1727
12754TIP3    H159753   0.850   1.063   5.808 -0.2673 -0.8650  0.8721
12754TIP3    H259754   0.986   1.116   5.849  0.0699  0.3806 -1.6373
12755TIP3   OH259755   5.235   5.437  13.023 -0.2568  0.7231  0.0818
12755TIP3    H159756   5.295   5.419  12.951 -0.7519 -3.2082  0.4217
12755TIP3    H259757   5.288   5.486  13.086  1.2966  1.0370 -1.3891
12756TIP3   OH259758   3.868   1.087   1.915  0.3615  0.6979 -0.2964
12756TIP3    H159759   3.811   1.042   1.853  2.0237  1.4689 -2.4865
12756TIP3    H259760   3.809   1.141   1.967 -1.2436 -1.1283 -0.0805
12757TIP3   OH259761   5.003   0.346  15.254  0.3638  0.2300 -0.1079
12757TIP3    H159762   5.077   0.375  15.201  1.1960 -2.6638 -0.7231
12757TIP3    H259763   5.033   0.357  15.345  1.8359 -1.3406 -0.3473
12758TIP3   OH259764   4.633   0.609   4.466  0.4150 -0.4721  0.4895
12758TIP3    H159765   4.608   0.649   4.383 -0.6412 -1.0332  0.5146
12758TIP3    H259766   4.603   0.518   4.459  0.2113 -0.5034  1.5185
12759TIP3   OH259767   6.318   2.486  15.963  0.5559  0.1529 -0.7359
12759TIP3    H159768   6.410   2.466  15.980 -0.0238 -2.0334  0.1867
12759TIP3    H259769   6.272   2.451  16.038 -0.8860  3.6432  0.2175
12760TIP3   OH259770   2.227   5.936   3.941  0.3277  0.7894  0.3245
12760TIP3    H159771   2.182   5.969   4.019  0.7066 -1.7612  1.7247
12760TIP3    H259772   2.157   5.904   3.884  0.1623  0.3510  0.7666
12761TIP3   OH259773   2.536   5.691   5.928 -0.0001 -0.1446  0.8134
12761TIP3    H159774   2.585   5.620   5.969  0.1974  0.0701  0.9538
12761TIP3    H259775   2.522   5.755   5.998 -1.3567 -0.6417  1.0291
12762TIP3   OH259776   1.482   4.897   6.593  0.2422 -0.1812  0.6561
12762TIP3    H159777   1.446   4.947   6.666 -0.3644 -2.8471  2.2859
12762TIP3    H259778   1.407   4.883   6.535 -0.5069 -2.1283  1.9782
12763TIP3   OH259779   1.676   2.540  12.463  0.1174  0.0043  0.3989
12763TIP3    H159780   1.586   2.547  12.496  0.2873  0.4665  0.7698
12763TIP3    H259781   1.684   2.449  12.434 -0.0773 -0.3763  1.5096
12764TIP3   OH259782   1.819   4.735  12.745  0.0641 -0.2378 -0.1113
12764TIP3    H159783   1.908   4.726  12.778 -0.5737  1.7685  2.5434
12764TIP3    H259784   1.769   4.668  12.791 -0.0714 -0.3724 -0.4514
12765TIP3   OH259785   6.395   0.862   0.574 -0.0171  0.0711 -0.2860
12765TIP3    H159786   6.313   0.860   0.525  0.2286 -1.5126 -0.6745
12765TIP3    H259787   6.389   0.789   0.635  1.5046 -0.7283 -1.0336
12766TIP3   OH259788   2.036   4.770  11.088 -0.4173 -0.4516 -0.1872
12766TIP3    H159789   2.027   4.681  11.122  1.0899 -0.3475  0.5456
12766TIP3    H259790   2.123   4.798  11.115 -0.4882  0.9082 -1.2337
12767TIP3   OH259791   1.182   2.790  16.050 -0.3301 -0.2193  0.2546
12767TIP3    H159792   1.228   2.725  15.998 -0.9946 -0.5144  0.0274
12767TIP3    H259793   1.164   2.746  16.133  1.0733  0.3777  0.9005
12768TIP3   OH259794   4.232   2.012  17.085  0.1927 -0.2238 -0.5515
12768TIP3    H159795   4.263   2.099  17.059 -0.2736 -0.5224 -2.3064
12768TIP3    H259796   4.309   1.967  17.118  1.0084  0.0700 -1.9534
12769TIP3   OH259797   5.149   3.778   4.992 -0.2795  0.0698 -0.1842
12769TIP3    H159798   5.144   3.683   4.984  0.1148  0.0124  0.2628
12769TIP3    H259799   5.212   3.794   5.062 -2.2706  0.6083  1.6190
12770TIP3   OH259800   6.005   6.489  15.199 -0.2865  0.2526  0.2674
12770TIP3    H159801   5.955   6.537  15.265 -1.7048 -0.1268 -0.4897
12770TIP3    H259802   6.014   6.401  15.236 -2.0494 -0.2852 -0.4561
12771TIP3   OH259803   2.671   0.443   0.301 -0.5561 -0.2456 -0.2130
12771TIP3    H159804   2.611   0.466   0.231  0.3358 -0.2252 -0.9943
12771TIP3    H259805   2.692   0.527   0.343  0.3163 -0.0077 -1.0976
12772TIP3   OH259806   2.882   0.811   2.431 -0.5242  0.5279 -0.4534
12772TIP3    H159807   2.933   0.766   2.498 -1.3681 -1.7343 -1.2404
12772TIP3    H259808   2.851   0.891   2.475  1.8032  0.8795  0.6984
12773TIP3   OH259809   1.531   5.371  10.607  0.3961  0.2243 -0.3219
12773TIP3    H159810   1.512   5.462  10.632 -0.6357 -0.0631 -0.0299
12773TIP3    H259811   1.627   5.364  10.615  0.2704  0.5329  2.2734
12774TIP3   OH259812   0.267   2.819   5.324 -0.1596  0.2152  0.2244
12774TIP3    H159813   0.295   2.805   5.233 -0.4867 -0.6249  0.2396
12774TIP3    H259814   0.338   2.782   5.377 -1.0525 -1.5590  0.2668
12775TIP3   OH259815   3.954   0.807  14.386  0.3748 -0.2274  0.4059
12775TIP3    H159816   4.002   0.890  14.392  0.5403  0.1732 -3.4857
12775TIP3    H259817   4.021   0.739  14.393  1.3866  0.2744 -2.6905
12776TIP3   OH259818   0.411   4.194   2.343  0.0267  0.2550 -0.0074
12776TIP3    H159819   0.344   4.181   2.275  1.8740 -0.1338 -1.8730
12776TIP3    H259820   0.437   4.286   2.333  0.6017  0.0835 -0.1444
12777TIP3   OH259821   4.062   6.121  12.796 -0.2136 -0.3329 -0.1264
12777TIP3    H159822   4.010   6.074  12.730 -1.0362  0.7322 -0.2628
12777TIP3    H259823   4.012   6.200  12.814  0.3908 -0.2338  1.2299
12778TIP3   OH259824   2.328   6.190  15.804  0.0241  0.6085  0.2591
12778TIP3    H159825   2.232   6.188  15.808 -0.0437  1.0784 -0.7014
12778TIP3    H259826   2.357   6.154  15.888 -0.9867  1.9629  1.2204
12779TIP3   OH259827   1.679   1.734   4.432  0.0766  0.0734  0.8900
12779TIP3    H159828   1.616   1.767   4.368  0.9274  2.2592  1.0870
12779TIP3    H259829   1.690   1.807   4.494  3.2392  0.0356  0.5225
12780TIP3   OH259830   3.445   3.725   4.602  0.5337 -0.6468  0.4862
12780TIP3    H159831   3.395   3.793   4.558  1.3052 -0.2891  0.1378
12780TIP3    H259832   3.419   3.731   4.694  0.8035  0.3157  0.5125
12781TIP3   OH259833   5.952   5.482  16.611 -0.1977  0.4217  0.8777
12781TIP3    H159834   5.970   5.534  16.533 -0.7221 -2.1470 -1.0941
12781TIP3    H259835   5.861   5.454  16.601  0.6109 -2.5002  0.6954
12782TIP3   OH259836   2.818   2.413   3.751  1.1552  0.8450  0.0703
12782TIP3    H159837   2.739   2.463   3.730  1.5181  1.7058  0.6845
12782TIP3    H259838   2.837   2.365   3.671 -0.2491  0.2549  0.0635
12783TIP3   OH259839   6.249   1.395   2.803  0.3545  0.0045 -0.0636
12783TIP3    H159840   6.168   1.353   2.776  0.1292  1.9522 -2.8415
12783TIP3    H259841   6.223   1.457   2.872 -1.1414  2.4121 -2.5850
12784TIP3   OH259842   1.331   2.975  15.872  0.1134 -0.5827 -0.2174
12784TIP3    H159843   1.284   2.926  15.941  0.4737  0.0282  0.4738
12784TIP3    H259844   1.294   3.063  15.877  0.7454 -0.3173 -0.2388
12785TIP3   OH259845   6.608   2.868   1.696  0.2238  0.5653  0.0609
12785TIP3    H159846   6.672   2.873   1.767 -1.2273  2.2180  1.3420
12785TIP3    H259847   6.572   2.956   1.689 -1.2403 -0.0751 -1.2742
12786TIP3   OH259848   0.272   4.627   2.440 -0.2793 -0.0286 -0.2800
12786TIP3    H159849   0.177   4.631   2.451 -0.2208  0.8784 -0.0442
12786TIP3    H259850   0.297   4.543   2.480 -0.9040  0.0244  0.2395
12787TIP3   OH259851   3.687   5.914   1.102  0.8267 -0.6672 -0.1670
12787TIP3    H159852   3.727   5.988   1.056  2.2221 -0.7653  0.8623
12787TIP3    H259853   3.688   5.939   1.194 -0.6913 -1.0692 -0.0078
12788TIP3   OH259854   5.326   3.818  13.686  0.2569 -0.2198 -0.3773
12788TIP3    H159855   5.356   3.733  13.718  0.4688  0.3612  1.0368
12788TIP3    H259856   5.385   3.838  13.613  0.5773 -1.0166 -0.3493
12789TIP3   OH259857   2.919   4.883  14.927 -0.2462 -0.1142 -0.5624
12789TIP3    H159858   2.929   4.896  15.021  1.3533 -0.4861 -0.6652
12789TIP3    H259859   2.997   4.836  14.900  0.4221  1.9138 -2.4493
12790TIP3   OH259860   4.954   5.463   1.866 -0.5764 -0.1440  0.8371
12790TIP3    H159861   4.919   5.378   1.893  0.9039 -1.0177  0.1002
12790TIP3    H259862   4.905   5.484   1.786 -1.1368 -0.1621  1.1678
12791TIP3   OH259863   3.813   4.460  16.434 -0.1901  0.1366  0.4784
12791TIP3    H159864   3.746   4.479  16.499  0.6980 -0.1935  1.5334
12791TIP3    H259865   3.874   4.534  16.440  0.8336 -0.7228  1.3291
12792TIP3   OH259866   4.293   6.109   4.501  0.1402  0.8000  0.0800
12792TIP3    H159867   4.330   6.163   4.570  3.2655 -1.0796  0.0377
12792TIP3    H259868   4.290   6.020   4.538  1.6004 -0.2031 -2.0040
12793TIP3   OH259869   2.269   4.855   4.155  0.0910 -0.4023  0.1457
12793TIP3    H159870   2.294   4.947   4.149  0.5117 -0.4505  0.9162
12793TIP3    H259871   2.218   4.838   4.077 -0.3945  0.6163  0.2309
12794TIP3   OH259872   6.531   3.914  11.682 -0.1676  0.5549  0.1954
12794TIP3    H159873   6.551   4.006  11.666  0.9817  0.0464 -1.5645
12794TIP3    H259874   6.504   3.880  11.597 -0.4101 -0.7848  0.7825
12795TIP3   OH259875   3.713   1.880  10.771  0.2632 -0.3685 -0.7742
12795TIP3    H159876   3.715   1.976  10.769  1.7875 -0.3606 -3.2628
12795TIP3    H259877   3.625   1.858  10.801  0.3400  1.7374  1.3104
12796TIP3   OH259878   0.698   4.413  16.259  0.1269  0.1080  0.6670
12796TIP3    H159879   0.685   4.498  16.215  0.3811  0.1328  0.6356
12796TIP3    H259880   0.666   4.348  16.197  1.7147  0.0426 -0.1465
12797TIP3   OH259881   2.243   2.447   3.424 -0.0218  0.0595  0.2434
12797TIP3    H159882   2.290   2.423   3.504 -1.1815  1.7022  1.4568
12797TIP3    H259883   2.268   2.538   3.408 -0.4127 -0.0106 -0.8584
12798TIP3   OH259884   0.128   2.933  13.539 -0.0988  0.1201 -0.0172
12798TIP3    H159885   0.047   2.947  13.490 -0.8215 -2.3686  0.3143
12798TIP3    H259886   0.191   2.904  13.473 -0.8736 -2.5437  0.3234
12799TIP3   OH259887   1.811   6.322  12.974 -0.9288  0.8148  0.7679
12799TIP3    H159888   1.787   6.269  12.898 -2.1210  0.7886  1.1419
12799TIP3    H259889   1.862   6.394  12.938  2.4199 -1.5033  0.4265
12800TIP3   OH259890   1.421   1.836  15.589  0.5903 -0.1004  0.2778
12800TIP3    H159891   1.474   1.869  15.516  0.4203 -2.1128 -0.8421
12800TIP3    H259892   1.417   1.741  15.575 -0.6256 -0.3905  2.1465
12801TIP3   OH259893   1.166   1.236   0.220  0.0984 -0.0105  0.0980
12801TIP3    H159894   1.087   1.283   0.193  0.7358  0.5378 -0.8951
12801TIP3    H259895   1.134   1.159   0.267 -1.0643 -0.3978 -1.2699
12802TIP3   OH259896   3.966   5.443   2.230 -0.8750 -0.1389 -0.1905
12802TIP3    H159897   3.978   5.426   2.136  2.7709 -0.1164  0.1441
12802TIP3    H259898   3.914   5.523   2.233  1.7951  1.8552 -2.3792
12803TIP3   OH259899   3.762   0.031   5.106  0.3782 -0.3729 -0.2441
12803TIP3    H159900   3.815   0.014   5.184 -0.6414 -0.3715  0.4823
12803TIP3    H259901   3.728  -0.055   5.081 -1.0105 -0.0994  0.6138
12804TIP3   OH259902   3.462   6.315   5.311 -0.4868 -0.8907  0.4822
12804TIP3    H159903   3.392   6.360   5.358  0.4228  1.0635  0.0572
12804TIP3    H259904   3.513   6.385   5.271  1.6112 -2.2623  0.6116
12805TIP3   OH259905   3.840   1.051  10.931  0.2853  0.4727 -0.3851
12805TIP3    H159906   3.776   1.089  10.870 -0.1941  0.0773 -0.1335
12805TIP3    H259907   3.858   0.964  10.896  0.0583  0.2683 -0.0004
12806TIP3   OH259908   6.241   2.598   1.219  0.5423 -0.0532 -0.0372
12806TIP3    H159909   6.315   2.636   1.171  0.2226  0.2677 -0.2825
12806TIP3    H259910   6.244   2.640   1.305 -0.5235  1.4630 -0.7022
12807TIP3   OH259911   2.172   0.168   3.199  0.3173 -0.3418  0.1726
12807TIP3    H159912   2.172   0.151   3.293  1.8520  2.3392  0.7595
12807TIP3    H259913   2.220   0.094   3.161  1.6389 -0.3621  1.7792
12808TIP3   OH259914   5.229   0.045   0.914  0.1624 -0.0348 -0.6930
12808TIP3    H159915   5.238   0.140   0.909 -2.1631  0.2232 -1.0366
12808TIP3    H259916   5.318   0.012   0.900  1.2276  2.0933  0.5688
12809TIP3   OH259917   6.231   1.650   5.382  0.1644 -0.0658 -0.5574
12809TIP3    H159918   6.293   1.579   5.368  0.6161  0.2749 -0.3312
12809TIP3    H259919   6.283   1.730   5.371  0.2518  0.2348  1.6259
12810TIP3   OH259920   3.687   4.324  14.855  0.2289 -0.1424  0.1641
12810TIP3    H159921   3.706   4.269  14.779 -0.7823 -1.8684  1.0972
12810TIP3    H259922   3.768   4.373  14.870 -0.4363  2.5539 -3.7552
12811TIP3   OH259923   1.348   4.198   0.412  0.3273  0.7615  1.3367
12811TIP3    H159924   1.319   4.287   0.432  1.1031  1.1688  0.7382
12811TIP3    H259925   1.269   4.151   0.386  0.1262  1.6947  0.2099
12812TIP3   OH259926   6.122   4.375   5.702 -0.4714  0.3810 -0.7319
12812TIP3    H159927   6.209   4.414   5.695  0.6259 -1.8711 -0.7108
12812TIP3    H259928   6.120   4.310   5.632 -1.5913 -0.5678  0.1470
12813TIP3   OH259929   1.499   4.055   3.527 -0.4677 -0.2764  0.5280
12813TIP3    H159930   1.496   4.095   3.440  0.3528 -2.5972 -0.6273
12813TIP3    H259931   1.582   4.085   3.564  0.1235 -0.8811 -0.3021
12814TIP3   OH259932   4.888   3.946   4.350  0.1225  0.5355 -0.2128
12814TIP3    H159933   4.856   3.878   4.409 -0.0521  0.7779 -0.0254
12814TIP3    H259934   4.892   3.904   4.264  0.8547  0.0351  0.0592
12815TIP3   OH259935   4.938   3.411  11.662  0.1409  0.0903  0.2370
12815TIP3    H159936   4.864   3.458  11.625  1.4624  1.3024 -0.9607
12815TIP3    H259937   4.943   3.442  11.752 -1.4878 -0.8968  0.7143
12816TIP3   OH259938   4.110   5.056  15.403 -0.5232  0.7008 -0.0315
12816TIP3    H159939   4.021   5.063  15.368 -0.5806  2.2680  0.3688
12816TIP3    H259940   4.128   4.962  15.403 -1.6886  0.4358 -1.3255
12817TIP3   OH259941   5.347   4.080   5.666 -0.1037  0.1473  0.2265
12817TIP3    H159942   5.307   4.076   5.753 -0.4956  0.3502  0.0625
12817TIP3    H259943   5.441   4.077   5.682 -0.1839 -0.6472  0.6103
12818TIP3   OH259944   5.268   2.599   3.866 -0.0528  0.6463 -0.2706
12818TIP3    H159945   5.201   2.545   3.824 -0.5248  1.6431 -0.8304
12818TIP3    H259946   5.335   2.536   3.895 -0.7434 -0.2606 -0.6026
12819TIP3   OH259947   2.352   2.114   5.853 -0.2534 -0.1515  0.1377
12819TIP3    H159948   2.382   2.024   5.861  0.3301  0.1907  2.5809
12819TIP3    H259949   2.326   2.139   5.942  2.8520  3.1764  0.3187
12820TIP3   OH259950   4.333   1.405   6.112 -0.7199 -0.1577 -0.4577
12820TIP3    H159951   4.249   1.390   6.155 -1.6148 -0.3038 -2.1491
12820TIP3    H259952   4.343   1.500   6.110 -0.5437 -0.1616  0.2990
12821TIP3   OH259953   3.707   2.935   3.464  0.1562  0.0171  0.3500
12821TIP3    H159954   3.657   2.917   3.544  0.7405 -1.3517  0.4251
12821TIP3    H259955   3.725   2.849   3.427  0.2993  0.6104 -1.0256
12822TIP3   OH259956   0.856   3.064  16.822 -0.1867 -0.0754  0.1768
12822TIP3    H159957   0.880   3.045  16.731 -0.8466  0.2316 -0.0670
12822TIP3    H259958   0.827   3.155  16.821 -1.8645 -0.5708  0.3428
12823TIP3   OH259959   3.425   5.009   1.811 -0.5122 -0.5888  0.1792
12823TIP3    H159960   3.405   5.092   1.769 -1.3374 -0.8772 -0.0133
12823TIP3    H259961   3.387   5.017   1.899 -0.6115 -0.7727  0.1529
12824TIP3   OH259962   3.623   0.825   6.339  0.3095  0.0503  0.4177
12824TIP3    H159963   3.536   0.825   6.380 -0.6769  1.7773 -1.5139
12824TIP3    H259964   3.669   0.897   6.383  0.2786  0.0373  0.4728
12825TIP3   OH259965   4.296   1.101   4.143  0.5934 -0.1609 -0.2960
12825TIP3    H159966   4.316   1.135   4.230 -0.7699  0.2596 -0.1323
12825TIP3    H259967   4.227   1.037   4.158  0.9641 -0.7387 -0.9819
12826TIP3   OH259968   5.045   6.256   4.328 -0.2464  0.4233  0.0756
12826TIP3    H159969   4.959   6.249   4.286 -0.2753 -1.7861  0.4294
12826TIP3    H259970   5.105   6.210   4.269  0.1351 -0.6820  1.2826
12827TIP3   OH259971   0.193   1.930   4.065 -0.7647 -0.0667 -0.0095
12827TIP3    H159972   0.260   1.997   4.055 -1.6362  0.7047 -0.8812
12827TIP3    H259973   0.207   1.871   3.991 -0.8885 -0.0422 -0.0531
12828TIP3   OH259974   0.568   5.378  13.820 -0.6943 -0.8872  0.2110
12828TIP3    H159975   0.532   5.295  13.849 -2.4355 -0.7762 -1.4611
12828TIP3    H259976   0.496   5.421  13.774  0.9089  0.3950 -1.2394
12829TIP3   OH259977   4.214   5.271  14.495  0.4971  0.0526 -0.0347
12829TIP3    H159978   4.262   5.241  14.572 -1.3426 -2.0370  0.4095
12829TIP3    H259979   4.276   5.325  14.447  1.7945  1.2244  2.7540
12830TIP3   OH259980   1.022   1.375   1.064 -0.5574  0.2229 -0.8038
12830TIP3    H159981   0.998   1.294   1.108 -0.0696  1.1738  1.3774
12830TIP3    H259982   1.051   1.348   0.977  2.7008 -2.3414  0.8746
12831TIP3   OH259983   5.589   4.732   4.917  0.0523  0.0948 -0.5326
12831TIP3    H159984   5.501   4.699   4.900 -0.2595  1.4333 -1.6978
12831TIP3    H259985   5.579   4.791   4.992  0.3603 -1.2634  0.6353
12832TIP3   OH259986   2.257   0.297  14.357  0.0702  0.2751  0.3663
12832TIP3    H159987   2.176   0.279  14.311 -0.7769  1.1601  1.4464
12832TIP3    H259988   2.242   0.266  14.446  1.8082 -1.7573  0.0158
12833TIP3   OH259989   5.330   0.016   6.035 -0.3170  0.0770 -0.0249
12833TIP3    H159990   5.374  -0.067   6.056 -0.4810  0.3453  1.4895
12833TIP3    H259991   5.393   0.063   5.980  0.8361 -0.0254  1.1528
12834TIP3   OH259992   0.812   2.479  11.449  0.2596  0.2791  0.0805
12834TIP3    H159993   0.845   2.409  11.393  0.5147  0.3389  0.1519
12834TIP3    H259994   0.830   2.448  11.538 -0.8160 -0.1494  0.1602
12835TIP3   OH259995   3.524   3.141   4.193 -0.0686  0.2994  0.6215
12835TIP3    H159996   3.457   3.075   4.211 -2.4554  2.2907 -0.3258
12835TIP3    H259997   3.558   3.117   4.107  0.8119 -0.9592  1.2820
12836TIP3   OH259998   4.470   3.325   3.275  0.2208 -0.1944 -0.1601
12836TIP3    H159999   4.526   3.278   3.336 -1.1059  2.3372  3.3117
12836TIP3    H260000   4.531   3.372   3.217  1.5409 -1.5548  0.0723
12837TIP3   OH260001   1.907   5.944   6.299  0.2958  0.0548  0.8580
12837TIP3    H160002   1.870   6.033   6.296 -0.3956 -0.2091  1.2716
12837TIP3    H260003   2.001   5.957   6.284  0.3823  0.9818  2.0032
12838TIP3   OH260004   0.080   6.215  11.754 -0.6677 -0.4252  0.0490
12838TIP3    H160005   0.151   6.205  11.817 -0.7382 -0.4411  0.1267
12838TIP3    H260006   0.001   6.221  11.809 -0.6795  0.0471 -0.0115
12839TIP3   OH260007   0.198   3.227  16.922 -0.6343 -0.1706  0.0317
12839TIP3    H160008   0.142   3.264  16.989 -0.4132 -0.3446  0.3184
12839TIP3    H260009   0.276   3.197  16.970 -0.1858  0.3012 -0.3906
12840TIP3   OH260010   4.087   5.651  13.224 -0.1834 -0.0503 -0.1735
12840TIP3    H160011   4.040   5.570  13.245  1.3100 -1.8184 -3.0580
12840TIP3    H260012   4.035   5.691  13.154 -0.5226  1.1795  0.7431
12841TIP3   OH260013   3.329   0.997  12.867  0.2268  0.4111 -0.5331
12841TIP3    H160014   3.419   0.970  12.882  1.2824  3.5325 -0.5552
12841TIP3    H260015   3.278   0.942  12.927  2.3540  0.0196  1.0507
12842TIP3   OH260016   1.367   2.020   0.845 -0.1895 -0.6031  0.0957
12842TIP3    H160017   1.393   2.084   0.779  0.9696 -1.3471 -0.2146
12842TIP3    H260018   1.450   1.988   0.881 -0.7930 -0.0890  2.0514
12843TIP3   OH260019   3.858   1.232   4.576  0.2868  0.1878  0.1747
12843TIP3    H160020   3.790   1.291   4.543 -0.4113 -0.6830  0.0223
12843TIP3    H260021   3.937   1.286   4.579 -0.0633  0.8118 -1.0939
12844TIP3   OH260022   3.820   4.361  11.805  0.7924  0.3954 -0.1148
12844TIP3    H160023   3.816   4.456  11.816  0.4819  0.3095  0.5858
12844TIP3    H260024   3.766   4.327  11.876 -0.7657 -0.2421 -1.5356
12845TIP3   OH260025   5.985   5.382  17.043  0.1532  0.2881 -0.0077
12845TIP3    H160026   6.038   5.448  16.998 -0.1767 -0.1733 -1.0887
12845TIP3    H260027   5.915   5.433  17.086  0.2031  0.6866 -0.3924
12846TIP3   OH260028   4.534   5.438   5.638 -0.0208 -0.6868  0.0133
12846TIP3    H160029   4.495   5.485   5.712  0.3657 -0.0564 -0.1805
12846TIP3    H260030   4.615   5.401   5.673  1.1459  1.2084 -0.5638
12847TIP3   OH260031   6.417   1.164   2.893 -0.2350  0.0536 -0.6737
12847TIP3    H160032   6.408   1.237   2.831 -0.2617 -0.4628 -1.2955
12847TIP3    H260033   6.328   1.130   2.902 -0.5976  1.3350  1.1940
12848TIP3   OH260034   0.577   4.193   4.752  0.4996  0.9329  0.2432
12848TIP3    H160035   0.583   4.147   4.836  0.5553 -2.7971 -1.5930
12848TIP3    H260036   0.489   4.173   4.720  1.7223 -1.2709 -2.2312
12849TIP3   OH260037   6.072   0.026   5.138 -0.3300  0.0571  0.3920
12849TIP3    H160038   5.977   0.029   5.128 -0.3258  2.2292  0.5960
12849TIP3    H260039   6.097  -0.061   5.106 -2.1705  0.1784 -1.5675
12850TIP3   OH260040   6.297   4.005  15.227 -0.3245 -0.5091  0.4994
12850TIP3    H160041   6.282   3.911  15.212 -0.5729 -0.1989 -1.4174
12850TIP3    H260042   6.232   4.049  15.173 -0.1677  0.8000  1.3279
12851TIP3   OH260043   4.534   5.104  15.741 -0.0640  0.1206  1.2553
12851TIP3    H160044   4.483   5.183  15.729 -0.6663 -0.0560  2.5217
12851TIP3    H260045   4.529   5.059  15.656 -1.6273  0.3301  1.2049
12852TIP3   OH260046   1.129   1.965  16.528  0.6959 -0.3394 -0.0722
12852TIP3    H160047   1.051   1.968  16.584  2.3699  0.0565  2.3768
12852TIP3    H260048   1.121   1.883  16.480  0.3457 -1.9967  2.6244
12853TIP3   OH260049   4.839   0.911   2.002  0.0320  0.0224  0.3577
12853TIP3    H160050   4.845   0.827   2.049 -0.5271  0.1230  0.6097
12853TIP3    H260051   4.785   0.966   2.059 -0.8370  0.0787 -0.5067
12854TIP3   OH260052   3.444   0.975  15.126  0.0205  0.2903 -0.5409
12854TIP3    H160053   3.402   1.010  15.204 -0.5854 -0.8572 -0.3348
12854TIP3    H260054   3.384   0.996  15.055 -0.4152 -0.4421 -0.3957
12855TIP3   OH260055   2.727   4.062  16.411  0.5461 -0.7956  0.4250
12855TIP3    H160056   2.788   4.109  16.468  0.9600  0.6603 -1.1439
12855TIP3    H260057   2.642   4.074  16.453  0.7418  0.7979  0.4411
12856TIP3   OH260058   6.268   0.239  13.702  0.3422  0.0483  0.2793
12856TIP3    H160059   6.347   0.223  13.754  1.7811  1.6209 -1.3268
12856TIP3    H260060   6.260   0.334  13.698 -1.4447 -0.0739  0.0651
12857TIP3   OH260061   6.326   5.651   2.454  0.1202 -0.3631 -0.3497
12857TIP3    H160062   6.327   5.556   2.467  0.5575 -0.2934  0.1741
12857TIP3    H260063   6.295   5.686   2.538  0.2799 -0.0306 -0.4282
12858TIP3   OH260064   6.480   1.513   3.294  0.0322  0.2609  0.0048
12858TIP3    H160065   6.504   1.437   3.242  1.3005 -0.5655  1.6775
12858TIP3    H260066   6.528   1.586   3.256 -0.0955 -0.0510 -0.7540
12859TIP3   OH260067   6.427   0.868   4.231 -0.3243 -0.1192  0.0083
12859TIP3    H160068   6.501   0.845   4.174  0.9023  1.7319  0.7767
12859TIP3    H260069   6.368   0.917   4.174 -1.3739 -2.1698 -0.7857
12860TIP3   OH260070   4.347   1.257   6.576 -0.3320  0.3516 -0.3478
12860TIP3    H160071   4.289   1.253   6.651 -0.8084  0.8703 -0.6864
12860TIP3    H260072   4.313   1.190   6.516 -2.5096  2.6864 -1.8921
12861TIP3   OH260073   4.089   3.692   1.485  0.0743 -0.2531 -0.0218
12861TIP3    H160074   4.134   3.720   1.565  1.4948  0.1064 -0.9220
12861TIP3    H260075   4.153   3.706   1.415 -0.5573 -2.0868 -1.0201
12862TIP3   OH260076   0.053   0.913   2.739 -0.0336  0.1340 -0.1736
12862TIP3    H160077   0.014   0.851   2.678 -0.5524  0.3979 -0.1089
12862TIP3    H260078   0.140   0.876   2.758 -0.6366 -1.0029  0.4910
12863TIP3   OH260079   4.512   1.178  13.908 -0.3180  0.0105  0.2087
12863TIP3    H160080   4.468   1.222  13.980 -0.0885  1.3203 -0.4075
12863TIP3    H260081   4.593   1.228  13.896  0.6492 -1.4385  0.3632
12864TIP3   OH260082   4.561   6.022   3.610  0.1877  0.9773 -0.0952
12864TIP3    H160083   4.573   6.082   3.537 -1.2264  0.8420 -0.4609
12864TIP3    H260084   4.473   5.987   3.599  0.8287 -0.9052  0.3086
12865TIP3   OH260085   4.407   3.942   1.732  0.5260  0.0036 -0.2610
12865TIP3    H160086   4.398   4.037   1.726  3.3966  0.3551 -0.7919
12865TIP3    H260087   4.471   3.929   1.802  1.1179 -1.4405 -1.0212
12866TIP3   OH260088   2.478   3.114  14.877  0.1683  0.2042  0.6763
12866TIP3    H160089   2.439   3.192  14.918  1.6613 -0.2073  3.0974
12866TIP3    H260090   2.572   3.128  14.887  0.7304  0.2795 -3.2505
12867TIP3   OH260091   5.986   0.997  15.252 -0.0019  1.0010  0.0268
12867TIP3    H160092   5.939   1.058  15.194 -0.5096 -0.2825 -0.9600
12867TIP3    H260093   5.999   0.919  15.199  0.1892  0.0515  1.4233
12868TIP3   OH260094   1.245   1.345  13.723  0.0820 -0.8277 -0.0038
12868TIP3    H160095   1.329   1.377  13.756 -0.4381  0.1041  0.4557
12868TIP3    H260096   1.214   1.285  13.791 -0.7216  0.6571  1.0104
12869TIP3   OH260097   0.694   1.183  12.274  0.2253  0.4356  0.1233
12869TIP3    H160098   0.734   1.121  12.213  0.4917 -0.0300  0.7640
12869TIP3    H260099   0.642   1.241  12.218 -2.0134 -1.8002 -0.3022
12870TIP3   OH260100   0.434   3.582   5.525 -0.1462  0.0452  0.1724
12870TIP3    H160101   0.473   3.651   5.579  1.5507 -0.0958 -0.8311
12870TIP3    H260102   0.400   3.628   5.448  0.3238 -0.1426 -0.1487
12871TIP3   OH260103   3.366   4.008   5.021 -0.2060  0.0736  0.1676
12871TIP3    H160104   3.423   3.944   5.064  0.8290  1.1711  0.4730
12871TIP3    H260105   3.424   4.082   5.001 -0.5040 -0.4844 -3.4233
12872TIP3   OH260106   0.216   4.195   0.506  0.6460  0.1694 -0.0609
12872TIP3    H160107   0.230   4.171   0.597  0.4470  0.8467  0.1551
12872TIP3    H260108   0.300   4.231   0.477  1.5930 -2.5111 -0.9828
12873TIP3   OH260109   2.626   2.102   2.821 -0.3626 -0.2266  0.6923
12873TIP3    H160110   2.553   2.131   2.876 -0.7036 -1.7260  1.0728
12873TIP3    H260111   2.704   2.135   2.865 -0.7574  3.6163 -1.0102
12874TIP3   OH260112   2.301   2.123  11.653  0.3103 -0.0388 -0.0537
12874TIP3    H160113   2.312   2.047  11.596 -0.8321 -0.1347 -0.1896
12874TIP3    H260114   2.206   2.128  11.667  0.3543  1.4540 -0.1639
12875TIP3   OH260115   4.082   0.462   0.711  0.4679  0.3645  0.0782
12875TIP3    H160116   4.012   0.423   0.764  1.2052 -1.4486 -0.1915
12875TIP3    H260117   4.056   0.444   0.621  1.1726 -0.1434 -0.0297
12876TIP3   OH260118   1.156   5.686   0.443 -0.4663  0.2147 -0.1752
12876TIP3    H160119   1.178   5.730   0.361  1.2278  0.0487  0.1576
12876TIP3    H260120   1.153   5.756   0.508 -0.3281  0.1629 -0.1125
12877TIP3   OH260121   5.520   3.903   3.086  0.3900  0.0132  0.0065
12877TIP3    H160122   5.530   3.850   3.165  0.6941  1.6208  1.1028
12877TIP3    H260123   5.426   3.909   3.072  0.2770  0.6196  0.9219
12878TIP3   OH260124   5.212   2.029  11.828  0.2810 -0.0091 -0.0486
12878TIP3    H160125   5.251   1.970  11.892  2.2247 -0.3296 -1.4448
12878TIP3    H260126   5.281   2.092  11.807 -0.5642  0.5699 -1.2516
12879TIP3   OH260127   5.170   0.438  10.877  0.3364  0.1924 -0.2213
12879TIP3    H160128   5.160   0.440  10.972  0.8919 -0.4658 -0.1343
12879TIP3    H260129   5.142   0.524  10.847 -3.0265 -0.6435  0.1890
12880TIP3   OH260130   3.396   3.527  13.799 -0.1651 -0.4010 -0.0523
12880TIP3    H160131   3.343   3.547  13.877 -1.3916 -0.5305 -0.8219
12880TIP3    H260132   3.339   3.473  13.745  1.3069 -1.8219 -0.2606
12881TIP3   OH260133   6.685   1.643   5.064 -0.1031  0.0531  0.2913
12881TIP3    H160134   6.632   1.563   5.063  0.0672 -0.0705  0.7663
12881TIP3    H260135   6.679   1.675   5.154 -0.7128  0.9487 -0.0551
12882TIP3   OH260136   1.243   1.365   1.906  0.0223  0.1580  0.0708
12882TIP3    H160137   1.215   1.332   1.821 -1.5577 -0.1624  0.6829
12882TIP3    H260138   1.167   1.411   1.940  0.1145 -0.9748  1.9481
12883TIP3   OH260139   5.381   2.809   5.926  0.1830  0.3005 -0.2171
12883TIP3    H160140   5.375   2.804   5.831  2.2210  0.9132 -0.4235
12883TIP3    H260141   5.380   2.718   5.955  0.7874  0.0581 -0.9334
12884TIP3   OH260142   2.983   3.298  16.580 -0.5130  0.5965  0.1456
12884TIP3    H160143   2.967   3.211  16.616 -2.1476  0.1920 -1.3975
12884TIP3    H260144   3.054   3.333  16.633 -0.2945 -1.3853  1.2775
12885TIP3   OH260145   6.819   3.230  15.305 -0.4677  0.1050 -0.1147
12885TIP3    H160146   6.766   3.260  15.379 -1.4955  2.5244 -1.7179
12885TIP3    H260147   6.899   3.281  15.310 -0.3963  0.0323 -0.4777
12886TIP3   OH260148   1.010   2.153  15.877  0.1463  0.0742  0.3492
12886TIP3    H160149   0.993   2.061  15.861 -0.6113  0.4077 -0.9456
12886TIP3    H260150   0.948   2.199  15.820  2.2347  1.3823 -1.0033
12887TIP3   OH260151   0.685   5.129  14.187 -0.2979  0.1233 -0.1704
12887TIP3    H160152   0.621   5.125  14.116 -1.2010 -0.2473  0.6405
12887TIP3    H260153   0.671   5.214  14.228 -1.3118 -0.5295  0.9170
12888TIP3   OH260154   6.582   2.664  12.947 -0.2012  0.0715 -0.1016
12888TIP3    H160155   6.644   2.726  12.987 -1.5782 -0.0124  2.3795
12888TIP3    H260156   6.576   2.692  12.856  0.2045  2.8177  0.6155
12889TIP3   OH260157   3.921   0.501   4.744  0.4108  0.0095  0.2307
12889TIP3    H160158   3.903   0.585   4.787 -0.2163 -0.9656  1.9508
12889TIP3    H260159   3.922   0.522   4.651  1.1110  2.0765  0.6522
12890TIP3   OH260160   1.916   2.887  16.524  0.4997 -0.7796 -0.8090
12890TIP3    H160161   1.898   2.862  16.433 -2.9879  0.4189 -0.5825
12890TIP3    H260162   1.848   2.951  16.545  0.4892 -1.8318  3.0229
12891TIP3   OH260163   2.993   2.659   3.354  0.4192 -0.1113 -0.5023
12891TIP3    H160164   2.913   2.710   3.365  0.3135 -0.6136  1.3836
12891TIP3    H260165   2.963   2.568   3.350  0.7763 -0.1946 -1.6244
12892TIP3   OH260166   3.066   3.040   1.475  0.4310 -0.0464  0.9159
12892TIP3    H160167   3.077   3.118   1.420  0.2418 -0.4891  0.2438
12892TIP3    H260168   3.153   3.023   1.511  0.5298  0.3128  0.8473
12893TIP3   OH260169   0.375   5.250   5.100  0.2772 -0.5501  0.1049
12893TIP3    H160170   0.459   5.290   5.079  1.2362 -1.9046  1.1598
12893TIP3    H260171   0.344   5.295   5.178 -0.5418  0.6726 -0.8836
12894TIP3   OH260172   1.437   0.643  15.572 -0.5209 -0.2989  0.6616
12894TIP3    H160173   1.489   0.645  15.652 -2.9634  2.0219  2.3729
12894TIP3    H260174   1.375   0.571  15.586  0.2712 -1.1550 -0.0770
12895TIP3   OH260175   4.484   1.863   1.714 -0.1414  0.1222  0.8447
12895TIP3    H160176   4.517   1.798   1.775  2.0573 -0.2878 -0.6332
12895TIP3    H260177   4.401   1.828   1.683  0.6462 -1.6740  0.6235
12896TIP3   OH260178   4.914   4.650   2.546 -0.2168  0.3221  0.2605
12896TIP3    H160179   4.847   4.587   2.573 -1.9092  0.8692 -2.2928
12896TIP3    H260180   4.866   4.733   2.537  1.3486  1.3222  0.7638
12897TIP3   OH260181   0.872   0.654   2.439 -0.5551  0.3625  0.1454
12897TIP3    H160182   0.911   0.689   2.359 -1.3357 -2.6551 -1.7199
12897TIP3    H260183   0.934   0.588   2.469 -0.0917  1.6984  2.3479
12898TIP3   OH260184   5.008   2.043   0.545  0.3956  0.1274  0.0420
12898TIP3    H160185   5.037   1.959   0.508  0.3354  1.0351 -2.2556
12898TIP3    H260186   5.088   2.091   0.563  0.4138 -0.0392  0.4119
12899TIP3   OH260187   6.704   1.403  15.914 -0.1887 -0.1249  0.3860
12899TIP3    H160188   6.711   1.471  15.982  1.2152 -0.7502  0.9137
12899TIP3    H260189   6.753   1.439  15.840  2.1269 -1.2269  1.2850
12900TIP3   OH260190   5.170   5.659   1.335 -0.3095  0.7241 -0.2948
12900TIP3    H160191   5.228   5.590   1.366 -1.4103 -0.2268 -0.2952
12900TIP3    H260192   5.227   5.736   1.325  0.6184  0.2807  1.2883
12901TIP3   OH260193   0.954   3.955  15.735  0.1549 -0.2085  0.1735
12901TIP3    H160194   1.033   3.957  15.789 -0.5857 -0.8141  1.3112
12901TIP3    H260195   0.979   3.906  15.657  1.0133 -0.0113  0.3120
12902TIP3   OH260196   5.307   5.336   4.655 -0.1999 -0.7227 -0.8391
12902TIP3    H160197   5.328   5.380   4.737  1.0219  1.0528 -2.0338
12902TIP3    H260198   5.392   5.306   4.622 -0.6531 -1.2384 -1.5674
12903TIP3   OH260199   2.177   3.887   2.648  0.0819  0.1558  0.1386
12903TIP3    H160200   2.241   3.818   2.665  0.3549  0.0621 -1.1542
12903TIP3    H260201   2.093   3.848   2.672 -0.0894 -1.5855 -2.7510
12904TIP3   OH260202   1.882   5.197  14.657 -0.3026 -0.1754  0.0127
12904TIP3    H160203   1.971   5.190  14.693 -0.3740  2.4242  0.8948
12904TIP3    H260204   1.879   5.130  14.589  1.5733 -1.8350  1.4180
12905TIP3   OH260205   1.698   2.596  13.326 -0.6021  0.3092  0.2551
12905TIP3    H160206   1.655   2.525  13.278 -0.8026 -0.1215  1.0394
12905TIP3    H260207   1.658   2.592  13.414  0.6463  0.2474  0.8429
12906TIP3   OH260208   1.898   2.265   5.326  0.9202  0.6847  0.1230
12906TIP3    H160209   1.927   2.334   5.266  3.4225 -0.4338 -0.0666
12906TIP3    H260210   1.836   2.214   5.275  0.6748  1.5347 -0.4563
12907TIP3   OH260211   0.285   0.999   2.235 -0.0096 -0.2501  0.6496
12907TIP3    H160212   0.200   1.033   2.262  0.3557  0.8231  0.4981
12907TIP3    H260213   0.310   0.937   2.304  0.5255  1.7972  2.3707
12908TIP3   OH260214   5.301   4.711  16.969 -0.0560 -0.4831  0.0281
12908TIP3    H160215   5.382   4.662  16.957 -0.5930 -1.3822 -0.0097
12908TIP3    H260216   5.237   4.646  16.998 -0.2797  0.5586  2.0934
12909TIP3   OH260217   0.309   0.052   2.086  0.1345 -0.5827  0.5454
12909TIP3    H160218   0.308   0.143   2.117  0.0443  0.3236 -1.9015
12909TIP3    H260219   0.230   0.044   2.033  0.3367 -1.9912  0.4237
12910TIP3   OH260220   3.910   0.427   3.460  0.2724 -0.7180  0.2865
12910TIP3    H160221   3.927   0.395   3.549 -2.7972 -0.0009  1.2600
12910TIP3    H260222   3.815   0.435   3.456  0.4882  2.0504 -2.1175
12911TIP3   OH260223   2.267   5.226  16.939  0.3906 -0.1130  0.2393
12911TIP3    H160224   2.332   5.208  16.871  0.5727  1.3497 -0.0177
12911TIP3    H260225   2.186   5.188  16.906  0.9383 -1.3145  0.2254
12912TIP3   OH260226   4.965   3.443   4.254 -0.5311  0.2706  0.0355
12912TIP3    H160227   4.960   3.530   4.215 -1.4237 -0.0959 -0.7042
12912TIP3    H260228   4.992   3.459   4.345 -0.2350  1.2756 -0.2169
12913TIP3   OH260229   5.205   4.472   3.773 -0.1116 -0.8456  0.0593
12913TIP3    H160230   5.174   4.384   3.753 -2.5382 -0.0969  0.2299
12913TIP3    H260231   5.261   4.461   3.850  0.7816 -2.3773 -0.7538
12914TIP3   OH260232   0.458   1.320  13.393  0.0894  0.4371 -0.2158
12914TIP3    H160233   0.519   1.356  13.329  0.1887  0.6938  0.0237
12914TIP3    H260234   0.512   1.269  13.452 -0.0202  0.0850 -0.4129
12915TIP3   OH260235   2.076   5.235   0.316  0.4902  0.1208 -0.4235
12915TIP3    H160236   2.130   5.196   0.247  1.9489 -0.7529  1.1350
12915TIP3    H260237   2.137   5.287   0.367  0.2749 -2.0882  2.2998
12916TIP3   OH260238   4.220   0.695   3.317 -0.1591  0.1628  0.2229
12916TIP3    H160239   4.261   0.645   3.387  1.2730  0.2354 -0.5386
12916TIP3    H260240   4.200   0.781   3.356  0.7487  0.2479  0.5071
12917TIP3   OH260241   0.399   5.856  12.509 -0.1073 -0.1972 -0.0712
12917TIP3    H160242   0.365   5.938  12.473 -1.0541 -1.1718 -1.4874
12917TIP3    H260243   0.323   5.814  12.549  0.0817 -1.0037 -0.5452
12918TIP3   OH260244   4.353   4.421  13.115  0.0907  0.2119 -0.5317
12918TIP3    H160245   4.288   4.426  13.185  0.8920 -0.7711  0.3169
12918TIP3    H260246   4.436   4.407  13.161  1.0018  1.9248 -1.5515
12919TIP3   OH260247   5.509   1.279   0.403 -0.2454  0.0573  0.2565
12919TIP3    H160248   5.440   1.214   0.391 -0.9485  0.7572  0.4831
12919TIP3    H260249   5.471   1.345   0.461  0.9052  0.0188  1.0930
12920TIP3   OH260250   3.065   3.472  11.490 -0.2207  0.3138  0.0696
12920TIP3    H160251   3.143   3.525  11.475 -0.4806  0.8281  0.4833
12920TIP3    H260252   3.002   3.503  11.426  0.3124 -0.9792 -1.1276
12921TIP3   OH260253   2.892   0.315  11.446 -0.3105  0.1343 -0.3485
12921TIP3    H160254   2.899   0.318  11.351 -0.7973 -1.6986 -0.4756
12921TIP3    H260255   2.798   0.305  11.463 -0.4605  2.4005  0.4330
12922TIP3   OH260256   5.384   1.082  13.656  0.1143  0.5739 -0.4660
12922TIP3    H160257   5.440   1.153  13.687  0.3945  0.0447  0.2801
12922TIP3    H260258   5.440   1.031  13.597  0.5047 -0.0786  0.4474
12923TIP3   OH260259   2.533   2.134   1.744 -0.1558 -0.0558  0.5072
12923TIP3    H160260   2.511   2.215   1.697  2.5340  0.7773  0.5147
12923TIP3    H260261   2.613   2.103   1.701 -0.0877 -1.6929  1.7280
12924TIP3   OH260262   6.324   1.511   5.098  0.3149  0.1704 -0.0391
12924TIP3    H160263   6.293   1.438   5.152  0.4984  1.7425  2.3253
12924TIP3    H260264   6.414   1.489   5.077  0.7292  0.2100  1.6199
12925TIP3   OH260265   2.120   4.042   4.424  0.2696  0.4957  0.0161
12925TIP3    H160266   2.130   4.076   4.335  1.6772  1.2193  0.4172
12925TIP3    H260267   2.039   4.082   4.457 -1.2610 -1.1665 -1.4992
12926TIP3   OH260268   5.062   1.819  12.235 -0.0397 -0.3606  0.1588
12926TIP3    H160269   5.024   1.833  12.321  1.4238 -1.6820  1.0772
12926TIP3    H260270   5.129   1.751  12.249 -2.1688 -3.3486 -2.6419
12927TIP3   OH260271   0.626   0.600   4.381 -0.2042  0.2523 -0.7518
12927TIP3    H160272   0.603   0.653   4.457 -0.4734 -1.2329  0.2350
12927TIP3    H260273   0.646   0.664   4.313 -2.2984  1.6352 -0.1656
12928TIP3   OH260274   4.200   0.402  15.379 -0.3601 -0.3046 -0.4212
12928TIP3    H160275   4.155   0.439  15.455 -1.2019  2.2483 -2.0556
12928TIP3    H260276   4.286   0.444  15.380  0.1562 -1.3093 -0.1925
12929TIP3   OH260277   5.348   6.701  13.443  0.3500  0.5587  0.1744
12929TIP3    H160278   5.388   6.651  13.514  0.1578 -0.8125 -0.6454
12929TIP3    H260279   5.418   6.758  13.412  1.0476 -0.2885  0.1489
12930TIP3   OH260280   4.172   3.003  14.470 -0.0769  0.4475 -0.2986
12930TIP3    H160281   4.180   2.918  14.425  0.6026 -0.8271  2.0668
12930TIP3    H260282   4.078   3.021  14.470 -0.5789 -1.7232  1.4819
12931TIP3   OH260283   1.343   5.665   3.978 -0.4497 -0.4170  0.2496
12931TIP3    H160284   1.296   5.641   4.058 -2.3376 -1.1272 -1.0018
12931TIP3    H260285   1.345   5.760   3.979  1.3149 -0.3963  2.0558
12932TIP3   OH260286   2.525   0.358  15.030  0.1120 -0.3109 -0.0588
12932TIP3    H160287   2.522   0.372  15.125  1.5507 -0.9487  0.1084
12932TIP3    H260288   2.599   0.411  15.000 -0.4112 -0.0129 -0.8587
12933TIP3   OH260289   5.860   0.395   5.291 -0.3141 -0.7251 -0.0418
12933TIP3    H160290   5.849   0.478   5.246  1.0352  0.4527  1.6467
12933TIP3    H260291   5.794   0.396   5.360  1.1281  0.0604  1.4104
12934TIP3   OH260292   1.790   2.271  14.171 -0.4149 -0.0933  0.4536
12934TIP3    H160293   1.740   2.248  14.250 -0.4625 -0.6230  0.2752
12934TIP3    H260294   1.812   2.186  14.132  0.9482  0.1101  0.7258
12935TIP3   OH260295   1.356   2.113  16.513  0.1152 -0.3259 -0.0673
12935TIP3    H160296   1.376   2.093  16.604 -2.3451  3.1140  1.4216
12935TIP3    H260297   1.266   2.081  16.501  0.0810  0.1025 -1.0126
12936TIP3   OH260298   2.353   1.760  16.960 -0.1658 -0.2543 -0.4878
12936TIP3    H160299   2.306   1.699  17.016 -1.2992  1.1288  0.1347
12936TIP3    H260300   2.285   1.811  16.917  0.7429  0.5588 -1.0173
12937TIP3   OH260301   1.388   5.029  13.654 -0.1340  0.3586 -0.4964
12937TIP3    H160302   1.299   5.061  13.666 -0.4053 -0.0192 -1.4046
12937TIP3    H260303   1.398   5.021  13.559  0.6616 -0.1575 -0.3786
12938TIP3   OH260304   4.399   5.744  15.616  0.2439  0.1119 -0.6527
12938TIP3    H160305   4.421   5.681  15.684  2.0308  0.5246 -0.8233
12938TIP3    H260306   4.310   5.772  15.638  1.1812  1.1516  2.2048
12939TIP3   OH260307   2.624   1.177  16.256  0.1403  0.1173  0.3496
12939TIP3    H160308   2.585   1.256  16.218  0.2534 -0.7283 -1.6512
12939TIP3    H260309   2.553   1.113  16.256  0.2525 -0.0244  1.2653
12940TIP3   OH260310   1.078   2.171   6.105  0.1626  0.3484 -0.1122
12940TIP3    H160311   1.017   2.106   6.070  0.0085  0.7411 -0.5980
12940TIP3    H260312   1.025   2.225   6.163  0.2802  0.0744  0.2553
12941TIP3   OH260313   0.122   0.339  13.023 -0.6323 -0.5390 -0.1149
12941TIP3    H160314   0.136   0.434  13.014 -1.6464 -0.3296  0.4034
12941TIP3    H260315   0.187   0.312  13.088 -0.2937 -0.2209 -0.3111
12942TIP3   OH260316   2.070   6.092   4.552 -0.0488 -0.1235 -0.4775
12942TIP3    H160317   2.162   6.085   4.580 -0.0414  0.7428 -0.2360
12942TIP3    H260318   2.051   6.009   4.509  1.2047  0.1281 -1.5877
12943TIP3   OH260319   0.230   3.319   3.100 -0.3556  0.5891 -0.1395
12943TIP3    H160320   0.258   3.378   3.170  2.0476 -0.5872 -0.0147
12943TIP3    H260321   0.201   3.239   3.145  0.0149  0.2859 -0.4264
12944TIP3   OH260322   3.230   3.620   1.733 -0.7375 -0.6588 -0.7124
12944TIP3    H160323   3.315   3.659   1.712 -0.1092 -1.9129 -0.5898
12944TIP3    H260324   3.166   3.678   1.692  0.2457 -0.4914 -2.0683
12945TIP3   OH260325   1.362   3.573  11.831  0.8085 -0.6598  0.0416
12945TIP3    H160326   1.291   3.567  11.895 -1.3239  0.5864 -2.0397
12945TIP3    H260327   1.374   3.484  11.799 -2.0933 -0.5709 -1.7241
12946TIP3   OH260328   6.658   3.585   4.311  0.3527  0.1452  0.0313
12946TIP3    H160329   6.644   3.587   4.406 -0.0937 -1.7685  0.0520
12946TIP3    H260330   6.652   3.492   4.288 -0.7788  0.6748 -2.0561
12947TIP3   OH260331   1.507   4.626   0.661 -0.1593  0.4209  0.7155
12947TIP3    H160332   1.418   4.631   0.696  0.3740  2.3802  1.9764
12947TIP3    H260333   1.513   4.539   0.622 -2.5763  0.1921  0.6972
12948TIP3   OH260334   4.610   2.782   1.269  0.1760  0.0012 -0.5661
12948TIP3    H160335   4.684   2.762   1.327  0.0103 -0.3705 -0.4745
12948TIP3    H260336   4.577   2.696   1.243 -1.9557  0.0348  1.6097
12949TIP3   OH260337   2.111   0.077  14.197  0.1474 -0.0268  0.0016
12949TIP3    H160338   2.091   0.033  14.280 -0.4565  1.9752  0.9815
12949TIP3    H260339   2.057   0.155  14.198  1.9477  1.3150 -1.1371
12950TIP3   OH260340   4.136   4.422  13.592 -0.2828 -0.0233  0.0386
12950TIP3    H160341   4.148   4.345  13.647 -2.5011 -0.4424  0.0096
12950TIP3    H260342   4.185   4.491  13.636  0.4514 -1.0594  0.8995
12951TIP3   OH260343   0.364   0.266   2.755 -0.9386  0.2444 -0.2424
12951TIP3    H160344   0.365   0.171   2.745 -0.7203  0.1648  0.4713
12951TIP3    H260345   0.441   0.296   2.706 -0.3044 -0.0631  0.5471
12952TIP3   OH260346   3.004   4.782   5.761  0.1177  0.0879 -0.1325
12952TIP3    H160347   2.913   4.812   5.755  0.5762  1.3440 -1.2124
12952TIP3    H260348   3.033   4.813   5.847 -0.4645 -0.3372  0.2289
12953TIP3   OH260349   2.422   5.636  15.490  0.3173  0.0219  0.0979
12953TIP3    H160350   2.361   5.691  15.441  0.0553 -1.6157 -1.5717
12953TIP3    H260351   2.382   5.625  15.576  0.2634  2.1533  0.3884
12954TIP3   OH260352   1.440   2.088   1.432  0.5225  0.2722 -0.0542
12954TIP3    H160353   1.346   2.102   1.436 -0.0054 -2.5973  0.2198
12954TIP3    H260354   1.459   2.079   1.338  0.2770 -0.3781 -0.0453
12955TIP3   OH260355   2.635   3.666   6.303 -0.6680  0.2664 -0.4621
12955TIP3    H160356   2.675   3.752   6.291 -0.7459  0.5226  0.9186
12955TIP3    H260357   2.694   3.605   6.259  1.4894  0.5941  1.7565
12956TIP3   OH260358   5.736   4.115  13.113 -0.2855  0.3612  0.1864
12956TIP3    H160359   5.811   4.132  13.169  1.0498  2.3098 -2.0062
12956TIP3    H260360   5.699   4.202  13.094 -1.5609 -0.3452 -0.7744
12957TIP3   OH260361   3.646   5.353   3.590 -0.1522 -0.3072 -0.1691
12957TIP3    H160362   3.708   5.296   3.635 -0.3302 -0.0702  0.3898
12957TIP3    H260363   3.575   5.365   3.653 -1.4470 -1.7100 -1.2929
12958TIP3   OH260364   4.075   4.371   0.356  0.0587 -0.0680 -0.6068
12958TIP3    H160365   4.039   4.343   0.272 -0.7047 -0.6762 -0.0928
12958TIP3    H260366   4.138   4.303   0.379 -0.9241 -0.7794  0.0724
12959TIP3   OH260367   1.290   4.161   3.676  0.0258 -0.9288  0.0181
12959TIP3    H160368   1.353   4.127   3.612 -1.0289 -1.6473 -0.6699
12959TIP3    H260369   1.298   4.256   3.668 -0.1902 -1.0045 -1.3097
12960TIP3   OH260370   6.098   1.549   3.482 -0.3888  0.3893  0.4324
12960TIP3    H160371   6.146   1.628   3.506 -0.9194  1.2724 -1.2138
12960TIP3    H260372   6.112   1.489   3.555  2.7544  0.7640  0.2907
12961TIP3   OH260373   4.351   6.154   4.223 -0.8914 -0.2762 -0.2435
12961TIP3    H160374   4.288   6.087   4.198  1.0997 -2.4289  0.1299
12961TIP3    H260375   4.345   6.160   4.318 -1.2314  0.2431 -0.2984
12962TIP3   OH260376   1.379   0.072  13.214 -0.0790  0.2335 -0.1470
12962TIP3    H160377   1.461   0.077  13.264 -0.6471  1.4198  0.7131
12962TIP3    H260378   1.312   0.103  13.275 -1.1489 -0.5372 -0.9022
12963TIP3   OH260379   4.293   2.298   1.062 -0.7301 -0.8055  0.2535
12963TIP3    H160380   4.274   2.335   1.148 -2.9338 -1.0932 -0.0478
12963TIP3    H260381   4.237   2.220   1.057 -0.4613 -0.9252 -1.3499
12964TIP3   OH260382   1.371   1.364  12.153  0.5865 -0.9224 -0.3093
12964TIP3    H160383   1.407   1.351  12.065  2.4593 -1.6212  0.5035
12964TIP3    H260384   1.286   1.321  12.152 -0.2138  0.5530 -2.2576
12965TIP3   OH260385   5.834   6.227  11.267 -0.2737 -0.0913  0.3747
12965TIP3    H160386   5.855   6.319  11.251 -2.5650  0.3945 -0.1882
12965TIP3    H260387   5.811   6.224  11.360 -0.6894  0.0146  0.2762
12966TIP3   OH260388   2.267   0.252   0.374  0.1210 -0.4344 -0.0753
12966TIP3    H160389   2.230   0.187   0.315 -1.8530  0.8328 -0.3215
12966TIP3    H260390   2.252   0.217   0.462 -0.5231 -0.5153 -0.2181
12967TIP3   OH260391   3.598   4.520   0.737  0.1686 -0.2311  0.3916
12967TIP3    H160392   3.693   4.526   0.723  0.0493 -0.5317 -0.5919
12967TIP3    H260393   3.562   4.593   0.688 -0.2399 -1.1631 -0.7495
12968TIP3   OH260394   4.588   5.664  17.125  0.4641  0.2452 -0.8884
12968TIP3    H160395   4.604   5.714  17.206 -1.5723  1.0380 -0.9174
12968TIP3    H260396   4.503   5.621  17.140  0.6040 -0.5212 -2.1733
12969TIP3   OH260397   0.985   0.462  12.218  0.2476 -0.0698  0.0442
12969TIP3    H160398   0.961   0.540  12.268  2.9392  0.6849  0.3331
12969TIP3    H260399   0.942   0.474  12.133 -2.4400 -0.2133  1.2646
12970TIP3   OH260400   3.328   6.194   4.145  0.3135  0.4877  0.3527
12970TIP3    H160401   3.298   6.180   4.055 -0.2369  0.6194  0.5122
12970TIP3    H260402   3.313   6.109   4.188  2.3396 -0.1917 -0.1450
12971TIP3   OH260403   5.569   4.484   0.589  0.6277 -0.5906  0.1802
12971TIP3    H160404   5.500   4.432   0.548 -1.0020  0.7703  1.0952
12971TIP3    H260405   5.650   4.434   0.572 -0.5356 -2.1665 -1.0097
12972TIP3   OH260406   0.045   3.128  10.929  0.0908 -0.2256  0.2465
12972TIP3    H160407   0.118   3.135  10.991  0.5288 -0.1695 -0.2656
12972TIP3    H260408  -0.015   3.065  10.969  0.1963  0.0778  0.8931
12973TIP3   OH260409   2.687   3.391   1.743 -0.1800 -0.6093  0.0654
12973TIP3    H160410   2.656   3.338   1.669 -1.6487 -0.3599  0.4693
12973TIP3    H260411   2.732   3.465   1.703 -0.3683 -0.8299 -0.5650
12974TIP3   OH260412   0.588   3.067   0.518  0.1127  0.6207  0.2357
12974TIP3    H160413   0.683   3.064   0.526  0.0644  2.0800  1.9451
12974TIP3    H260414   0.563   3.146   0.565 -1.8258  1.1585 -1.5694
12975TIP3   OH260415   0.476   4.765   2.612  0.1491 -0.2470 -0.0466
12975TIP3    H160416   0.553   4.797   2.566  0.2892  0.5832  0.7336
12975TIP3    H260417   0.418   4.734   2.542  1.0797 -0.6729 -0.6552
12976TIP3   OH260418   4.970   5.097  11.371 -0.4158  0.1707  0.3092
12976TIP3    H160419   5.003   5.023  11.423 -2.2765  0.3726  1.8796
12976TIP3    H260420   4.939   5.160  11.436 -2.2933  0.7123 -1.0408
12977TIP3   OH260421   0.058   1.686  13.967 -0.3200 -0.3749  0.3054
12977TIP3    H160422   0.095   1.710  13.882  0.4409 -0.0297  0.7279
12977TIP3    H260423   0.035   1.770  14.007  1.1133 -0.3965  1.2392
12978TIP3   OH260424   2.122   1.133   4.455 -0.1686  0.3415  0.1873
12978TIP3    H160425   2.175   1.161   4.529  2.4694 -1.4036 -0.8936
12978TIP3    H260426   2.150   1.044   4.437 -3.8053 -0.8817 -0.2971
12979TIP3   OH260427   4.487   6.270  16.422 -0.6955 -0.1866  0.4657
12979TIP3    H160428   4.531   6.354  16.436 -2.3434  0.8073 -0.0513
12979TIP3    H260429   4.437   6.282  16.341  1.1797 -2.6172 -1.2035
12980TIP3   OH260430   6.447   4.345  10.983 -0.6174  0.3058  0.2616
12980TIP3    H160431   6.499   4.265  10.996 -2.7096 -1.2999 -0.6465
12980TIP3    H260432   6.496   4.395  10.917  0.1186 -0.8463 -0.1005
12981TIP3   OH260433   3.432   1.237  14.458 -0.3736 -0.3075  0.2605
12981TIP3    H160434   3.488   1.231  14.380  0.8207 -1.0401  1.1384
12981TIP3    H260435   3.355   1.184  14.437  0.6429 -1.7871  0.1387
12982TIP3   OH260436   3.100   2.594  15.801  0.3916 -0.0496 -0.2748
12982TIP3    H160437   3.156   2.631  15.869 -0.9217  1.1561  0.1906
12982TIP3    H260438   3.019   2.644  15.806  0.0894 -0.2088 -2.4606
12983TIP3   OH260439   1.349   5.425  16.300 -0.3691  0.5010  0.0455
12983TIP3    H160440   1.301   5.420  16.218  1.5289  0.3646 -1.1195
12983TIP3    H260441   1.420   5.361  16.291  0.0956  0.7286  1.6465
12984TIP3   OH260442   2.876   2.805   2.846 -0.5772  0.5575 -0.2323
12984TIP3    H160443   2.876   2.715   2.877  3.9597 -0.2545 -1.8404
12984TIP3    H260444   2.907   2.856   2.921  1.5605 -0.0580 -0.6262
12985TIP3   OH260445   3.481   0.802   1.352 -0.1638  0.1487 -0.1644
12985TIP3    H160446   3.506   0.857   1.426 -0.3317 -0.2323  0.1854
12985TIP3    H260447   3.392   0.774   1.373  0.2570 -1.0408  0.1643
12986TIP3   OH260448   2.393   6.372   1.739 -0.0504 -0.4119  0.3223
12986TIP3    H160449   2.352   6.343   1.658  0.2663  1.0007 -0.3754
12986TIP3    H260450   2.484   6.390   1.714 -0.4825  2.2859  0.3702
12987TIP3   OH260451   5.413   5.984  16.644  0.3495 -0.5492 -0.0145
12987TIP3    H160452   5.354   5.926  16.692 -0.1818  0.4929  0.6292
12987TIP3    H260453   5.358   6.028  16.580  0.2033  1.0225  1.1185
12988TIP3   OH260454   6.291   1.513   0.329 -0.3455  0.5412  0.2532
12988TIP3    H160455   6.240   1.568   0.269 -0.4146 -1.4790 -1.6740
12988TIP3    H260456   6.226   1.459   0.374 -0.0911 -0.3535 -0.4290
12989TIP3   OH260457   4.659   2.816  10.439  0.7034  0.2421  0.2824
12989TIP3    H160458   4.718   2.799  10.365 -0.6343  0.5961 -0.9132
12989TIP3    H260459   4.579   2.768  10.417  0.1535  0.6620  1.3177
12990TIP3   OH260460   5.146   4.488   3.399  0.0097  0.2893  0.0563
12990TIP3    H160461   5.063   4.514   3.438 -0.0702 -0.2683  0.2609
12990TIP3    H260462   5.121   4.437   3.322  0.1661  0.8342 -0.3641
12991TIP3   OH260463   0.609   5.577  12.744  0.0826  0.2743  0.0902
12991TIP3    H160464   0.600   5.531  12.827 -0.5979  1.6109  0.7843
12991TIP3    H260465   0.563   5.659  12.757 -0.1216  0.4661 -1.6546
12992TIP3   OH260466   2.544   2.332  14.440 -0.5060  0.5552  0.2987
12992TIP3    H160467   2.566   2.408  14.385 -0.3556  0.6341  0.4657
12992TIP3    H260468   2.469   2.292  14.397  0.7744 -0.5123 -1.0715
12993TIP3   OH260469   2.135   3.868   4.624 -0.8313  0.0396 -0.1717
12993TIP3    H160470   2.123   3.933   4.554 -1.6145 -0.4314 -0.4860
12993TIP3    H260471   2.209   3.901   4.674 -0.6749  0.7342 -0.8342
12994TIP3   OH260472   1.315   5.784  16.082 -0.3100  0.0271 -0.9185
12994TIP3    H160473   1.396   5.762  16.036  0.4398  0.7939 -0.0085
12994TIP3    H260474   1.327   5.751  16.171 -1.2243 -0.3298 -0.9147
12995TIP3   OH260475   0.322   4.102   4.629  0.1278 -0.3720  0.4468
12995TIP3    H160476   0.231   4.091   4.655 -0.5755 -1.5674 -2.1826
12995TIP3    H260477   0.318   4.152   4.548  1.9254  0.5157  0.8573
12996TIP3   OH260478   3.349   3.575   4.070 -0.3133  0.1147  0.3843
12996TIP3    H160479   3.368   3.555   4.162 -0.4993 -0.0444  0.3899
12996TIP3    H260480   3.269   3.627   4.074 -0.5212 -0.1967  0.2897
12997TIP3   OH260481   3.539   5.828  14.277  0.1433 -0.0748 -0.0671
12997TIP3    H160482   3.580   5.855  14.359 -0.5707  1.5223 -0.1983
12997TIP3    H260483   3.452   5.867  14.280 -0.9834 -2.4286 -0.3164
12998TIP3   OH260484   1.312   2.673  13.759 -0.1498 -0.3297 -0.4056
12998TIP3    H160485   1.318   2.696  13.666  0.5608 -0.0145 -0.2883
12998TIP3    H260486   1.386   2.615  13.775 -0.6635 -0.9490 -0.1830
12999TIP3   OH260487   4.219   1.127  15.520 -0.3661 -0.6210  0.0246
12999TIP3    H160488   4.290   1.130  15.456 -0.2304 -0.8345  0.1634
12999TIP3    H260489   4.249   1.064  15.586 -0.1924  0.1335  0.6721
13000TIP3   OH260490   3.245   2.460  14.432  0.5163 -0.7285  0.0099
13000TIP3    H160491   3.203   2.517  14.496  1.9414  0.7705 -0.3250
13000TIP3    H260492   3.270   2.382  14.482 -0.3572 -0.5502  0.7554
13001TIP3   OH260493   1.119   5.034   3.228 -0.3594  0.3116 -0.2616
13001TIP3    H160494   1.128   5.104   3.293 -3.6742 -0.2735  1.0717
13001TIP3    H260495   1.204   4.991   3.227  1.6327  3.8736 -0.6849
13002TIP3   OH260496   1.220   4.225   6.153  0.0913  0.1383 -0.1640
13002TIP3    H160497   1.214   4.136   6.187  0.2088  0.3076  0.2972
13002TIP3    H260498   1.174   4.221   6.069  0.8257 -0.5515 -0.5449
13003TIP3   OH260499   4.946   5.860   0.246  0.2074 -0.0316  0.4102
13003TIP3    H160500   5.002   5.785   0.268  2.9932  1.3509 -1.2877
13003TIP3    H260501   4.880   5.862   0.314  1.0003 -3.0532  1.4151
13004TIP3   OH260502   6.584   0.729   0.401  0.5164 -0.0616 -0.1683
13004TIP3    H160503   6.531   0.802   0.434  1.0683  0.6849 -0.8695
13004TIP3    H260504   6.559   0.722   0.309  0.0406 -1.1628  0.0341
13005TIP3   OH260505   2.461   6.305  14.512 -0.3304 -0.6902 -0.4564
13005TIP3    H160506   2.545   6.261  14.526  1.5037  2.0425 -1.8940
13005TIP3    H260507   2.422   6.260  14.437  0.9927 -0.5578 -1.2493
13006TIP3   OH260508   5.396   4.012  10.614 -0.1802 -0.3325 -0.0196
13006TIP3    H160509   5.355   3.939  10.661  0.2591  0.3475  1.5025
13006TIP3    H260510   5.450   3.970  10.548 -0.2558 -1.3836  0.5470
13007TIP3   OH260511   2.081   4.039  15.394  0.0105  0.7294 -0.4533
13007TIP3    H160512   2.117   3.951  15.380 -1.1642  0.3621 -1.2645
13007TIP3    H260513   2.009   4.026  15.455 -0.6770  0.9962 -1.1891
13008TIP3   OH260514   3.393   0.763  14.374 -0.1824 -0.0948 -0.6195
13008TIP3    H160515   3.376   0.822  14.301 -0.9301 -0.5855 -0.8501
13008TIP3    H260516   3.391   0.676  14.336  0.6834 -0.2875 -0.2365
13009TIP3   OH260517   2.303   6.231   3.098 -1.0165 -0.0158  0.3499
13009TIP3    H160518   2.299   6.153   3.043  2.0985 -1.3024  1.7264
13009TIP3    H260519   2.249   6.210   3.174 -0.9320 -0.4579  0.2876
13010TIP3   OH260520   0.179   5.082  15.215 -0.4787  0.4734 -0.2992
13010TIP3    H160521   0.114   5.030  15.169 -0.2155  0.3851 -0.5766
13010TIP3    H260522   0.239   5.112  15.146  1.2809 -1.5843  0.2512
13011TIP3   OH260523   0.687   6.101  14.391  0.2959  0.3582  0.1463
13011TIP3    H160524   0.615   6.038  14.403  0.3255  0.1423 -0.7437
13011TIP3    H260525   0.661   6.177  14.443 -0.2173 -0.0024  0.4349
13012TIP3   OH260526   4.264   4.611  12.497 -0.3638  0.3984 -0.2879
13012TIP3    H160527   4.195   4.577  12.554 -0.4646  2.4105  0.8766
13012TIP3    H260528   4.221   4.680  12.446  0.2707  0.1437 -1.1863
13013TIP3   OH260529   6.481   0.779   0.115  0.0436  0.4574  0.4198
13013TIP3    H160530   6.521   0.793   0.030  0.4158  1.3600  0.7350
13013TIP3    H260531   6.402   0.833   0.114  1.0854  2.0623  1.3596
13014TIP3   OH260532   1.460   6.233   1.229 -0.0516  0.0849 -0.2304
13014TIP3    H160533   1.519   6.200   1.296  2.9815  0.7509 -2.3939
13014TIP3    H260534   1.441   6.323   1.256  0.9691  0.2788 -0.1217
13015TIP3   OH260535   6.762   1.219  10.454 -0.0073 -0.1734 -0.7082
13015TIP3    H160536   6.712   1.266  10.521  2.0062 -1.4373  1.8757
13015TIP3    H260537   6.707   1.144  10.432 -0.4028 -0.1519  0.1450
13016TIP3   OH260538   4.992   1.621  15.981 -0.3717 -0.1339 -0.1139
13016TIP3    H160539   4.923   1.627  15.914 -0.5488  0.6490  0.1276
13016TIP3    H260540   5.038   1.705  15.975  0.2005 -0.4324  0.1169
13017TIP3   OH260541   0.608   3.936   2.018  0.0906 -0.2454 -0.2638
13017TIP3    H160542   0.651   4.022   2.010  1.0380 -0.5123  1.3959
13017TIP3    H260543   0.660   3.878   1.963  1.4542 -0.3936  1.1124
13018TIP3   OH260544   0.084   4.503  16.412  0.1590 -0.2939 -0.1029
13018TIP3    H160545   0.025   4.428  16.406  0.4219 -0.5714  0.6450
13018TIP3    H260546   0.171   4.466  16.403  0.3230 -0.1617  0.7906
13019TIP3   OH260547   6.036   5.488  15.548  0.4471 -0.0465 -0.1522
13019TIP3    H160548   6.010   5.446  15.465  3.6376 -0.6898 -0.9549
13019TIP3    H260549   6.045   5.581  15.526  1.9280 -0.3117 -0.7525
13020TIP3   OH260550   0.715   3.629   1.145 -0.3580  0.0496  0.1839
13020TIP3    H160551   0.770   3.689   1.094  0.2168  0.3881  1.1663
13020TIP3    H260552   0.628   3.639   1.107  0.2563 -0.6073 -1.5052
13021TIP3   OH260553   5.178   1.385  15.363  0.4977 -0.3505 -0.3481
13021TIP3    H160554   5.163   1.417  15.452 -0.0542 -0.2111 -0.4849
13021TIP3    H260555   5.230   1.454  15.321  1.6298 -0.8779  0.1611
13022TIP3   OH260556   4.192   0.292   4.443 -0.6556 -0.4380 -0.3411
13022TIP3    H160557   4.224   0.354   4.509  0.9195 -1.4976 -0.0541
13022TIP3    H260558   4.096   0.294   4.454 -0.4810 -0.1890  1.6383
13023TIP3   OH260559   1.663   4.620  11.897  0.4880  0.0601 -0.1325
13023TIP3    H160560   1.682   4.586  11.809  0.0533  1.8376 -0.9483
13023TIP3    H260561   1.716   4.699  11.904  0.2280  0.1361  1.0780
13024TIP3   OH260562   5.583   5.236   3.177  0.0402 -0.2421 -0.3279
13024TIP3    H160563   5.659   5.229   3.235 -0.4158 -1.2871  0.1808
13024TIP3    H260564   5.519   5.286   3.228 -0.0697 -0.4603 -0.2518
13025TIP3   OH260565   0.615   4.789  12.057  0.0674  0.3710  0.3984
13025TIP3    H160566   0.541   4.747  12.102  0.7416  0.1231  1.3262
13025TIP3    H260567   0.677   4.717  12.042 -0.6748  0.1713 -2.1877
13026TIP3   OH260568   3.798   1.690   4.316 -0.1680  0.3138  0.1668
13026TIP3    H160569   3.780   1.635   4.240  1.8366  0.1822 -0.2692
13026TIP3    H260570   3.814   1.627   4.387  0.7888  0.3261 -0.0153
13027TIP3   OH260571   2.725   0.110   1.261  0.4295 -0.0726 -0.9143
13027TIP3    H160572   2.742   0.150   1.346  0.1272  1.3187 -1.4857
13027TIP3    H260573   2.648   0.056   1.274 -0.6679  1.4942 -0.6849
13028TIP3   OH260574   4.179   4.468  10.828 -0.1070  0.0593 -0.3451
13028TIP3    H160575   4.274   4.473  10.837 -0.3026  0.7341  1.8505
13028TIP3    H260576   4.165   4.435  10.739  2.1145  2.4661 -1.7131
13029TIP3   OH260577   4.609   2.954   5.464 -0.0591  0.6835  0.2707
13029TIP3    H160578   4.648   3.030   5.420  1.4487 -1.1716 -1.7944
13029TIP3    H260579   4.631   2.967   5.557 -1.1411  3.4351  0.2351
13030TIP3   OH260580   0.450   6.291  16.792  0.1807  0.2267  0.0808
13030TIP3    H160581   0.375   6.349  16.776 -0.1178 -0.3090 -0.5559
13030TIP3    H260582   0.469   6.300  16.885 -1.3388 -0.3988  0.4817
13031TIP3   OH260583   5.815   2.681  12.917  0.1617  0.2745  0.3224
13031TIP3    H160584   5.731   2.726  12.927  1.1672  2.8211 -1.5694
13031TIP3    H260585   5.810   2.640  12.831  0.3856 -0.6956  0.7606
13032TIP3   OH260586   2.004   0.295   6.812 -0.3057  0.0892  0.1157
13032TIP3    H160587   2.080   0.302   6.870  1.3736 -1.8468 -1.7009
13032TIP3    H260588   2.011   0.371   6.754  0.4730 -0.2426 -0.2433
13033TIP3   OH260589   1.824   0.834  16.574  1.0128 -0.2387 -0.3414
13033TIP3    H160590   1.885   0.902  16.603  1.7409 -1.2236  0.4778
13033TIP3    H260591   1.822   0.770  16.646  0.6517 -1.2961 -1.2612
13034TIP3   OH260592   6.323   5.151  10.766 -0.0010  0.2963 -0.6509
13034TIP3    H160593   6.388   5.119  10.704  1.4033 -1.1592  1.4364
13034TIP3    H260594   6.369   5.216  10.819 -0.6189  0.1583  0.0721
13035TIP3   OH260595   4.623   5.725   4.774  0.3230  0.3326 -0.3968
13035TIP3    H160596   4.623   5.785   4.700 -0.4938  0.5603 -0.2142
13035TIP3    H260597   4.569   5.652   4.746  0.3375  0.2345 -0.1727
13036TIP3   OH260598   0.107   5.069   1.554 -0.2019  0.0551 -0.4952
13036TIP3    H160599   0.080   5.018   1.631  2.6066 -0.2324  0.4359
13036TIP3    H260600   0.182   5.120   1.585  0.5859  0.4675 -2.8835
13037TIP3   OH260601   4.125   1.918   2.612  0.2978  0.8584 -0.0063
13037TIP3    H160602   4.118   1.854   2.683 -3.5847  0.6081 -0.3575
13037TIP3    H260603   4.086   1.998   2.649 -1.4880  0.8171 -1.6615
13038TIP3   OH260604   6.030   5.260   0.908 -0.2094 -0.3516  0.0299
13038TIP3    H160605   6.066   5.220   0.829  1.6351 -1.2291  1.2332
13038TIP3    H260606   6.033   5.190   0.974  0.1012  0.8501  1.3618
13039TIP3   OH260607   5.932   4.720  12.746  0.5700 -0.3323  0.2128
13039TIP3    H160608   6.019   4.682  12.739  0.9017  0.2650  0.9692
13039TIP3    H260609   5.946   4.807  12.782 -0.3423 -0.2359  0.3710
13040TIP3   OH260610   0.726   6.468   1.724  0.2390 -0.1073  0.1291
13040TIP3    H160611   0.660   6.398   1.727 -0.4546  0.5524  2.1723
13040TIP3    H260612   0.802   6.430   1.769  0.3312  0.0059  0.0675
13041TIP3   OH260613   2.298   0.630   5.427 -0.2239  0.4286 -0.1214
13041TIP3    H160614   2.317   0.629   5.333  1.4194  1.8377  0.1506
13041TIP3    H260615   2.218   0.682   5.434 -0.3008  0.4059 -0.7194
13042TIP3   OH260616   0.470   6.041   3.210 -0.4224  0.3383  0.2779
13042TIP3    H160617   0.410   6.115   3.225  0.7024  1.6440 -1.2653
13042TIP3    H260618   0.530   6.073   3.143  0.9599 -1.5329  0.5574
13043TIP3   OH260619   5.643   4.735  13.667  0.2846 -0.3397  0.0158
13043TIP3    H160620   5.692   4.655  13.645  1.2548 -0.3996  2.0963
13043TIP3    H260621   5.710   4.797  13.696 -0.6801  0.2646  1.0464
13044TIP3   OH260622   4.398   1.042   2.495 -0.6447 -0.0744  0.1057
13044TIP3    H160623   4.468   0.977   2.484 -0.6706  0.1007 -1.4229
13044TIP3    H260624   4.386   1.079   2.407  0.2558  2.9726  1.1559
13045TIP3   OH260625   6.161   5.619   4.313  0.2295  0.8193  0.0250
13045TIP3    H160626   6.219   5.627   4.388  1.1001  1.9957 -0.7290
13045TIP3    H260627   6.074   5.607   4.350  0.7836  0.3128  1.1897
13046TIP3   OH260628   4.192   1.438   0.318  0.1178 -0.2546 -0.0450
13046TIP3    H160629   4.220   1.530   0.318  1.8610 -0.7116 -1.4414
13046TIP3    H260630   4.133   1.430   0.392  1.5891  1.5102  1.4054
13047TIP3   OH260631   0.524   0.009   4.895 -0.0210  0.4029  0.4042
13047TIP3    H160632   0.560   0.002   4.807 -0.8085 -1.8582  0.2098
13047TIP3    H260633   0.533   0.102   4.917 -0.8708  1.2788 -2.5087
13048TIP3   OH260634   2.285   6.565  15.954 -0.0384 -0.0433 -0.1703
13048TIP3    H160635   2.337   6.520  15.888 -0.4967 -1.0491  0.1382
13048TIP3    H260636   2.338   6.642  15.977  0.1968  0.2450 -1.5729
13049TIP3   OH260637   6.269   1.191   4.255 -0.0881  0.6987 -0.7883
13049TIP3    H160638   6.348   1.240   4.277  1.2996 -0.7143 -2.2646
13049TIP3    H260639   6.199   1.256   4.254  1.3144  2.2786 -0.8484
13050TIP3   OH260640   2.216   2.436  12.357  0.7289  0.4135  0.1116
13050TIP3    H160641   2.210   2.340  12.355 -1.3453  0.4646  1.4209
13050TIP3    H260642   2.217   2.458  12.450  1.5228  1.6767 -0.1708
13051TIP3   OH260643   0.980   4.222  16.611 -0.0884 -0.4358 -0.2671
13051TIP3    H160644   0.933   4.172  16.545  0.8297  0.6488 -1.7997
13051TIP3    H260645   1.038   4.157  16.653 -0.9315 -1.1987 -0.2451
13052TIP3   OH260646   3.532   2.802   5.453 -0.1831  0.3930 -0.2342
13052TIP3    H160647   3.448   2.841   5.431 -0.4480 -0.7502 -1.4173
13052TIP3    H260648   3.596   2.853   5.403 -0.1014  1.4997  0.9550
13053TIP3   OH260649   1.637   5.259   2.560 -0.0861  0.2441  0.5356
13053TIP3    H160650   1.683   5.228   2.638 -1.8558 -0.2374  1.4476
13053TIP3    H260651   1.692   5.330   2.527  0.5829  0.6496  2.3806
13054TIP3   OH260652   1.832   4.826  12.024 -0.2097  0.4015  0.1243
13054TIP3    H160653   1.880   4.747  12.046 -1.3204 -0.4021 -0.2858
13054TIP3    H260654   1.791   4.853  12.107 -1.1189 -0.3608 -0.0635
13055TIP3   OH260655   4.246   3.115   6.326  0.5571 -0.3777  0.1714
13055TIP3    H160656   4.194   3.036   6.340 -0.2124  0.0197 -0.3675
13055TIP3    H260657   4.219   3.147   6.240 -0.5243  1.4778  1.1301
13056TIP3   OH260658   5.422   5.181  10.632 -0.0106  0.4291 -0.6803
13056TIP3    H160659   5.458   5.214  10.714 -0.1156 -1.7079  0.3031
13056TIP3    H260660   5.332   5.156  10.654  0.1598 -0.7624 -1.2523
13057TIP3   OH260661   3.872   3.870  15.979 -0.5006  0.4648  0.1223
13057TIP3    H160662   3.914   3.785  15.995 -0.8491  0.5095  1.2930
13057TIP3    H260663   3.779   3.854  15.995 -0.4690  1.2581  1.1250
13058TIP3   OH260664   5.080   0.600   2.706 -0.4839 -0.1709 -0.3054
13058TIP3    H160665   5.034   0.516   2.712  0.9992 -1.1503 -1.7388
13058TIP3    H260666   5.147   0.596   2.775 -1.6878  0.7494  0.9815
13059TIP3   OH260667   6.380   3.458  16.066  0.2984  0.4031  0.2610
13059TIP3    H160668   6.290   3.426  16.059  0.5928 -0.6579  0.9994
13059TIP3    H260669   6.434   3.379  16.058  1.2848  1.2603 -2.1594
13060TIP3   OH260670   5.659   1.264  16.472  0.3744  0.3211  0.7341
13060TIP3    H160671   5.640   1.216  16.552 -0.7212  1.7514  1.3720
13060TIP3    H260672   5.654   1.198  16.403 -1.3311 -0.4593  1.5376
13061TIP3   OH260673   2.837   0.847   0.759  0.3433  0.1011 -0.2901
13061TIP3    H160674   2.871   0.925   0.714  0.4150 -0.2150 -0.7941
13061TIP3    H260675   2.907   0.782   0.751  0.0524 -0.2063 -0.3973
13062TIP3   OH260676   4.311   1.174  16.300  0.0849  0.3264 -0.6163
13062TIP3    H160677   4.255   1.099  16.320  0.1286  0.5215  0.2691
13062TIP3    H260678   4.301   1.187  16.205  1.6419 -2.0616 -1.2133
13063TIP3   OH260679   1.527   0.359   4.254 -0.9363  0.3040 -0.9712
13063TIP3    H160680   1.482   0.425   4.307  0.6274 -1.2219  2.5716
13063TIP3    H260681   1.610   0.401   4.230 -1.7263  1.0671 -2.5127
13064TIP3   OH260682   0.960   1.167  10.815  0.1127 -0.1987 -0.2146
13064TIP3    H160683   0.865   1.164  10.803 -0.1176  0.4825  1.2332
13064TIP3    H260684   0.987   1.248  10.770  0.0811 -0.6104 -0.9894
13065TIP3   OH260685   4.343   1.653   1.434  0.3442 -0.1001  0.1110
13065TIP3    H160686   4.264   1.622   1.391 -0.6395  1.9185  0.3526
13065TIP3    H260687   4.414   1.600   1.397 -0.9218 -0.9215 -1.2061
13066TIP3   OH260688   3.793   5.552   0.801 -0.0847  0.0462 -0.1609
13066TIP3    H160689   3.858   5.600   0.853 -1.2784  2.5531 -0.8371
13066TIP3    H260690   3.709   5.582   0.836 -0.8895 -0.8406 -1.2910
13067TIP3   OH260691   6.331   2.255  14.865  0.5581 -0.6209 -0.0537
13067TIP3    H160692   6.399   2.322  14.856 -0.8182  0.7067 -1.1063
13067TIP3    H260693   6.250   2.299  14.837 -0.7102 -2.2050  0.9139
13068TIP3   OH260694   5.642   3.059  10.899  0.2594 -0.3135 -0.7086
13068TIP3    H160695   5.593   3.125  10.948  0.3612 -0.2823 -0.6499
13068TIP3    H260696   5.680   3.003  10.967 -0.0735 -0.6087 -0.7628
13069TIP3   OH260697   3.986   4.011   2.059  0.4247  0.0512  0.5383
13069TIP3    H160698   3.927   3.947   2.099  0.4035  1.0822  2.2687
13069TIP3    H260699   3.932   4.090   2.049  1.0260  0.4577  0.4845
13070TIP3   OH260700   4.974   2.869  14.516  0.2979 -0.2450 -0.3170
13070TIP3    H160701   5.055   2.915  14.491  0.1518  0.4223  0.3665
13070TIP3    H260702   4.904   2.919  14.474  0.1414  0.1484  0.3856
13071TIP3   OH260703   2.761   4.802  11.549  0.8296  0.0478  0.0455
13071TIP3    H160704   2.771   4.754  11.632  1.6684  0.1043 -0.0099
13071TIP3    H260705   2.816   4.879  11.559  0.7616  0.1693 -0.4844
13072TIP3   OH260706   6.827   4.378   4.100  0.1963 -0.1976  0.6181
13072TIP3    H160707   6.854   4.307   4.041  1.2392  0.6408  0.0372
13072TIP3    H260708   6.746   4.412   4.062 -0.4728 -1.2620  1.0739
13073TIP3   OH260709   2.755   1.966   5.811  0.6713  0.3872 -0.1674
13073TIP3    H160710   2.714   1.977   5.897  1.1710  0.4474  0.0677
13073TIP3    H260711   2.692   1.914   5.761  0.6419 -0.1748  0.4384
13074TIP3   OH260712   5.907   4.695   4.297 -0.1248 -0.1965  0.6038
13074TIP3    H160713   5.859   4.687   4.379 -0.0563 -0.5570  0.6099
13074TIP3    H260714   5.983   4.640   4.308 -0.7688 -1.2783 -0.1773
13075TIP3   OH260715   3.601   0.884  16.028 -0.5108  0.3360 -0.4165
13075TIP3    H160716   3.509   0.873  16.054 -0.3270 -1.4756 -0.3771
13075TIP3    H260717   3.649   0.880  16.111 -0.3095 -0.2528 -0.5541
13076TIP3   OH260718   3.155   4.124  10.840  0.1250 -0.0060 -0.6050
13076TIP3    H160719   3.245   4.155  10.846  0.0778  0.7149 -2.7574
13076TIP3    H260720   3.116   4.174  10.768 -1.7785 -0.8287 -0.2335
13077TIP3   OH260721   1.556   6.734   1.470 -0.3033  0.0206 -0.0976
13077TIP3    H160722   1.604   6.689   1.399  1.6752 -0.1475  1.2584
13077TIP3    H260723   1.549   6.669   1.539  0.4797  1.0370  0.9865
13078TIP3   OH260724   0.817   6.376  11.493 -0.0207 -0.5209 -0.1843
13078TIP3    H160725   0.872   6.420  11.558  0.0464 -0.2038 -0.4534
13078TIP3    H260726   0.825   6.283  11.513 -1.2469 -0.3478  1.2551
13079TIP3   OH260727   1.617   4.145  16.568 -0.2184  0.2256 -0.2085
13079TIP3    H160728   1.572   4.066  16.538  1.3059 -0.9585  0.5264
13079TIP3    H260729   1.581   4.215  16.512 -3.4081 -0.4779  0.7420
13080TIP3   OH260730   6.349   6.635   1.482  0.1533 -0.1095  0.9053
13080TIP3    H160731   6.349   6.566   1.417 -0.1953  0.5131  0.2314
13080TIP3    H260732   6.417   6.610   1.544  3.3335  1.1976 -1.7491
13081TIP3   OH260733   6.570   1.487  15.546 -0.0090  0.1077 -0.0760
13081TIP3    H160734   6.569   1.554  15.478 -0.4675  1.4195  1.2010
13081TIP3    H260735   6.498   1.428  15.523  1.7982 -1.4025 -2.5274
13082TIP3   OH260736   2.990   4.332   5.777 -1.0117 -0.4836 -0.3623
13082TIP3    H160737   3.060   4.396   5.763 -1.4875 -0.2438 -1.8103
13082TIP3    H260738   2.916   4.385   5.807 -1.3666 -0.3573 -1.4354
13083TIP3   OH260739   6.768   3.087   5.396 -0.5590 -0.0746 -0.3013
13083TIP3    H160740   6.760   2.992   5.399  0.9114 -0.2502 -0.7930
13083TIP3    H260741   6.861   3.104   5.414 -0.7002  1.2315 -0.6620
13084TIP3   OH260742   0.630   4.456   1.698  0.2081 -0.0425 -0.2087
13084TIP3    H160743   0.554   4.422   1.650 -0.7283  1.5545  0.0895
13084TIP3    H260744   0.605   4.450   1.790 -0.4103  2.2486 -0.1590
13085TIP3   OH260745   2.765   3.923  16.194 -0.4973  0.2752  0.3451
13085TIP3    H160746   2.676   3.925  16.161 -0.5818  0.3863  0.5821
13085TIP3    H260747   2.767   3.987  16.264 -1.0565 -1.8083  2.4015
13086TIP3   OH260748   4.910   0.698   2.165  0.3513  0.1791  0.4465
13086TIP3    H160749   4.885   0.663   2.250 -0.0122 -0.2651  0.1648
13086TIP3    H260750   4.841   0.667   2.105  0.2802  0.9866  0.1038
13087TIP3   OH260751   1.355   1.872  12.221  0.0387  0.2272  0.2973
13087TIP3    H160752   1.385   1.783  12.240 -0.7458 -0.1783 -0.2807
13087TIP3    H260753   1.363   1.880  12.126 -2.1307 -0.1155  0.0193
13088TIP3   OH260754   6.215   4.185  14.698 -0.3990 -0.5794  0.3290
13088TIP3    H160755   6.243   4.235  14.774 -0.7059 -0.8370  0.6097
13088TIP3    H260756   6.296   4.164  14.651 -0.2827  0.4084  0.0643
13089TIP3   OH260757   1.133   3.947  11.454  0.3032 -0.6580 -0.2417
13089TIP3    H160758   1.054   3.943  11.507  0.9461 -0.7899  0.7281
13089TIP3    H260759   1.199   3.902  11.506  1.0584 -0.4122 -0.9664
13090TIP3   OH260760   1.486   6.413   0.332  0.1943 -0.0231  0.2645
13090TIP3    H160761   1.481   6.469   0.409 -0.8181 -0.4977  0.5495
13090TIP3    H260762   1.423   6.343   0.348 -0.4253  0.1533 -1.2185
13091TIP3   OH260763   6.005   0.103  13.694  0.2054  0.3181  0.1889
13091TIP3    H160764   5.978   0.079  13.783  0.4710  0.8173  0.4153
13091TIP3    H260765   6.094   0.136  13.705  0.4292 -0.1011 -0.3459
13092TIP3   OH260766   6.777   5.281   5.905  0.3817 -0.4430  0.0896
13092TIP3    H160767   6.812   5.206   5.856  0.1518  0.7724 -2.0817
13092TIP3    H260768   6.701   5.309   5.854  0.2315  1.0393  1.0645
13093TIP3   OH260769   0.426   0.654  10.988  0.6828 -0.1986 -0.5200
13093TIP3    H160770   0.480   0.627  11.063 -0.3810  2.1076  1.1826
13093TIP3    H260771   0.490   0.668  10.917  1.7724 -1.8949  0.0565
13094TIP3   OH260772   1.917   2.672   3.742 -0.1583  0.0559  0.3379
13094TIP3    H160773   1.861   2.597   3.720  0.4626 -0.6409  1.0598
13094TIP3    H260774   1.855   2.742   3.763 -0.7719 -0.6349  0.9092
13095TIP3   OH260775   6.510   1.460   2.729  0.0381 -0.6663 -0.0558
13095TIP3    H160776   6.422   1.442   2.762  0.1903 -0.8859  0.2388
13095TIP3    H260777   6.497   1.494   2.641 -0.4041  0.3596  0.3972
13096TIP3   OH260778   5.637   2.353   3.632 -0.1707 -0.4127  0.0854
13096TIP3    H160779   5.571   2.294   3.594 -0.2948  1.2199 -2.5215
13096TIP3    H260780   5.603   2.440   3.613  2.9109  0.5072 -1.8371
13097TIP3   OH260781   5.981   2.609   4.099  0.1214  0.3834  0.2961
13097TIP3    H160782   5.996   2.680   4.036 -0.4390  1.1077  0.9609
13097TIP3    H260783   5.956   2.654   4.180 -0.1978 -0.5782  0.7430
13098TIP3   OH260784   6.117   5.656   3.184  0.1607  1.1335 -0.5749
13098TIP3    H160785   6.163   5.678   3.264 -0.7211 -2.2592  1.0739
13098TIP3    H260786   6.177   5.598   3.137 -0.7793 -0.0291 -0.4017
13099TIP3   OH260787   1.925   3.035  11.057  0.5378  0.0577 -0.1552
13099TIP3    H160788   1.984   3.075  10.993 -0.4994 -0.1051 -1.2713
13099TIP3    H260789   1.898   3.107  11.113  1.9263  0.0935  0.4930
13100TIP3   OH260790   5.676   6.758  11.202 -0.0687 -0.2103  0.2267
13100TIP3    H160791   5.613   6.686  11.203  1.8085 -1.9360  0.1094
13100TIP3    H260792   5.718   6.752  11.116 -0.4450  1.5959 -0.1216
13101TIP3   OH260793   0.021   2.468   0.770 -0.1641  0.4926  0.2415
13101TIP3    H160794  -0.030   2.509   0.841  0.8219 -0.5615  1.5965
13101TIP3    H260795   0.043   2.382   0.804  1.0860  0.3017 -1.0204
13102TIP3   OH260796   4.321   4.222   5.087 -0.3379  0.9676 -0.2299
13102TIP3    H160797   4.284   4.188   5.169  0.5512  0.4003 -0.0446
13102TIP3    H260798   4.289   4.162   5.020  1.5364 -0.5871  0.1428
13103TIP3   OH260799   2.913   1.888  11.824 -0.0304  0.0090  0.1727
13103TIP3    H160800   2.874   1.974  11.809 -1.9606 -0.8123  0.1735
13103TIP3    H260801   2.838   1.828  11.831  1.0719 -1.2153  3.2652
13104TIP3   OH260802   4.753   5.218  10.436  0.4809 -0.6417  0.3785
13104TIP3    H160803   4.705   5.296  10.407 -2.4269 -2.1152  0.7958
13104TIP3    H260804   4.730   5.150  10.372 -0.0650 -2.0525  1.9844
13105TIP3   OH260805   1.854   1.040  15.314 -0.1501 -0.2722  0.2855
13105TIP3    H160806   1.873   1.016  15.404 -0.5815 -1.5827  0.0430
13105TIP3    H260807   1.865   1.135  15.312 -0.3240 -0.2034  1.7505
13106TIP3   OH260808   5.868   4.897  17.119  0.2485 -0.1665 -1.0597
13106TIP3    H160809   5.797   4.869  17.177 -0.8894 -1.6421 -3.0494
13106TIP3    H260810   5.855   4.992  17.110  0.6305  0.1634  1.2164
13107TIP3   OH260811   6.069   4.013   4.918 -0.0043  0.7323  0.1656
13107TIP3    H160812   6.137   4.080   4.918  0.7042  0.0669  1.5097
13107TIP3    H260813   6.002   4.047   4.977 -0.2984  0.8674 -0.2437
13108TIP3   OH260814   5.187   6.139   6.369 -0.5677 -0.4683  0.3687
13108TIP3    H160815   5.220   6.103   6.451  0.7565 -1.8795 -0.7238
13108TIP3    H260816   5.259   6.127   6.306 -0.7542  2.4500 -0.5471
13109TIP3   OH260817   2.349   1.703  15.589 -0.0150 -0.4101 -0.1924
13109TIP3    H160818   2.256   1.680  15.597  0.1064 -1.9984 -2.3014
13109TIP3    H260819   2.394   1.618  15.588  1.1733  0.1952 -1.8239
13110TIP3   OH260820   3.766   3.663   3.376 -0.1444  0.4671 -0.0976
13110TIP3    H160821   3.763   3.639   3.283 -0.0130  1.0779 -0.2641
13110TIP3    H260822   3.831   3.734   3.380 -1.4339  1.6704  0.1830
13111TIP3   OH260823   0.588   0.853  14.599 -0.6564 -0.5898  0.4531
13111TIP3    H160824   0.683   0.847  14.589 -0.8747 -1.1416 -2.1609
13111TIP3    H260825   0.554   0.829  14.513 -3.1458  0.5597  1.0356
13112TIP3   OH260826   4.985   1.617   1.804 -0.1885  0.4972 -0.2071
13112TIP3    H160827   4.993   1.604   1.899  1.3112  0.3848 -0.3285
13112TIP3    H260828   4.911   1.678   1.795  1.1536  2.4943  1.2279
13113TIP3   OH260829   1.844   6.572  11.731 -0.2121  0.2462 -0.1212
13113TIP3    H160830   1.930   6.612  11.719 -0.3766  0.2670 -1.4062
13113TIP3    H260831   1.812   6.609  11.813  0.8054  0.6088  0.1267
13114TIP3   OH260832   0.499   5.828  12.826 -0.4607 -0.5979 -0.4901
13114TIP3    H160833   0.408   5.842  12.803 -0.8741 -0.5910  1.0167
13114TIP3    H260834   0.510   5.875  12.909  1.6533  1.7164 -1.9496
13115TIP3   OH260835   5.727   3.045   6.057  0.5245  0.5144  0.4500
13115TIP3    H160836   5.724   3.113   5.990 -0.1580  0.1489  0.1010
13115TIP3    H260837   5.808   2.997   6.038  0.4694  0.5746  0.0513
13116TIP3   OH260838   2.835   0.727   1.236  0.4069 -0.6952  0.0913
13116TIP3    H160839   2.815   0.736   1.329  0.8536 -0.8925  0.2075
13116TIP3    H260840   2.775   0.788   1.193 -0.4261 -1.2427  0.4327
13117TIP3   OH260841   4.900   2.266  11.691  0.3914  0.2275  0.3547
13117TIP3    H160842   4.970   2.242  11.630 -0.8387 -2.5078 -0.1388
13117TIP3    H260843   4.931   2.347  11.732  3.2625 -0.2076 -0.6909
13118TIP3   OH260844   1.064   4.999  12.307 -0.0761 -0.2289  0.1639
13118TIP3    H160845   1.093   5.004  12.398 -0.0273 -1.3458  0.2239
13118TIP3    H260846   1.121   4.933  12.268  1.2783  1.6370 -1.2265
13119TIP3   OH260847   4.002   4.110   5.529 -0.3731 -0.1597  0.4256
13119TIP3    H160848   3.953   4.033   5.559  0.0240 -0.1355  1.1633
13119TIP3    H260849   3.950   4.185   5.559 -0.6037 -0.1378 -0.0263
13120TIP3   OH260850   0.684   1.710  15.882 -0.3197  0.1012 -0.3336
13120TIP3    H160851   0.650   1.731  15.796  0.7053 -0.1698 -0.8261
13120TIP3    H260852   0.619   1.652  15.921 -0.7386  0.1391 -0.9746
13121TIP3   OH260853   5.759   3.118   1.607  0.7900  0.2563  0.0299
13121TIP3    H160854   5.689   3.135   1.669  0.5086  1.9158 -0.7123
13121TIP3    H260855   5.837   3.157   1.647  0.6427  1.1776 -0.5672
13122TIP3   OH260856   1.442   1.032  13.984  0.5888  0.0665  0.5811
13122TIP3    H160857   1.486   1.022  13.900  1.7715 -1.7051  1.3572
13122TIP3    H260858   1.375   0.964  13.985  0.5249  0.1331  1.0378
13123TIP3   OH260859   3.107   2.098  13.237 -0.0826 -0.3531  0.6569
13123TIP3    H160860   3.094   2.130  13.327 -1.7067 -0.4854  0.4898
13123TIP3    H260861   3.137   2.175  13.189  1.0519 -0.3381  1.3428
13124TIP3   OH260862   1.206   2.214  14.372  0.0485 -0.2546  0.2912
13124TIP3    H160863   1.137   2.168  14.323 -1.5654  0.6153  1.6622
13124TIP3    H260864   1.287   2.174  14.340 -0.9339 -0.3154 -2.4826
13125TIP3   OH260865   6.215   5.845  14.393  0.0124 -0.1963  0.0744
13125TIP3    H160866   6.123   5.817  14.400 -0.5044  1.2699 -0.3029
13125TIP3    H260867   6.210   5.930  14.347  1.5720 -0.1534 -0.0674
13126TIP3   OH260868   6.349   2.804   4.038 -0.1360  0.3222  0.3350
13126TIP3    H160869   6.355   2.737   4.106  1.1081  0.9913  0.9238
13126TIP3    H260870   6.429   2.856   4.049 -1.0353  1.8723 -0.1208
13127TIP3   OH260871   6.517   6.299  15.118 -0.0212  0.5256 -0.1966
13127TIP3    H160872   6.531   6.317  15.211 -0.4829  1.4661 -0.2950
13127TIP3    H260873   6.432   6.254  15.116  0.0287  0.4290 -0.1532
13128TIP3   OH260874   1.054   0.705  13.351 -0.2793  0.3163 -0.4521
13128TIP3    H160875   1.055   0.649  13.273  0.2264 -1.8508  1.0426
13128TIP3    H260876   1.134   0.758  13.343 -0.4036  0.3614 -1.5559
13129TIP3   OH260877   6.400   4.825   2.420  0.0051  0.0099 -0.1088
13129TIP3    H160878   6.466   4.869   2.367  0.9537 -1.0345  0.1778
13129TIP3    H260879   6.351   4.896   2.462 -1.4606  0.9274 -3.1149
13130TIP3   OH260880   1.734   6.051  11.200 -0.2190  0.2069 -0.4163
13130TIP3    H160881   1.778   5.978  11.244 -0.8049  0.4741  0.6392
13130TIP3    H260882   1.734   6.121  11.264 -1.2985  0.5377 -0.7549
13131TIP3   OH260883   0.209   2.170   0.058 -0.8298  0.0339  0.3767
13131TIP3    H160884   0.247   2.241   0.007  1.5972 -1.0368  0.5427
13131TIP3    H260885   0.130   2.207   0.097 -0.6082  2.0522 -0.9830
13132TIP3   OH260886   1.533   4.743  11.630 -0.2690 -0.1763 -0.5273
13132TIP3    H160887   1.467   4.798  11.671  1.8988  1.5511  0.8197
13132TIP3    H260888   1.526   4.658  11.675 -0.9173  0.2892  0.2625
13133TIP3   OH260889   3.369   3.306   3.432  0.3585  0.1947  0.1531
13133TIP3    H160890   3.302   3.335   3.494  0.8721 -1.2666  1.4747
13133TIP3    H260891   3.443   3.280   3.487  1.8838  1.3739 -1.2510
13134TIP3   OH260892   1.827   6.165  12.748 -0.0397  0.4185  0.1249
13134TIP3    H160893   1.887   6.239  12.742  0.6445 -0.1373 -0.0930
13134TIP3    H260894   1.789   6.158  12.660 -0.3377  0.6925  0.2288
13135TIP3   OH260895   2.346   2.507  10.611  0.2278 -0.1943  0.4093
13135TIP3    H160896   2.275   2.569  10.629 -0.3374 -0.9408  0.8279
13135TIP3    H260897   2.372   2.524  10.521  0.7271  1.2822  0.8010
13136TIP3   OH260898   4.569   1.975  12.958  0.3710  0.2806 -0.0084
13136TIP3    H160899   4.539   2.050  12.906  0.6237 -0.5927 -1.4799
13136TIP3    H260900   4.665   1.984  12.959  0.3803  0.1692  0.0963
13137TIP3   OH260901   2.729   2.393   5.684  0.2139 -0.1038 -0.3739
13137TIP3    H160902   2.757   2.408   5.774  0.1282  2.0587 -0.6613
13137TIP3    H260903   2.787   2.323   5.653  0.2076 -0.9333  1.3482
13138TIP3   OH260904   4.642   5.229  14.589  0.6937  0.4424  0.6936
13138TIP3    H160905   4.671   5.215  14.498 -1.2141  0.1519  0.0954
13138TIP3    H260906   4.657   5.322  14.605 -0.1752  0.7994 -0.4044
13139TIP3   OH260907   3.948   3.391   4.433 -0.1713  0.3591 -0.6094
13139TIP3    H160908   3.944   3.310   4.482 -1.7897  1.9611  2.1781
13139TIP3    H260909   3.891   3.377   4.357 -2.4744 -0.3733  1.1503
13140TIP3   OH260910   2.871   3.038  11.179 -0.2167 -0.1784  0.1676
13140TIP3    H160911   2.856   3.133  11.177  1.8138  0.1815 -0.1397
13140TIP3    H260912   2.851   3.009  11.090  0.8194  0.2781 -0.2318
13141TIP3   OH260913   3.180   6.579  15.196  0.2657 -0.1839  0.3773
13141TIP3    H160914   3.216   6.648  15.252  1.8470 -0.2971 -0.4483
13141TIP3    H260915   3.243   6.508  15.201  0.2267 -0.3689 -1.1848
13142TIP3   OH260916   6.196   0.719  16.375 -0.5185  1.2270  0.4671
13142TIP3    H160917   6.262   0.788  16.380 -0.1883  0.9267  0.3032
13142TIP3    H260918   6.140   0.744  16.300 -0.5837  1.4708  0.5961
13143TIP3   OH260919   2.986   5.973   0.195 -0.2526 -0.0449  0.0743
13143TIP3    H160920   2.971   5.917   0.118 -2.9549  0.1859  0.3461
13143TIP3    H260921   2.988   5.911   0.269  1.3734 -0.1734 -0.0527
13144TIP3   OH260922   6.116   1.933  15.744 -0.3028 -0.0868 -0.7462
13144TIP3    H160923   6.071   2.006  15.702  1.2756  1.0209 -0.6143
13144TIP3    H260924   6.053   1.899  15.807 -1.5839  0.2300 -1.7981
13145TIP3   OH260925   6.728   4.746   5.232  0.0314  0.1492 -0.0064
13145TIP3    H160926   6.667   4.787   5.171 -1.9186 -0.1497  1.6294
13145TIP3    H260927   6.697   4.774   5.319  1.0098 -1.6078  0.9654
13146TIP3   OH260928   5.922   1.896   3.854 -0.1359  0.3449 -0.2037
13146TIP3    H160929   5.889   1.828   3.913  2.2361 -1.9949 -1.3484
13146TIP3    H260930   5.975   1.953   3.910 -0.5566  0.0974  0.4609
13147TIP3   OH260931   5.060   5.759  12.194 -0.4691  0.1327 -0.3870
13147TIP3    H160932   5.088   5.811  12.270  0.3201  0.0166 -0.5895
13147TIP3    H260933   5.058   5.669  12.226  0.2397  0.0373 -0.6019
13148TIP3   OH260934   1.655   3.294  12.021 -0.2061  0.4360 -0.1421
13148TIP3    H160935   1.701   3.365  11.976  0.3655  0.1384 -0.0310
13148TIP3    H260936   1.583   3.338  12.068  0.3761  0.9882  0.2465
13149TIP3   OH260937   4.931   6.821   4.248 -0.0146  0.7003  1.1655
13149TIP3    H160938   4.978   6.904   4.238 -1.3226  1.2570 -1.0187
13149TIP3    H260939   4.941   6.778   4.164 -0.3868 -0.8285  1.8782
13150TIP3   OH260940   6.518   6.819  14.616  0.2587  0.5771  0.0215
13150TIP3    H160941   6.423   6.815  14.630  0.3484 -0.5280  0.3836
13150TIP3    H260942   6.550   6.879  14.683 -0.3240  2.0893 -0.9785
13151TIP3   OH260943   1.103   1.142  14.610  0.1332 -0.2985  0.8271
13151TIP3    H160944   1.109   1.063  14.665 -0.6360  0.2468  1.7198
13151TIP3    H260945   1.067   1.209  14.668  1.1266  0.8282  0.1871
13152TIP3   OH260946   6.254   4.016  11.829  0.6366  0.5623 -0.2755
13152TIP3    H160947   6.216   4.017  11.916  0.0821 -0.4506 -0.4924
13152TIP3    H260948   6.281   3.925  11.815 -0.4404  0.4220 -1.6436
13153TIP3   OH260949   1.980   2.175  11.652 -0.2358  0.2473 -0.1384
13153TIP3    H160950   1.901   2.121  11.645 -1.1733  1.6200 -0.6011
13153TIP3    H260951   1.959   2.238  11.721 -0.0082  1.3400 -1.0348
13154TIP3   OH260952   1.796   1.783  11.929  0.2411  0.5039 -0.5951
13154TIP3    H160953   1.843   1.867  11.922  0.7932  0.2884  0.3346
13154TIP3    H260954   1.844   1.725  11.869  0.2449  0.6777 -0.7648
13155TIP3   OH260955   4.289   0.225  15.858 -0.1041 -0.0268 -0.1741
13155TIP3    H160956   4.212   0.217  15.913  0.1313 -0.3879  0.1053
13155TIP3    H260957   4.308   0.319  15.858 -2.2859  0.5229 -2.6911
13156TIP3   OH260958   6.782   2.725   1.270 -0.4810 -0.2841 -0.6971
13156TIP3    H160959   6.834   2.799   1.301  0.0039 -0.0681 -1.9662
13156TIP3    H260960   6.707   2.721   1.329  2.0996 -2.1311  2.7818
13157TIP3   OH260961   0.832   4.216   2.263  0.2582  0.4825  0.2256
13157TIP3    H160962   0.927   4.210   2.268  0.3604  1.4811 -0.3607
13157TIP3    H260963   0.802   4.125   2.265  1.1318  0.1943  1.9342
13158TIP3   OH260964   0.358   1.498  10.813  0.0859  0.2239 -0.0935
13158TIP3    H160965   0.271   1.496  10.852  0.4614 -0.6955  0.7522
13158TIP3    H260966   0.411   1.549  10.874 -0.3658  2.9418 -1.8187
13159TIP3   OH260967   6.563   1.399   3.931 -0.1705  0.0951 -0.3803
13159TIP3    H160968   6.473   1.430   3.924 -0.3161  0.3168  1.6607
13159TIP3    H260969   6.556   1.310   3.966  0.3782  0.3395  0.4102
13160TIP3   OH260970   6.023   2.831   4.531 -0.4500 -0.2426 -0.0224
13160TIP3    H160971   6.018   2.924   4.509 -2.1428 -0.0318  1.0394
13160TIP3    H260972   6.044   2.829   4.625  0.8854 -0.9860 -0.3092
13161TIP3   OH260973   6.728   4.269  14.602  0.4262  0.4503 -1.5921
13161TIP3    H160974   6.681   4.334  14.550 -0.9672 -0.0585 -1.0118
13161TIP3    H260975   6.688   4.274  14.689 -0.1866 -1.6041 -1.7004
13162TIP3   OH260976   0.859   0.260  14.161 -0.4511  0.3063 -0.1168
13162TIP3    H160977   0.805   0.306  14.225 -1.1535 -0.5777 -0.0467
13162TIP3    H260978   0.931   0.320  14.142  1.6281 -0.5767  3.8722
13163TIP3   OH260979   3.562   4.650  16.311  0.1988 -0.0111  0.2574
13163TIP3    H160980   3.584   4.728  16.362 -1.0904  0.2099  0.4857
13163TIP3    H260981   3.527   4.684  16.229  1.4311 -0.3729 -0.4583
13164TIP3   OH260982   6.126   5.983  11.865  0.3472  0.1240 -0.0807
13164TIP3    H160983   6.129   6.077  11.881 -1.1206 -0.2123  2.9392
13164TIP3    H260984   6.209   5.950  11.900  1.5772  0.3474 -2.5553
13165TIP3   OH260985   5.309   3.829  14.557  0.3232 -0.2084  0.0167
13165TIP3    H160986   5.346   3.916  14.567 -0.5941  0.4874 -1.9695
13165TIP3    H260987   5.385   3.773  14.540  0.8796  0.2953  0.8070
13166TIP3   OH260988   3.320   2.355  13.838 -0.4632 -0.2668  0.7041
13166TIP3    H160989   3.354   2.369  13.926  0.3628 -1.2156  0.5565
13166TIP3    H260990   3.307   2.443  13.802  2.1039  0.1684  0.6864
13167TIP3   OH260991   4.767   1.963  11.337  0.0945 -0.1358  0.5318
13167TIP3    H160992   4.810   1.986  11.255 -2.5855 -0.2552 -1.0410
13167TIP3    H260993   4.758   2.046  11.384 -2.3052  0.8667 -1.4321
13168TIP3   OH260994   2.109   1.006   2.439  0.1000  0.6026 -0.1124
13168TIP3    H160995   2.183   0.992   2.498  1.0056 -0.9176 -1.5407
13168TIP3    H260996   2.121   1.095   2.406  0.4231  0.9163  0.8015
13169TIP3   OH260997   4.056   4.387  12.282 -0.0936 -0.4904  0.1045
13169TIP3    H160998   4.035   4.392  12.375 -1.4759  2.1418 -0.2703
13169TIP3    H260999   3.970   4.386  12.238  0.3407  3.6100 -1.2530
13170TIP3   OH261000   0.150   5.021  12.690 -0.1797  0.5546  0.1729
13170TIP3    H161001   0.064   4.987  12.717 -0.5313  1.4454  0.2108
13170TIP3    H261002   0.152   5.008  12.595  0.1918 -0.6677  0.3361
13171TIP3   OH261003   3.348   5.645   2.573 -0.2405  0.2789  0.1028
13171TIP3    H161004   3.433   5.614   2.544 -0.3753  1.0831 -1.2041
13171TIP3    H261005   3.327   5.589   2.648  1.0574 -0.4631 -0.0573
13172TIP3   OH261006   6.118   2.946  12.290  0.6003  0.5955  1.0579
13172TIP3    H161007   6.035   2.905  12.316  0.9080  0.3980  1.7593
13172TIP3    H261008   6.097   2.993  12.209 -0.2632  0.7971  1.3853
13173TIP3   OH261009   2.398   3.420   3.794 -0.3734  0.2772 -0.4191
13173TIP3    H161010   2.493   3.424   3.800 -0.4641  0.2720  1.5138
13173TIP3    H261011   2.377   3.328   3.810 -0.7360  0.4059 -0.1288
13174TIP3   OH261012   0.524   1.846   0.779 -0.4480 -0.0751  0.1597
13174TIP3    H161013   0.618   1.832   0.787 -0.5385  0.0971  1.7745
13174TIP3    H261014   0.485   1.790   0.846 -1.2482  2.5175  1.9760
13175TIP3   OH261015   0.737   4.324   2.729  0.1049  0.1528  0.9056
13175TIP3    H161016   0.710   4.259   2.664 -0.8511  0.9636  0.4663
13175TIP3    H261017   0.659   4.379   2.742  1.1942  1.8967  0.4196
13176TIP3   OH261018   3.398   5.444   5.019  0.6048 -0.4615  0.1124
13176TIP3    H161019   3.406   5.361   5.066 -1.0219 -1.0782 -0.6222
13176TIP3    H261020   3.487   5.480   5.019  1.1465 -1.6873  1.3463
13177TIP3   OH261021   3.021   3.855  16.327  0.4047  0.2188 -0.4966
13177TIP3    H161022   3.100   3.902  16.302  0.9544 -0.7796 -0.6896
13177TIP3    H261023   2.970   3.849  16.246  1.4040 -1.5236 -1.0370
13178TIP3   OH261024   1.114   1.170   4.861  0.6403 -0.2884 -0.3710
13178TIP3    H161025   1.110   1.144   4.953  0.6462  0.0991 -0.2592
13178TIP3    H261026   1.166   1.250   4.861 -1.9369  1.4904 -0.3061
13179TIP3   OH261027   1.858   0.676  15.605 -0.0565  0.3298 -0.0917
13179TIP3    H161028   1.915   0.600  15.596 -1.7470 -1.0712  0.5419
13179TIP3    H261029   1.797   0.669  15.531  1.3224  2.5625 -1.5724
13180TIP3   OH261030   5.275   6.143  13.987 -0.3093 -0.5286 -0.3104
13180TIP3    H161031   5.233   6.058  13.998 -2.6522  0.6521  0.6066
13180TIP3    H261032   5.211   6.195  13.937  1.4824  0.4307 -1.7382
13181TIP3   OH261033   5.561   1.560  12.666 -0.6909 -0.0837 -0.1182
13181TIP3    H161034   5.477   1.599  12.690 -0.7286  0.8859 -1.7494
13181TIP3    H261035   5.561   1.475  12.712 -2.0128  0.4114  0.8739
13182TIP3   OH261036   3.079   4.246  10.610  0.7385  0.0212  0.3889
13182TIP3    H161037   3.112   4.283  10.529  0.0230  0.9359  0.5017
13182TIP3    H261038   3.037   4.164  10.584 -0.2269  0.7118 -0.3036
13183TIP3   OH261039   2.033   5.217  13.856 -0.1089  0.2533  0.0457
13183TIP3    H161040   1.953   5.263  13.880  1.0052  3.1324 -1.2189
13183TIP3    H261041   2.102   5.263  13.905  1.3769  1.8702 -3.1930
13184TIP3   OH261042   1.928   6.404   1.385  0.3320  0.0528 -0.4173
13184TIP3    H161043   1.956   6.475   1.443 -1.7448  0.5125  0.1144
13184TIP3    H261044   1.890   6.448   1.309 -0.9815 -0.4422 -0.0769
13185TIP3   OH261045   5.706   6.235  15.293 -0.0018 -0.2298  0.0539
13185TIP3    H161046   5.643   6.174  15.255 -0.8673  0.8096 -0.2242
13185TIP3    H261047   5.662   6.269  15.371  0.9050 -0.7304  0.8139
13186TIP3   OH261048   3.282   3.703  10.408 -0.2699  0.4183  0.1720
13186TIP3    H161049   3.339   3.640  10.453 -1.3730 -0.3428  0.5541
13186TIP3    H261050   3.319   3.709  10.320 -1.9469 -3.3276 -0.9834
13187TIP3   OH261051   3.058   5.701   4.702 -0.4998  0.3973 -0.2048
13187TIP3    H161052   3.095   5.644   4.769 -1.6388  0.4780  0.5347
13187TIP3    H261053   3.110   5.684   4.624 -0.7092 -1.5644  0.0240
13188TIP3   OH261054   4.482   4.853  15.861  0.1272  0.1680  0.0902
13188TIP3    H161055   4.489   4.948  15.850 -1.4827  0.1555 -1.5841
13188TIP3    H261056   4.412   4.842  15.926 -0.9986  0.1645 -1.0749
13189TIP3   OH261057   3.495   6.041  13.556  0.2432  0.4076  0.0800
13189TIP3    H161058   3.536   6.059  13.641  0.4048  1.6347 -0.2420
13189TIP3    H261059   3.436   5.968  13.573 -0.4664  1.2718  1.4901
13190TIP3   OH261060   3.456   1.967   4.870 -0.0790 -0.0502 -0.1304
13190TIP3    H161061   3.418   1.882   4.893 -0.1958 -0.4271 -1.5713
13190TIP3    H261062   3.546   1.946   4.843  0.3600  0.4958  0.8499
13191TIP3   OH261063   1.949   4.198  15.676 -0.5430  0.0539 -0.1232
13191TIP3    H161064   1.893   4.273  15.698 -1.0786  0.2288 -1.9155
13191TIP3    H261065   1.891   4.122  15.685  0.2411 -0.3305  2.6072
13192TIP3   OH261066   4.457   0.653   5.286 -0.0233  0.1593 -0.0143
13192TIP3    H161067   4.401   0.643   5.363 -0.6969 -0.8988 -0.6097
13192TIP3    H261068   4.400   0.694   5.221  0.8539  2.0605  0.3629
13193TIP3   OH261069   1.751   2.269  12.142 -0.4542  0.0708  0.3448
13193TIP3    H161070   1.823   2.330  12.130  2.1716 -2.8516 -0.0554
13193TIP3    H261071   1.719   2.285  12.231  2.3704 -0.0848  1.4815
13194TIP3   OH261072   2.730   1.038   3.746  0.2222 -0.4056  0.0158
13194TIP3    H161073   2.692   0.951   3.760 -0.9348 -0.1138 -1.0842
13194TIP3    H261074   2.711   1.057   3.654  1.8376  0.3655 -0.1891
13195TIP3   OH261075   2.300   1.612   3.128  0.5868  0.7266 -0.1126
13195TIP3    H161076   2.312   1.548   3.198  1.6467 -0.0442 -0.9556
13195TIP3    H261077   2.373   1.595   3.068 -1.1878  0.2157 -2.2780
13196TIP3   OH261078   3.159   4.844   5.116 -0.0379  0.2753  0.0301
13196TIP3    H161079   3.179   4.912   5.181  0.3682 -0.4558  0.6975
13196TIP3    H261080   3.232   4.782   5.124  0.5649  0.6687 -1.8494
13197TIP3   OH261081   0.775   5.395  13.148 -0.0998  0.2726 -0.2864
13197TIP3    H161082   0.857   5.414  13.193 -0.2074  3.2370 -1.1595
13197TIP3    H261083   0.800   5.382  13.056 -0.6359  2.0392 -0.7117
13198TIP3   OH261084   5.305   1.700  12.187 -0.3205 -0.1722  0.5593
13198TIP3    H161085   5.339   1.611  12.177  1.6974  0.7321 -1.5626
13198TIP3    H261086   5.326   1.723  12.278 -1.0780 -1.8951  1.2115
13199TIP3   OH261087   6.353   4.544   3.771  0.3874  0.4555  0.1908
13199TIP3    H161088   6.381   4.628   3.809  3.9939 -1.2959  1.8632
13199TIP3    H261089   6.399   4.539   3.687 -0.4573  0.4234 -0.2888
13200TIP3   OH261090   5.249   4.762  10.993  0.2136  0.1247  0.1586
13200TIP3    H161091   5.226   4.777  10.901 -0.6203 -0.5555  0.2526
13200TIP3    H261092   5.190   4.693  11.022  1.3875 -0.6388  0.8257
13201TIP3   OH261093   4.310   5.210  13.278  0.6027 -0.3497 -0.3952
13201TIP3    H161094   4.248   5.141  13.255  0.1813  0.1131 -0.6801
13201TIP3    H261095   4.342   5.241  13.193 -1.4556  1.8296 -0.4747
13202TIP3   OH261096   4.884   4.125  11.281  0.4417  0.4634 -0.2510
13202TIP3    H161097   4.789   4.132  11.276  0.3007  1.2090  2.0915
13202TIP3    H261098   4.917   4.194  11.224 -0.4854  1.2632  0.1531
13203TIP3   OH261099   0.140   1.961   3.689 -0.0628  0.2977 -0.1360
13203TIP3    H161100   0.216   2.013   3.714 -0.0833  0.2285  0.0738
13203TIP3    H261101   0.130   1.976   3.595  2.5499 -2.7046 -1.0487
13204TIP3   OH261102   1.874   3.444   4.829  0.3478 -0.0595  0.0476
13204TIP3    H161103   1.798   3.474   4.779 -2.1471 -2.3464  2.1428
13204TIP3    H261104   1.895   3.358   4.791  1.9754  0.5361 -0.5018
13205TIP3   OH261105   1.129   3.224   2.236  0.4870  0.1559 -0.1996
13205TIP3    H161106   1.115   3.232   2.141  0.8221  0.0355 -0.2584
13205TIP3    H261107   1.044   3.248   2.274  0.3649  0.2535 -0.5272
13206TIP3   OH261108   1.720   0.202   2.072  0.1512 -0.1776  0.2134
13206TIP3    H161109   1.733   0.254   2.152 -2.2225  0.1373  0.4662
13206TIP3    H261110   1.629   0.172   2.078  0.4509 -1.5701 -1.5804
13207TIP3   OH261111   6.064   0.209   1.864  0.2700  0.2866 -0.4702
13207TIP3    H161112   5.984   0.250   1.895 -0.5404 -0.7933 -1.0766
13207TIP3    H261113   6.123   0.282   1.845 -0.5985  1.0900 -0.1020
13208TIP3   OH261114   1.341   3.145  14.585  0.2359  0.2796  0.0657
13208TIP3    H161115   1.433   3.127  14.605  0.4050 -0.7425 -1.4853
13208TIP3    H261116   1.322   3.227  14.632  2.1509  0.9220 -0.1933
13209TIP3   OH261117   5.011   3.398  11.956 -0.1027 -0.0457  0.1117
13209TIP3    H161118   5.080   3.333  11.969 -0.4185 -0.8034 -1.6631
13209TIP3    H261119   4.932   3.345  11.942 -0.8265  0.7867  0.9322
13210TIP3   OH261120   0.804   6.368  11.182 -0.1909  0.3740  0.4803
13210TIP3    H161121   0.711   6.346  11.191  0.1192 -1.1972  0.1210
13210TIP3    H261122   0.838   6.363  11.271 -0.2314 -0.2101  0.4711
13211TIP3   OH261123   3.614   3.045   2.789 -0.6106 -0.2018 -0.5533
13211TIP3    H161124   3.575   3.047   2.701 -0.4886  0.2441 -0.6018
13211TIP3    H261125   3.571   2.972   2.833 -0.9475 -0.1920 -0.8593
13212TIP3   OH261126   2.422   3.835   1.203 -0.2808 -0.1164 -0.2353
13212TIP3    H161127   2.488   3.895   1.236 -1.4682  2.0909 -1.5698
13212TIP3    H261128   2.347   3.847   1.261 -0.1876 -1.1460  0.1220
13213TIP3   OH261129   6.589   0.420  11.330 -0.3917 -0.5509  0.8282
13213TIP3    H161130   6.517   0.372  11.288 -1.1011  1.0903  0.0637
13213TIP3    H261131   6.630   0.468  11.258  0.3557 -0.0821  1.5485
13214TIP3   OH261132   6.548   4.815  15.170  0.1648 -0.3936 -0.4702
13214TIP3    H161133   6.570   4.899  15.127 -1.5637  1.5123  2.0736
13214TIP3    H261134   6.620   4.801  15.231 -0.8239  0.7705  1.0385
13215TIP3   OH261135   1.904   0.253  14.702 -0.2789  0.0510  0.1009
13215TIP3    H161136   1.848   0.230  14.627 -1.2589  0.5298  0.6641
13215TIP3    H261137   1.949   0.172  14.724 -0.9352 -0.4159 -0.2340
13216TIP3   OH261138   2.286   2.692   3.473  0.0098 -0.2660  0.0056
13216TIP3    H161139   2.256   2.669   3.560 -0.4965  1.3026  0.2833
13216TIP3    H261140   2.262   2.785   3.463  1.6891  0.0949 -1.0859
13217TIP3   OH261141   2.399   3.848  11.506 -0.0340  0.1933  0.2541
13217TIP3    H161142   2.464   3.780  11.494  0.4726  0.7779 -0.4363
13217TIP3    H261143   2.403   3.899  11.425 -0.8314  0.6755  0.5048
13218TIP3   OH261144   5.545   2.316  15.322 -0.1005 -0.3439  0.5623
13218TIP3    H161145   5.613   2.250  15.336  0.7224  0.2609 -0.3968
13218TIP3    H261146   5.548   2.334  15.228 -0.4151  0.9322  0.7685
13219TIP3   OH261147   6.320   3.473   3.420 -0.4160 -0.0305 -0.2907
13219TIP3    H161148   6.271   3.544   3.461  0.1877 -0.4944  1.3076
13219TIP3    H261149   6.375   3.517   3.354 -1.2209  0.7619 -0.4614
13220TIP3   OH261150   3.200   5.115   2.360  0.4193  0.1590  0.1041
13220TIP3    H161151   3.186   5.110   2.455  1.0242  1.4337  0.2899
13220TIP3    H261152   3.279   5.168   2.350  0.8321 -0.6362 -1.1072
13221TIP3   OH261153   2.494   5.557  16.198 -0.2632 -0.2124 -0.1504
13221TIP3    H161154   2.433   5.587  16.130 -1.3245 -1.6814  0.1119
13221TIP3    H261155   2.495   5.462  16.190 -0.2181 -0.4056  1.7200
13222TIP3   OH261156   0.778   6.672  11.395 -0.2096  0.2139  0.3278
13222TIP3    H161157   0.683   6.676  11.407 -0.2672 -0.2310  0.0295
13222TIP3    H261158   0.798   6.578  11.394  0.1867  0.3001  0.0192
13223TIP3   OH261159   4.286   3.070   2.323  0.4230  0.5593 -0.3913
13223TIP3    H161160   4.218   3.137   2.328 -0.0013  0.0389  1.8187
13223TIP3    H261161   4.357   3.103   2.379  1.5385  0.5528 -1.7413
13224TIP3   OH261162   1.322   3.179  10.598  0.3140  0.2037 -0.1789
13224TIP3    H161163   1.309   3.122  10.521  1.1432  1.3590 -1.2122
13224TIP3    H261164   1.416   3.179  10.612  0.3582  1.5254 -0.3736
13225TIP3   OH261165   0.699   4.207   2.022  0.4669 -0.9621 -0.0290
13225TIP3    H161166   0.729   4.218   2.112  0.8317 -0.5760 -0.1968
13225TIP3    H261167   0.729   4.285   1.977 -2.3871  0.3895  0.1931
13226TIP3   OH261168   1.805   6.540  16.598  0.2402  0.5900  0.3974
13226TIP3    H161169   1.867   6.556  16.669  0.8168 -0.0060  0.0306
13226TIP3    H261170   1.833   6.457  16.560 -0.7696  0.3254  0.2089
13227TIP3   OH261171   6.303   5.524   0.251 -0.4015  0.5038 -0.9144
13227TIP3    H161172   6.386   5.558   0.218 -2.1325  3.0240 -3.0296
13227TIP3    H261173   6.281   5.452   0.192  1.1709 -1.6117  0.9271
13228TIP3   OH261174   2.806   1.751   5.243  0.4296 -0.2681  0.0208
13228TIP3    H161175   2.885   1.783   5.288  1.1093 -0.3217 -1.0911
13228TIP3    H261176   2.780   1.824   5.187 -0.5645 -0.1042  0.6744
13229TIP3   OH261177   4.569   1.935   4.755  0.0367  0.3279 -0.5722
13229TIP3    H161178   4.615   1.941   4.839 -1.8587  0.2546  0.5219
13229TIP3    H261179   4.531   2.022   4.742  0.7996  0.5247 -1.6966
13230TIP3   OH261180   4.664   0.370   6.064  0.6023 -0.6240  0.5457
13230TIP3    H161181   4.743   0.424   6.069  2.0249 -2.3726 -1.4544
13230TIP3    H261182   4.684   0.291   6.114  0.7340 -1.7046 -1.1306
13231TIP3   OH261183   3.245   4.176  11.172  0.0180 -0.2974 -0.4496
13231TIP3    H161184   3.253   4.086  11.140 -0.6162  0.3020 -2.4404
13231TIP3    H261185   3.152   4.185  11.194  0.5482 -0.9147  2.4553
13232TIP3   OH261186   4.457   0.866   1.830 -0.1695  0.4653 -0.2402
13232TIP3    H161187   4.398   0.808   1.780 -0.4936  0.8057 -0.2577
13232TIP3    H261188   4.446   0.838   1.921 -0.1303  0.3266 -0.2778
13233TIP3   OH261189   6.549   2.933   4.928  0.5771 -0.4343  0.2533
13233TIP3    H161190   6.563   2.972   4.841  1.3334 -0.5793  0.2987
13233TIP3    H261191   6.627   2.880   4.943  0.0525 -1.1118  0.6551
13234TIP3   OH261192   6.182   6.131   4.611  1.0067  0.0646 -0.0832
13234TIP3    H161193   6.124   6.147   4.536  1.0251  1.7295  0.2241
13234TIP3    H261194   6.144   6.182   4.682 -0.7651 -3.7591  2.0429
13235TIP3   OH261195   3.038   0.962   0.075 -0.0926  0.5860 -0.0079
13235TIP3    H161196   2.951   0.999   0.061  0.0503  1.2318  0.7199
13235TIP3    H261197   3.023   0.882   0.127 -0.3776 -0.2432 -1.3298
13236TIP3   OH261198   6.784   5.466   0.587 -0.0317 -0.2899 -0.4565
13236TIP3    H161199   6.852   5.447   0.651 -0.1188  0.5160 -0.1105
13236TIP3    H261200   6.702   5.460   0.637  0.0408  3.7777  0.4890
13237TIP3   OH261201   5.363   2.093  16.304  0.1577 -0.0832  0.3877
13237TIP3    H161202   5.454   2.064  16.317 -0.2834 -1.1591  1.2641
13237TIP3    H261203   5.310   2.022  16.342 -1.1037 -0.4428 -1.8891
13238TIP3   OH261204   3.677   5.377  13.407  0.1407  0.1981 -0.0412
13238TIP3    H161205   3.771   5.394  13.402  0.3285 -0.6951  0.2818
13238TIP3    H261206   3.670   5.282  13.416 -0.7601  0.3094  0.5988
13239TIP3   OH261207   6.750   4.260  16.355 -0.6028 -0.1832  0.4701
13239TIP3    H161208   6.730   4.258  16.449 -1.1884 -0.2935  0.3453
13239TIP3    H261209   6.665   4.253  16.312 -0.3952  0.5383 -0.0727
13240TIP3   OH261210   2.827   6.692  15.568 -0.6165 -0.2889 -0.3539
13240TIP3    H161211   2.765   6.688  15.641  0.6532  0.1802  0.7685
13240TIP3    H261212   2.787   6.755  15.507 -1.5267 -0.4429  0.0665
13241TIP3   OH261213   5.748   3.394   3.583  0.1482  0.4196 -0.2697
13241TIP3    H161214   5.673   3.338   3.564  0.6333 -0.5094  0.4273
13241TIP3    H261215   5.812   3.375   3.514 -0.3027  1.3522 -0.9741
13242TIP3   OH261216   0.792   1.661  10.928 -0.0054 -0.2711  0.0595
13242TIP3    H161217   0.845   1.670  10.849  1.1875 -1.3569  0.6904
13242TIP3    H261218   0.855   1.634  10.995 -1.1629 -0.3398  1.1387
13243TIP3   OH261219   3.818   6.002   0.221 -0.1293 -0.2282 -0.4169
13243TIP3    H161220   3.828   6.042   0.308  0.9005  1.3928 -1.2387
13243TIP3    H261221   3.743   6.048   0.182 -1.2274 -1.6354 -0.0703
13244TIP3   OH261222   0.272   1.007  16.417 -0.4010  0.2165 -0.3623
13244TIP3    H161223   0.177   1.005  16.410 -0.3781  0.2882 -0.7333
13244TIP3    H261224   0.293   0.940  16.482 -0.8565  1.7886  1.4851
13245TIP3   OH261225   2.749   4.875   5.508 -0.4657 -0.1075 -0.0466
13245TIP3    H161226   2.765   4.897   5.600 -1.6258  0.6529  0.0012
13245TIP3    H261227   2.689   4.943   5.477 -1.9113 -1.5976 -0.7160
13246TIP3   OH261228   0.233   2.969  16.386 -0.0919  0.3618  0.1513
13246TIP3    H161229   0.263   2.893  16.436 -2.4889 -0.7975 -0.0574
13246TIP3    H261230   0.235   3.041  16.448  0.6275 -0.2101  0.8173
13247TIP3   OH261231   2.620   4.120   4.842 -0.0104 -0.0710 -0.5039
13247TIP3    H161232   2.564   4.046   4.818  2.4151 -1.5524 -2.0178
13247TIP3    H261233   2.648   4.100   4.932  0.4983 -0.9395 -0.8449
13248TIP3   OH261234   5.035   0.311   5.775  0.4678 -0.0479  0.2987
13248TIP3    H161235   4.956   0.363   5.788  0.6554  0.1860  0.4987
13248TIP3    H261236   5.075   0.304   5.862  0.4798 -0.4684  0.2649
13249TIP3   OH261237   1.674   2.097  11.289 -0.3963 -0.0032  0.2040
13249TIP3    H161238   1.658   2.020  11.235 -2.3723  0.9093 -0.6127
13249TIP3    H261239   1.589   2.117  11.329  0.1118  1.6108  0.5761
13250TIP3   OH261240   5.914   2.609   3.403 -0.3562 -0.4305 -0.3414
13250TIP3    H161241   5.920   2.514   3.416 -0.6295 -0.6013 -1.3591
13250TIP3    H261242   5.868   2.640   3.481 -0.8921 -1.2320 -0.3132
13251TIP3   OH261243   1.759   5.432   5.190 -0.3451  0.0005  0.2749
13251TIP3    H161244   1.759   5.460   5.282  2.6974  0.6787  0.1897
13251TIP3    H261245   1.718   5.504   5.143 -1.9206 -0.3409  1.0506
13252TIP3   OH261246   1.536   5.913  13.356  0.1614 -0.7500 -0.2023
13252TIP3    H161247   1.578   5.905  13.270 -1.1480 -3.6393 -0.7046
13252TIP3    H261248   1.605   5.892  13.419  0.3295 -2.1052 -0.8010
13253TIP3   OH261249   1.692   0.628  12.123 -0.3276  0.5375  0.6932
13253TIP3    H161250   1.650   0.615  12.038  0.3983 -0.0325  0.4108
13253TIP3    H261251   1.621   0.623  12.186 -0.7446  0.0389  0.1888
13254TIP3   OH261252   6.576   1.669   5.298 -0.7823 -0.1922 -0.0296
13254TIP3    H161253   6.524   1.601   5.340  1.6506 -1.8379  0.4946
13254TIP3    H261254   6.589   1.735   5.366 -0.6116 -0.6703  0.4005
13255TIP3   OH261255   2.426   4.528  16.364 -0.2484 -0.0351 -0.2682
13255TIP3    H161256   2.377   4.609  16.375  1.0691  0.5353  1.7915
13255TIP3    H261257   2.420   4.484  16.449  1.8260 -0.5012 -0.3146
13256TIP3   OH261258   2.302   4.050   0.468  0.1335  0.1156  0.2476
13256TIP3    H161259   2.218   4.060   0.424 -0.6900 -0.5156  1.6102
13256TIP3    H261260   2.341   4.138   0.466 -1.5134  0.9055  1.4422
13257TIP3   OH261261   4.502   6.278  17.042  0.1844  0.2260 -0.6112
13257TIP3    H161262   4.516   6.185  17.059  2.7580  0.5487 -0.5527
13257TIP3    H261263   4.464   6.281  16.954 -1.8011 -0.9054  0.1425
13258TIP3   OH261264   5.823   5.248   2.976 -0.1333  0.0759 -0.1387
13258TIP3    H161265   5.848   5.169   3.024 -1.5702  0.0606  0.6332
13258TIP3    H261266   5.864   5.320   3.024 -1.2542  0.0277  0.9368
13259TIP3   OH261267   3.471   2.484  10.697  0.5007  0.3156  0.3137
13259TIP3    H161268   3.556   2.522  10.717 -0.0321  2.4072 -1.0889
13259TIP3    H261269   3.484   2.441  10.612  0.2679  0.2996  0.2842
13260TIP3   OH261270   1.150   5.429  14.302  0.4691 -0.0635 -0.0029
13260TIP3    H161271   1.157   5.457  14.211  1.9876  0.0575  0.1121
13260TIP3    H261272   1.169   5.508  14.352  2.5041 -0.7077  0.3511
13261TIP3   OH261273   2.642   1.297  15.693  0.0832  0.1938 -0.5171
13261TIP3    H161274   2.571   1.329  15.639  0.8655  1.6590 -0.7188
13261TIP3    H261275   2.619   1.206  15.712 -0.8424  0.0411 -2.2176
13262TIP3   OH261276   6.572   2.164   2.030  0.4157  0.3754  0.2750
13262TIP3    H161277   6.634   2.098   2.059  0.3767  0.0893 -0.2699
13262TIP3    H261278   6.513   2.178   2.104 -0.5634 -1.3852 -0.1244
13263TIP3   OH261279   3.262   0.584   5.968  0.4410 -0.2834  0.0055
13263TIP3    H161280   3.178   0.537   5.965 -1.3253  2.7078 -1.7540
13263TIP3    H261281   3.306   0.559   5.887  0.3126 -0.2412 -0.0770
13264TIP3   OH261282   6.831   1.988   4.794 -0.1244 -0.0654  0.1657
13264TIP3    H161283   6.905   2.033   4.755 -0.6311 -0.6131 -1.5334
13264TIP3    H261284   6.798   2.048   4.861 -1.6473  2.8388 -2.9297
13265TIP3   OH261285   5.688   3.430  11.137 -0.7611  0.8480 -0.4687
13265TIP3    H161286   5.642   3.386  11.065 -0.9719 -1.5663  1.0196
13265TIP3    H261287   5.621   3.440  11.205  0.2331 -0.1863  0.7014
13266TIP3   OH261288   2.234   4.144   2.602  0.3938  0.2031  0.5637
13266TIP3    H161289   2.178   4.173   2.530  0.0363  2.2216  1.5651
13266TIP3    H261290   2.224   4.049   2.604 -1.5664  0.3295 -0.4678
13267TIP3   OH261291   6.758   2.375  14.355  0.0133  0.5988 -0.0387
13267TIP3    H161292   6.699   2.374  14.431 -0.0014  0.4486 -0.0500
13267TIP3    H261293   6.713   2.427  14.289  0.7280  2.0911  0.6068
13268TIP3   OH261294   4.931   0.480  12.016 -0.0631 -0.4785 -0.0216
13268TIP3    H161295   4.903   0.520  12.098 -0.7888 -0.1364 -0.4211
13268TIP3    H261296   5.020   0.513  12.002  0.0419 -0.4896  0.5827
13269TIP3   OH261297   1.876   0.004  15.277  0.0922 -0.2930  0.3282
13269TIP3    H161298   1.868  -0.024  15.186 -1.2128  0.1888  0.2777
13269TIP3    H261299   1.810  -0.046  15.324 -0.0170  0.2957  0.8160
13270TIP3   OH261300   5.226   6.411  14.292 -0.4967  0.2748 -0.5509
13270TIP3    H161301   5.201   6.408  14.384  0.0188 -0.3149 -0.4274
13270TIP3    H261302   5.149   6.448  14.248 -1.2352 -0.6336 -0.0561
13271TIP3   OH261303   3.206   6.122  17.150 -0.3995 -0.2299  0.0842
13271TIP3    H161304   3.185   6.155  17.063 -0.7109 -1.3157 -0.2711
13271TIP3    H261305   3.276   6.059  17.136  1.8543  1.8909  1.0341
13272TIP3   OH261306   2.658   1.948   2.579  0.3685 -0.5413 -0.8130
13272TIP3    H161307   2.664   2.000   2.659 -0.4929  0.8438 -1.6277
13272TIP3    H261308   2.640   1.859   2.610 -0.5516  0.0751  0.5213
13273TIP3   OH261309   4.063   4.827   0.689 -0.4252  0.4065 -0.0646
13273TIP3    H161310   4.041   4.884   0.615  1.3746  1.2254 -0.0306
13273TIP3    H261311   4.009   4.860   0.761 -0.6056  1.0273 -0.4695
13274TIP3   OH261312   4.717   2.222   4.851 -0.1463  0.4126 -0.4376
13274TIP3    H161313   4.705   2.181   4.937 -1.2595  1.4376 -0.0900
13274TIP3    H261314   4.648   2.287   4.845  3.2911  4.5682  0.3957
13275TIP3   OH261315   2.827   4.291  15.087  0.4272  0.7060  0.3811
13275TIP3    H161316   2.820   4.220  15.023  0.1969 -0.0669  1.2395
13275TIP3    H261317   2.796   4.368  15.040  0.2835  0.1637 -0.4471
13276TIP3   OH261318   4.009   0.899   5.586  0.2602  0.0121 -0.7972
13276TIP3    H161319   4.085   0.951   5.560  1.1697 -0.8269  0.1033
13276TIP3    H261320   3.994   0.922   5.677 -0.2521 -0.1969 -0.8251
13277TIP3   OH261321   3.117   6.407   4.579  0.5437  0.3940 -0.9885
13277TIP3    H161322   3.192   6.453   4.543  0.0543 -0.2122 -2.8806
13277TIP3    H261323   3.047   6.420   4.515 -0.5415 -0.2752  0.0165
13278TIP3   OH261324   0.178   1.439   5.743 -0.2264 -0.0148  0.2761
13278TIP3    H161325   0.216   1.495   5.675 -0.3264  0.6400  0.7467
13278TIP3    H261326   0.182   1.351   5.706 -0.5105  0.3585 -0.6773
13279TIP3   OH261327   6.126   6.018   3.049 -0.1457  0.2658 -0.9271
13279TIP3    H161328   6.036   6.048   3.061  0.1344  0.8735 -0.2798
13279TIP3    H261329   6.129   5.988   2.958 -1.2039 -0.4844 -0.7428
13280TIP3   OH261330   1.535   5.189  14.473 -0.1409 -0.3269 -0.3752
13280TIP3    H161331   1.509   5.155  14.387  1.2368 -1.1628 -0.4922
13280TIP3    H261332   1.606   5.131  14.501 -0.4492  0.0352  1.2601
13281TIP3   OH261333   1.123   4.287  12.246 -0.1099  0.3576  0.3233
13281TIP3    H161334   1.133   4.373  12.207 -0.4626  0.5952  0.7453
13281TIP3    H261335   1.142   4.225  12.175  1.4754  0.7640  0.3590
13282TIP3   OH261336   0.064   3.507  16.801  0.8705 -0.0202 -0.5651
13282TIP3    H161337   0.068   3.596  16.837 -2.0946 -1.0890  2.9824
13282TIP3    H261338   0.147   3.467  16.829  1.6153  1.1589 -0.9883
13283TIP3   OH261339   5.432   6.096   4.390 -0.7076 -0.0270  0.5608
13283TIP3    H161340   5.359   6.074   4.333 -2.1829  1.2159  1.8838
13283TIP3    H261341   5.479   6.013   4.401 -2.3477 -1.0451  0.2560
13284TIP3   OH261342   5.779   5.513  14.060  0.4430  0.2055  0.1604
13284TIP3    H161343   5.782   5.467  14.144 -0.7799  1.5554  0.9980
13284TIP3    H261344   5.692   5.491  14.024  0.8237 -0.0906 -0.6074
13285TIP3   OH261345   4.318   5.307  15.715 -0.1450 -0.0130 -0.5170
13285TIP3    H161346   4.235   5.355  15.716 -0.0344  0.1804  0.2134
13285TIP3    H261347   4.307   5.241  15.784 -0.1294 -0.7637 -1.2082
13286TIP3   OH261348   3.121   6.379  12.031 -0.4335  0.1918  0.8749
13286TIP3    H161349   3.060   6.423  12.091 -2.0139  0.4626 -0.8385
13286TIP3    H261350   3.190   6.443  12.015 -0.5347  0.4932  1.6113
13287TIP3   OH261351   2.495   6.075  13.369  0.6495  0.2453 -0.2687
13287TIP3    H161352   2.497   6.055  13.276  2.6693  0.1043 -0.2392
13287TIP3    H261353   2.567   6.025  13.407  0.2170  0.7213  1.2822
13288TIP3   OH261354   1.109   0.830  12.001 -0.3865  0.5017 -0.3541
13288TIP3    H161355   1.202   0.808  12.013 -0.6327 -1.0991 -1.1767
13288TIP3    H261356   1.104   0.866  11.912 -0.5571  0.5940 -0.3077
13289TIP3   OH261357   4.528   0.826  14.674  0.1288  0.3477  0.0071
13289TIP3    H161358   4.530   0.897  14.609 -1.3365 -1.3210 -2.0143
13289TIP3    H261359   4.472   0.859  14.744 -0.5675  1.1744 -0.9103
13290TIP3   OH261360   2.609   0.566  14.598 -0.4424 -0.2040  0.1488
13290TIP3    H161361   2.650   0.512  14.665  1.9780  0.3982 -0.7308
13290TIP3    H261362   2.524   0.590  14.635  0.2084 -1.0447  2.3573
13291TIP3   OH261363   1.175   0.610  14.672 -0.7314 -0.3542 -0.1518
13291TIP3    H161364   1.084   0.586  14.688 -0.8216  1.1275  1.9215
13291TIP3    H261365   1.223   0.572  14.745  0.5191 -1.9614 -1.7376
13292TIP3   OH261366   6.767   4.099   2.037  0.2499 -0.4667  0.3638
13292TIP3    H161367   6.743   4.010   2.010  0.1106 -0.0494 -0.9740
13292TIP3    H261368   6.687   4.135   2.075 -0.3245 -0.2140 -1.0274
13293TIP3   OH261369   4.114   4.384   3.819  0.0841  0.4622  0.7240
13293TIP3    H161370   4.067   4.467   3.808 -1.0183  0.0497  2.0310
13293TIP3    H261371   4.121   4.348   3.731 -1.5949  0.8086  0.4253
13294TIP3   OH261372   2.733   2.791   4.295 -0.3608  0.6707 -0.5721
13294TIP3    H161373   2.704   2.703   4.275 -1.5290  0.8884  0.0670
13294TIP3    H261374   2.789   2.816   4.221 -0.3315 -0.4426 -0.9430
13295TIP3   OH261375   1.445   6.451   3.318 -0.1629  0.5764  0.9055
13295TIP3    H161376   1.415   6.481   3.232  0.0286 -1.0160  0.2552
13295TIP3    H261377   1.407   6.364   3.328 -0.0082  0.6534  2.3560
13296TIP3   OH261378   5.345   5.140  10.952 -1.0040 -0.7649 -0.0445
13296TIP3    H161379   5.285   5.126  10.878  0.0008  0.6769 -1.1924
13296TIP3    H261380   5.289   5.173  11.022 -1.6948 -0.2823 -0.8004
13297TIP3   OH261381   0.663   4.243   4.395 -0.0633  0.2027 -0.0793
13297TIP3    H161382   0.684   4.179   4.463 -1.3620  0.1658  0.3154
13297TIP3    H261383   0.596   4.200   4.341 -0.8322  1.1442  0.0961
13298TIP3   OH261384   1.182   0.036   4.515 -0.0493  0.0525 -0.1075
13298TIP3    H161385   1.192  -0.059   4.527 -2.7092 -0.5687 -1.8861
13298TIP3    H261386   1.105   0.059   4.568 -0.7579  0.7525 -1.3931
13299TIP3   OH261387   2.650   6.222  11.164  0.2454  0.2724 -1.1202
13299TIP3    H161388   2.711   6.248  11.094 -1.1715  0.9374 -2.1625
13299TIP3    H261389   2.566   6.259  11.137 -0.6594 -0.7192  0.2232
13300TIP3   OH261390   5.698   2.875  14.905  0.1006  0.6059 -0.1181
13300TIP3    H161391   5.693   2.954  14.851  0.7653 -1.4256 -3.3575
13300TIP3    H261392   5.754   2.900  14.979  0.8824  2.9529 -1.4117
13301TIP3   OH261393   0.426   5.237   2.958  0.5056 -0.3816  0.5298
13301TIP3    H161394   0.507   5.201   2.993  1.1051  0.3111 -0.0995
13301TIP3    H261395   0.357   5.193   3.007  1.2780 -0.4090  1.6249
13302TIP3   OH261396   4.581   0.266   0.093  0.1181 -0.2178 -0.2538
13302TIP3    H161397   4.551   0.183   0.132  0.4315 -0.2843 -0.1543
13302TIP3    H261398   4.561   0.257   0.000 -0.6958 -0.0334 -0.1057
13303TIP3   OH261399   0.060   1.953  13.111  0.6462  0.1275  0.4181
13303TIP3    H161400   0.127   1.984  13.171 -0.2899 -2.3238  2.9568
13303TIP3    H261401   0.065   1.857  13.116 -2.0668 -0.1579 -0.3660
13304TIP3   OH261402   5.181   0.112   1.969  0.2427  0.0600  0.0196
13304TIP3    H161403   5.244   0.128   2.040  0.1439 -1.8434  0.6003
13304TIP3    H261404   5.121   0.047   2.005 -0.9923  0.5202 -1.1529
13305TIP3   OH261405   1.076   4.376   0.084 -0.1817  0.0630  0.1382
13305TIP3    H161406   1.029   4.456   0.059  1.7104  1.3626  0.5247
13305TIP3    H261407   1.015   4.331   0.143 -0.8114  1.9201  1.0132
13306TIP3   OH261408   2.689   6.339   2.856  0.9694 -0.2071 -0.3041
13306TIP3    H161409   2.761   6.284   2.888  1.7023  0.4285 -0.8021
13306TIP3    H261410   2.636   6.280   2.803  0.5151 -0.9403  0.9322
13307TIP3   OH261411   1.725   1.399  13.005  0.0661  0.7241  0.0592
13307TIP3    H161412   1.759   1.388  13.094 -0.5613  0.1253  0.2333
13307TIP3    H261413   1.781   1.466  12.966  0.6294  0.6722  0.7590
13308TIP3   OH261414   3.070   5.904   1.305  0.5964 -0.0995  0.0183
13308TIP3    H161415   3.053   5.913   1.211  0.4402 -0.9794 -0.0450
13308TIP3    H261416   3.056   5.811   1.323 -0.2843  0.2221  1.0924
13309TIP3   OH261417   4.027   1.278  16.987 -0.2552  0.4897 -0.2396
13309TIP3    H161418   4.027   1.310  17.077  0.1781  0.5728 -0.2698
13309TIP3    H261419   3.937   1.248  16.972 -0.5411  1.2511 -0.0630
13310TIP3   OH261420   6.030   6.827  14.562 -0.4024 -0.4931  0.1070
13310TIP3    H161421   6.036   6.918  14.535 -1.2422  0.0672  1.7180
13310TIP3    H261422   6.008   6.780  14.481 -0.6170  0.8004 -0.6168
13311TIP3   OH261423   3.407   1.406   1.724  0.0015 -0.3000 -0.6170
13311TIP3    H161424   3.395   1.465   1.799 -0.2616  1.7571 -2.1927
13311TIP3    H261425   3.345   1.335   1.740  2.2306 -1.7596  2.7342
13312TIP3   OH261426   3.860   3.453  14.291  0.0179  0.4092 -0.8329
13312TIP3    H161427   3.874   3.548  14.294 -1.5189  0.6415  0.6312
13312TIP3    H261428   3.861   3.426  14.383  2.0432 -1.3040 -1.2757
13313TIP3   OH261429   5.225   3.202  12.000 -0.1672  0.4956 -0.6144
13313TIP3    H161430   5.297   3.180  11.942 -0.8891 -1.8256 -0.7316
13313TIP3    H261431   5.172   3.122  12.005 -3.3644  2.3588 -1.3975
13314TIP3   OH261432   2.984   4.824   2.164 -0.4319  0.2473 -0.6932
13314TIP3    H161433   2.993   4.915   2.194 -1.0074  1.2420 -3.2290
13314TIP3    H261434   3.042   4.774   2.220 -0.1546  2.1746  0.8389
13315TIP3   OH261435   5.315   3.754  10.344 -0.7195  0.2522 -0.2155
13315TIP3    H161436   5.247   3.727  10.282 -1.4485  2.0437 -0.2515
13315TIP3    H261437   5.344   3.839  10.312 -0.7481  0.9935  1.6081
13316TIP3   OH261438   5.166   1.916  16.819 -0.1629  0.3768  0.0791
13316TIP3    H161439   5.235   1.980  16.798 -0.3985 -0.0487 -2.3078
13316TIP3    H261440   5.085   1.965  16.812 -0.3140 -0.0103 -1.3052
13317TIP3   OH261441   3.481   4.418  14.156 -0.0695 -0.4570  0.3690
13317TIP3    H161442   3.426   4.396  14.230 -0.2562  1.3573  0.8059
13317TIP3    H261443   3.423   4.414  14.080 -0.4602 -0.0100  0.6399
13318TIP3   OH261444   6.077   4.263  14.247 -0.0114  0.0483  0.2135
13318TIP3    H161445   5.989   4.269  14.284 -0.2654 -0.1233 -0.3559
13318TIP3    H261446   6.064   4.226  14.159  0.5338  0.9504 -0.2551
13319TIP3   OH261447   3.844   3.945   0.147 -0.8631 -0.4979  0.1593
13319TIP3    H161448   3.782   3.883   0.185 -0.6214 -0.1461  1.1831
13319TIP3    H261449   3.924   3.932   0.198 -0.1041 -0.9332 -1.1293
13320TIP3   OH261450   6.488   2.304  13.356  0.6347 -0.2920  0.0422
13320TIP3    H161451   6.534   2.239  13.302 -0.1097 -0.7833 -0.0205
13320TIP3    H261452   6.442   2.252  13.422  1.1262  0.2741  0.8378
13321TIP3   OH261453   5.171   4.526  13.312  0.9090 -0.2758  0.0883
13321TIP3    H161454   5.078   4.539  13.293  0.8823 -1.8234 -1.0233
13321TIP3    H261455   5.185   4.573  13.394 -0.6023  0.8721 -0.2561
13322TIP3   OH261456   4.894   0.330  16.624  0.3354  0.5225  0.7260
13322TIP3    H161457   4.923   0.357  16.711 -0.9243 -0.4921  1.4843
13322TIP3    H261458   4.827   0.395  16.601  1.1213  1.1781  0.1961
13323TIP3   OH261459   0.992   6.007  13.224  0.2624  0.0220  0.3352
13323TIP3    H161460   1.055   5.964  13.282  1.4099  2.1283  0.7816
13323TIP3    H261461   0.926   6.043  13.282 -0.1009 -0.2208  0.0757
13324TIP3   OH261462   5.336   5.444   1.389 -0.0982  0.1908  0.2293
13324TIP3    H161463   5.409   5.419   1.332 -0.4287 -0.5814  0.1266
13324TIP3    H261464   5.371   5.434   1.478  0.0900  0.3583  0.1749
13325TIP3   OH261465   0.329   5.818   2.044 -0.5211  0.8245 -0.2919
13325TIP3    H161466   0.325   5.726   2.068  1.1258  0.7345 -0.2331
13325TIP3    H261467   0.254   5.858   2.086 -0.4826 -0.2486  0.8317
13326TIP3   OH261468   1.309   2.336   3.946  0.3171 -0.1482 -0.1313
13326TIP3    H161469   1.257   2.412   3.974 -0.0350 -0.0590 -1.0076
13326TIP3    H261470   1.246   2.264   3.942  0.4637 -0.2700 -0.2352
13327TIP3   OH261471   2.369   4.839  12.926  0.0651 -0.0207  0.8344
13327TIP3    H161472   2.282   4.798  12.932 -0.4831  0.7531 -1.1901
13327TIP3    H261473   2.422   4.776  12.877  0.4928 -0.1920  1.4918
13328TIP3   OH261474   0.460   0.848  15.061 -0.6190  0.5001  0.0647
13328TIP3    H161475   0.553   0.824  15.060 -0.8615 -0.5774 -1.6892
13328TIP3    H261476   0.427   0.812  15.143  0.3896  0.4131  0.4514
13329TIP3   OH261477   2.246   3.828  13.972 -0.3109  0.9169 -0.1735
13329TIP3    H161478   2.314   3.882  14.013 -0.2427  0.5308  0.2212
13329TIP3    H261479   2.205   3.781  14.044  0.6844 -0.7732 -0.6677
13330TIP3   OH261480   4.892   0.043  11.561  0.1525 -0.0855  0.1227
13330TIP3    H161481   4.915   0.000  11.643 -0.5357 -1.2882 -0.2790
13330TIP3    H261482   4.827   0.109  11.586 -1.3732 -1.5939  0.3969
13331TIP3   OH261483   0.551   0.605   2.636  0.5129 -0.8724 -0.4187
13331TIP3    H161484   0.594   0.583   2.719 -0.0324 -1.8319 -0.3787
13331TIP3    H261485   0.568   0.530   2.579 -0.6890 -1.0638 -0.5503
13332TIP3   OH261486   1.973   1.068  12.509  0.5291  0.5828 -0.2506
13332TIP3    H161487   1.894   1.019  12.534  0.0562  1.2531 -0.4233
13332TIP3    H261488   2.015   1.090  12.592  0.4043  0.4449 -0.1507
13333TIP3   OH261489   5.506   1.030  12.920 -0.3248  0.3592 -0.5360
13333TIP3    H161490   5.560   0.956  12.948  0.0148 -0.2637 -2.6513
13333TIP3    H261491   5.490   1.080  13.000  1.3702 -0.7474  0.5543
13334TIP3   OH261492   4.327   3.294   2.625  0.6000 -0.5851 -0.8339
13334TIP3    H161493   4.247   3.337   2.596  0.3021 -1.6622 -1.6813
13334TIP3    H261494   4.337   3.321   2.716 -0.5317 -0.1500 -0.8225
13335TIP3   OH261495   4.631   6.436   1.919  0.3849 -0.4394  0.0981
13335TIP3    H161496   4.647   6.521   1.879  1.0185 -0.4827  0.2506
13335TIP3    H261497   4.623   6.454   2.012 -1.8752 -0.2274 -0.0752
13336TIP3   OH261498   3.039   3.529   0.368  0.1568 -0.0097 -0.1442
13336TIP3    H161499   3.061   3.496   0.281 -0.9265  0.0020 -0.4335
13336TIP3    H261500   2.974   3.598   0.352  2.5343  2.5664  0.4085
13337TIP3   OH261501   2.506   4.649  12.770 -0.0442  0.4876 -0.5800
13337TIP3    H161502   2.579   4.672  12.712  0.7951  0.6487  0.5093
13337TIP3    H261503   2.471   4.568  12.733  2.1380 -0.8812  0.1215
13338TIP3   OH261504   5.163   4.952   2.365  0.5008 -0.6252  0.1477
13338TIP3    H161505   5.231   4.909   2.416  1.4176  0.5187 -0.0702
13338TIP3    H261506   5.120   4.881   2.317  2.7589 -1.2306 -1.1300
13339TIP3   OH261507   2.027   6.765  14.425  0.3735 -0.5231  0.4335
13339TIP3    H161508   2.016   6.689  14.368  0.1744 -0.2164  0.0648
13339TIP3    H261509   1.953   6.761  14.486 -0.5329  0.2520 -0.5885
13340TIP3   OH261510   4.511   2.027   0.011 -0.0708  0.5134  0.3267
13340TIP3    H161511   4.502   2.046   0.104  2.2500  1.5009  0.4338
13340TIP3    H261512   4.510   1.932   0.005 -0.4219  0.4458  1.3452
13341TIP3   OH261513   5.170   2.403  13.646 -0.3803  0.0954  0.3139
13341TIP3    H161514   5.093   2.359  13.681 -1.3605  0.6682 -1.0291
13341TIP3    H261515   5.171   2.378  13.553  0.7356  0.5493  0.1868
13342TIP3   OH261516   5.243   1.657  13.009 -0.1770 -0.2656 -0.3092
13342TIP3    H161517   5.310   1.650  13.076  0.5408  2.2418 -0.6776
13342TIP3    H261518   5.173   1.709  13.050 -1.1228 -1.3094 -0.5343
13343TIP3   OH261519   0.213   0.422   4.174  0.2127 -0.7191  0.4422
13343TIP3    H161520   0.287   0.441   4.233 -0.3739 -1.3939  1.4360
13343TIP3    H261521   0.183   0.336   4.202 -0.9940 -0.4216  0.0847
13344TIP3   OH261522   5.880   0.242  15.642  1.1538  0.1843 -0.2669
13344TIP3    H161523   5.852   0.157  15.608  0.4092 -0.4437  1.7773
13344TIP3    H261524   5.912   0.224  15.730 -0.1064  2.1409  0.6727
13345TIP3   OH261525   2.972   0.688  15.142  0.3749  0.9039 -0.5435
13345TIP3    H161526   3.006   0.731  15.221  0.5347  0.1467 -0.1892
13345TIP3    H261527   2.975   0.755  15.074 -2.0140  2.3216  0.6353
13346TIP3   OH261528   6.309   5.499  16.906  0.3273 -0.4105  0.1632
13346TIP3    H161529   6.368   5.429  16.936 -0.3875 -1.5702 -1.0394
13346TIP3    H261530   6.281   5.471  16.819 -0.7833  0.8967  0.0727
13347TIP3   OH261531   1.420   6.584   0.542 -0.5022  0.2629 -0.2183
13347TIP3    H161532   1.401   6.501   0.587 -0.1462  0.1632 -0.2502
13347TIP3    H261533   1.357   6.646   0.579 -1.3929 -0.2309 -0.8440
13348TIP3   OH261534   0.812   6.451  13.595  0.4159 -0.6370  0.0505
13348TIP3    H161535   0.818   6.464  13.690  0.1955  1.0114 -0.1289
13348TIP3    H261536   0.767   6.367  13.585 -0.0229 -0.5914  1.4015
13349TIP3   OH261537   4.679   6.449   2.488 -0.3352 -0.4940  0.1706
13349TIP3    H161538   4.616   6.403   2.432 -0.6218  0.2365 -0.1178
13349TIP3    H261539   4.632   6.527   2.518  0.5455  0.2573 -0.3442
13350TIP3   OH261540   0.052   2.849   2.550  0.1296  0.3806 -0.1289
13350TIP3    H161541   0.117   2.915   2.573  1.3071 -1.1467  1.1850
13350TIP3    H261542   0.018   2.818   2.634 -2.5867  1.3280 -0.7858
13351TIP3   OH261543   1.251   5.446   5.805 -0.4347 -0.5694  0.4995
13351TIP3    H161544   1.279   5.488   5.886 -2.3621  0.3628  0.7419
13351TIP3    H261545   1.220   5.359   5.832 -0.2530 -0.5973  0.6182
13352TIP3   OH261546   0.050   5.072  14.693  0.0120 -0.3047 -0.0249
13352TIP3    H161547   0.009   5.118  14.766  0.7794  0.9792 -0.3781
13352TIP3    H261548   0.045   4.980  14.717 -1.3895 -0.0400  0.7968
13353TIP3   OH261549   0.202   0.228  16.804 -0.4280 -0.1084 -0.0697
13353TIP3    H161550   0.174   0.304  16.856 -3.3328 -0.9417 -0.2685
13353TIP3    H261551   0.265   0.183  16.861 -0.3260  1.2583  0.9590
13354TIP3   OH261552   2.346   1.395  14.279  0.5370  0.3239 -0.0578
13354TIP3    H161553   2.389   1.468  14.234  0.2249 -0.1429 -1.1456
13354TIP3    H261554   2.418   1.339  14.307  0.7168 -0.4385 -1.8478
13355TIP3   OH261555   3.504   5.902   0.896  0.2640 -0.1539  0.2312
13355TIP3    H161556   3.446   5.978   0.904  0.4970  0.0061  0.4484
13355TIP3    H261557   3.564   5.911   0.970 -0.2590 -1.0297  0.7750
13356TIP3   OH261558   3.589   0.279   5.164 -0.0478  0.2706  0.3752
13356TIP3    H161559   3.638   0.205   5.130  1.9882  1.9255 -0.5624
13356TIP3    H261560   3.657   0.338   5.199 -1.5848  1.5857  1.2671
13357TIP3   OH261561   4.184   4.213   1.451  0.2683 -0.4048  0.0080
13357TIP3    H161562   4.210   4.177   1.367  1.7610  0.4121  0.0916
13357TIP3    H261563   4.247   4.178   1.514 -0.3424 -0.3628  0.6676
13358TIP3   OH261564   0.238   6.771   4.216  0.3265  0.5048  0.7549
13358TIP3    H161565   0.160   6.823   4.196  0.5382  0.6373  0.2541
13358TIP3    H261566   0.225   6.741   4.306 -0.4248  0.3160  0.5912
13359TIP3   OH261567   5.979   0.884   3.760  0.4057 -0.0174 -0.2981
13359TIP3    H161568   5.914   0.817   3.781  1.0161 -0.5744 -0.1476
13359TIP3    H261569   6.008   0.918   3.845 -2.2377  2.8097 -0.3460
13360TIP3   OH261570   5.209   3.976   2.466  0.4808  0.1470 -0.0999
13360TIP3    H161571   5.159   4.039   2.413  1.0329 -0.2567 -1.1256
13360TIP3    H261572   5.177   3.891   2.438  1.4450 -0.1023 -0.4851
13361TIP3   OH261573   3.774   1.593  16.548  1.2784 -0.3319  0.3634
13361TIP3    H161574   3.736   1.524  16.602  0.3361  0.5775  0.9061
13361TIP3    H261575   3.858   1.557  16.518  0.9659 -1.5620  0.9090
13362TIP3   OH261576   2.163   3.306   2.902 -0.3311 -0.0034 -0.5088
13362TIP3    H161577   2.149   3.363   2.978 -0.5739  0.0618 -0.6002
13362TIP3    H261578   2.257   3.293   2.899 -0.1306  1.4519 -1.2589
13363TIP3   OH261579   0.497   2.165  10.931  0.0126  0.0699  0.4518
13363TIP3    H161580   0.589   2.138  10.935  0.0162 -0.0836 -0.3995
13363TIP3    H261581   0.474   2.154  10.839 -1.3346 -1.4547  0.9266
13364TIP3   OH261582   3.106   0.013   4.786  1.0409 -0.3105 -0.6400
13364TIP3    H161583   3.152   0.038   4.866 -1.5573  1.0983  0.5367
13364TIP3    H261584   3.048  -0.058   4.812 -1.8809  1.9633 -0.4186
13365TIP3   OH261585   3.583   4.883  11.466  0.0728 -0.5904 -0.1997
13365TIP3    H161586   3.648   4.950  11.448 -0.1237 -0.4654 -0.4628
13365TIP3    H261587   3.567   4.841  11.381  0.0019 -0.7916 -0.0890
13366TIP3   OH261588   3.289   3.768  13.425 -0.2551 -0.2996  0.2007
13366TIP3    H161589   3.251   3.697  13.476 -0.4927 -0.0432  0.3873
13366TIP3    H261590   3.213   3.818  13.393 -0.0837  0.3390  0.7516
13367TIP3   OH261591   1.181   6.647  17.167  0.3206 -0.1106 -0.3061
13367TIP3    H161592   1.173   6.637  17.072  0.4854  1.7984 -0.5726
13367TIP3    H261593   1.275   6.637  17.185  0.4679  0.7371 -0.5462
13368TIP3   OH261594   4.512   4.452  16.862 -0.0961 -0.0378 -0.4937
13368TIP3    H161595   4.539   4.541  16.840 -0.8926 -0.0648 -1.6352
13368TIP3    H261596   4.494   4.410  16.778  1.1909 -1.5995 -0.0538
13369TIP3   OH261597   2.014   4.987   6.345 -0.0567  0.1422  0.0878
13369TIP3    H161598   2.028   5.079   6.324  0.1740  0.0622 -0.1208
13369TIP3    H261599   2.092   4.962   6.396  0.0042 -0.0030 -0.0753
13370TIP3   OH261600   5.352   5.196   2.775 -0.1675 -0.1470 -0.1490
13370TIP3    H161601   5.370   5.103   2.786 -1.2861 -0.2951  0.6043
13370TIP3    H261602   5.418   5.240   2.828  0.3852 -0.5101 -0.5338
13371TIP3   OH261603   2.232   5.620   0.345  0.4307  0.3145  0.1381
13371TIP3    H161604   2.166   5.660   0.403 -0.5561 -0.5311 -0.3660
13371TIP3    H261605   2.230   5.673   0.266  0.4125  0.3386  0.1545
13372TIP3   OH261606   3.181   5.930  13.024  0.4955  0.1810 -0.7600
13372TIP3    H161607   3.223   5.994  13.080  1.2952  0.9385 -2.1660
13372TIP3    H261608   3.251   5.899  12.966  0.3146 -2.5196  0.3032
13373TIP3   OH261609   4.033   5.527   5.464  0.4023 -0.2801 -0.3807
13373TIP3    H161610   4.038   5.619   5.492 -0.8877 -0.4436  0.4800
13373TIP3    H261611   3.946   5.498   5.493  0.6849 -1.7009 -0.8816
13374TIP3   OH261612   1.833   3.215   1.124 -0.0512  0.5152  0.2394
13374TIP3    H161613   1.830   3.232   1.030  2.6365  0.1002  0.0261
13374TIP3    H261614   1.812   3.122   1.132 -1.0686  0.7181  0.1752
13375TIP3   OH261615   1.278   0.987  14.829  0.2165  0.1068  0.0749
13375TIP3    H161616   1.330   0.999  14.908 -0.6193  0.5261  0.5760
13375TIP3    H261617   1.193   1.027  14.850 -0.6564 -1.4155 -0.3600
13376TIP3   OH261618   0.520   5.606  13.061 -0.0804  0.5857  0.1400
13376TIP3    H161619   0.544   5.514  13.044  0.3688  0.6831  0.2245
13376TIP3    H261620   0.604   5.651  13.067 -0.3054  1.0242 -0.0069
13377TIP3   OH261621   2.703   6.209  15.500 -0.6465  0.2413 -0.0544
13377TIP3    H161622   2.663   6.197  15.414  2.7169 -1.8902 -1.5391
13377TIP3    H261623   2.675   6.132  15.550 -1.4130  0.7170  0.2577
13378TIP3   OH261624   5.554   0.275  15.380 -0.3420 -0.0383 -0.1364
13378TIP3    H161625   5.613   0.239  15.314 -1.1997  0.1187 -1.0153
13378TIP3    H261626   5.516   0.198  15.423  1.0400 -0.1381  0.9535
13379TIP3   OH261627   6.425   1.274  15.420  0.3862  0.1310 -0.0665
13379TIP3    H161628   6.498   1.250  15.363  0.9774  3.6958 -1.0118
13379TIP3    H261629   6.353   1.217  15.392  2.0409 -1.7256 -0.8101
13380TIP3   OH261630   0.020   1.620   1.969 -0.2091 -0.7051  0.2802
13380TIP3    H161631   0.071   1.645   1.892  0.0028  0.4627  0.7889
13380TIP3    H261632  -0.062   1.587   1.933 -0.2669  0.1838 -0.4373
13381TIP3   OH261633   4.521   3.329   5.484 -0.0512  0.2162 -0.2040
13381TIP3    H161634   4.592   3.271   5.460 -1.1706 -1.3637  0.1401
13381TIP3    H261635   4.511   3.387   5.408  1.4505  0.3456 -0.3252
13382TIP3   OH261636   0.370   0.061  14.283  0.3270 -0.3671  0.4776
13382TIP3    H161637   0.360   0.136  14.341  0.1526  0.7036 -0.8792
13382TIP3    H261638   0.464   0.041  14.285  0.3678 -0.1326  0.8951
13383TIP3   OH261639   3.692   5.800   4.669  0.1747  0.4541  0.0604
13383TIP3    H161640   3.645   5.721   4.698  1.5288 -1.2446 -2.0302
13383TIP3    H261641   3.643   5.872   4.708 -1.6607 -1.3594  1.3828
13384TIP3   OH261642   5.423   4.177   4.132 -0.1564  0.4775  0.7453
13384TIP3    H161643   5.433   4.235   4.207  0.2441 -0.3386  1.3347
13384TIP3    H261644   5.348   4.212   4.084 -0.0389  1.3636  1.1822
13385TIP3   OH261645   4.917   1.919   3.697  0.2344  0.1612  0.3167
13385TIP3    H161646   4.857   1.969   3.642  1.5393  0.5829 -0.7787
13385TIP3    H261647   4.999   1.915   3.647  0.3383 -2.6951  0.5678
13386TIP3   OH261648   0.669   0.617  12.097  0.2412  0.4304 -0.1569
13386TIP3    H161649   0.667   0.527  12.063 -1.6911  0.3339  0.0580
13386TIP3    H261650   0.712   0.609  12.182 -0.1982 -0.3676  0.0044
13387TIP3   OH261651   0.480   0.733  16.303 -0.0987  0.4637 -0.5400
13387TIP3    H161652   0.427   0.767  16.231 -1.0526 -1.2782 -0.6956
13387TIP3    H261653   0.426   0.744  16.381  0.7022  1.7969 -0.1170
13388TIP3   OH261654   4.264   3.831  16.039 -0.1520 -0.0081 -0.0545
13388TIP3    H161655   4.189   3.871  16.083 -0.4925 -0.4275 -0.2542
13388TIP3    H261656   4.340   3.864  16.088 -0.5201 -0.3857  0.7857
13389TIP3   OH261657   4.333   5.945   1.919  0.3668  0.2232  0.4278
13389TIP3    H161658   4.388   5.905   1.986  0.1040  0.2681  0.6752
13389TIP3    H261659   4.244   5.931   1.950  0.2237 -0.2152 -0.1777
13390TIP3   OH261660   6.663   3.305  15.858 -0.2407 -0.1994  0.2903
13390TIP3    H161661   6.732   3.241  15.875 -0.4600 -0.8276 -0.9822
13390TIP3    H261662   6.653   3.354  15.939  0.0340 -1.7116  1.2686
13391TIP3   OH261663   3.816   3.810   2.216 -0.4124 -0.2803 -0.0398
13391TIP3    H161664   3.880   3.741   2.234 -0.5271  0.1215  2.0463
13391TIP3    H261665   3.743   3.792   2.275 -0.5785  1.4446  0.3379
13392TIP3   OH261666   3.458   2.979  10.571 -0.8119 -0.1998  0.0647
13392TIP3    H161667   3.552   2.971  10.556 -0.6527  3.4215 -2.2810
13392TIP3    H261668   3.450   3.012  10.660  0.0894 -0.8716  0.4057
13393TIP3   OH261669   4.913   0.197   3.296 -0.0958 -0.2176  0.1171
13393TIP3    H161670   4.871   0.124   3.251 -0.5328 -0.5681  1.0607
13393TIP3    H261671   4.982   0.157   3.348 -0.6209 -0.0344  0.9826
13394TIP3   OH261672   2.419   3.529   5.197  0.1941 -0.0631 -0.4207
13394TIP3    H161673   2.382   3.615   5.214  1.4077  0.9666 -2.4629
13394TIP3    H261674   2.436   3.492   5.283 -2.5614  0.7010  0.5320
13395TIP3   OH261675   1.397   1.503   0.451 -0.4292  0.0353 -0.2419
13395TIP3    H161676   1.390   1.413   0.421 -1.3001 -0.6712  1.8688
13395TIP3    H261677   1.321   1.547   0.414 -1.8500 -0.9772  1.3284
13396TIP3   OH261678   0.623   1.392   1.834  0.6033  0.2310 -0.6065
13396TIP3    H161679   0.629   1.402   1.739  1.9896  0.3252 -0.5297
13396TIP3    H261680   0.703   1.346   1.858  0.1257 -0.0552  0.4906
13397TIP3   OH261681   5.831   0.299   1.170  0.5544 -0.5993 -0.2803
13397TIP3    H161682   5.828   0.205   1.187  1.3640 -0.8003 -1.1656
13397TIP3    H261683   5.896   0.309   1.100 -0.2583  0.5133 -0.9183
13398TIP3   OH261684   4.171   6.357  11.582 -0.7306  0.2372 -0.3699
13398TIP3    H161685   4.229   6.412  11.530 -0.1823 -0.1517 -0.1868
13398TIP3    H261686   4.212   6.270  11.580 -1.1646  0.0174 -0.0175
13399TIP3   OH261687   3.645   2.425  16.984 -0.0593  0.2052  0.5899
13399TIP3    H161688   3.659   2.330  16.986 -1.0500  0.0384  0.5852
13399TIP3    H261689   3.594   2.442  17.064  0.4155  0.7911  0.7695
13400TIP3   OH261690   4.195   1.192  14.051  0.0246  0.0298 -0.6941
13400TIP3    H161691   4.174   1.152  13.967  1.1209  0.0235 -0.9815
13400TIP3    H261692   4.123   1.253  14.067 -0.7542 -0.7668 -1.0995
13401TIP3   OH261693   0.302   0.398   1.581 -0.7844 -0.5370  0.1960
13401TIP3    H161694   0.369   0.461   1.606 -2.1164  0.7635  0.6223
13401TIP3    H261695   0.300   0.401   1.486  0.6336 -1.5561  0.1093
13402TIP3   OH261696   1.793   5.209   3.333 -0.3783 -0.7238 -0.0519
13402TIP3    H161697   1.770   5.211   3.425  0.0606 -0.6082  0.0564
13402TIP3    H261698   1.710   5.214   3.287 -0.4951  1.9432  0.2893
13403TIP3   OH261699   1.801   2.864  11.971 -0.1079 -0.6130 -0.1245
13403TIP3    H161700   1.731   2.829  11.916 -1.5236  1.0886  0.5202
13403TIP3    H261701   1.872   2.883  11.910 -0.6108 -1.3033 -0.9577
13404TIP3   OH261702   0.347   5.959   3.457 -0.4193 -0.0951  0.5857
13404TIP3    H161703   0.402   5.992   3.386 -0.6470 -0.2435  0.3387
13404TIP3    H261704   0.296   6.034   3.485 -1.3531 -0.3624 -0.3621
13405TIP3   OH261705   5.479   1.972   3.341  0.3443 -0.0859  0.0306
13405TIP3    H161706   5.414   1.990   3.274  2.1893  1.9448 -1.3291
13405TIP3    H261707   5.536   1.905   3.302 -0.3783 -1.2398  0.8840
13406TIP3   OH261708   3.964   1.834  14.757 -0.5648  0.0835  0.2484
13406TIP3    H161709   3.883   1.784  14.751 -1.3773  1.3858  0.1241
13406TIP3    H261710   4.011   1.812  14.676 -0.1299 -1.7186  0.9306
13407TIP3   OH261711   3.303   1.653  14.377  0.1634 -0.1008  0.4271
13407TIP3    H161712   3.333   1.649  14.467 -1.0246 -0.8058  0.8179
13407TIP3    H261713   3.324   1.742  14.348  1.5436 -0.2081  1.0205
13408TIP3   OH261714   2.639   1.762  17.000 -0.7586  0.0744  0.3222
13408TIP3    H161715   2.684   1.685  17.032  0.3139  1.3124  1.9266
13408TIP3    H261716   2.546   1.739  17.003 -0.7421 -0.0587  4.1027
13409TIP3   OH261717   0.170   6.430   1.218 -0.5371  0.3662 -0.0893
13409TIP3    H161718   0.247   6.480   1.191 -0.2518 -0.0840 -0.1114
13409TIP3    H261719   0.181   6.345   1.177 -0.4917 -0.0636  0.7825
13410TIP3   OH261720   6.536   0.036   5.178 -0.3996  0.4826  0.0810
13410TIP3    H161721   6.520  -0.021   5.253 -0.3382 -1.2735 -1.1806
13410TIP3    H261722   6.457   0.091   5.173 -1.3469 -0.8133  0.2140
13411TIP3   OH261723   5.559   3.909  13.568  0.0654  0.3189 -0.9805
13411TIP3    H161724   5.562   3.862  13.484 -1.9341  0.0190 -0.9523
13411TIP3    H261725   5.644   3.892  13.608  0.8600 -0.0058 -2.6877
13412TIP3   OH261726   3.870   3.429  14.564  0.3785 -0.1135  0.3834
13412TIP3    H161727   3.820   3.480  14.627  1.9414  0.9979  0.8124
13412TIP3    H261728   3.960   3.462  14.573  0.9030 -0.9082 -1.4376
13413TIP3   OH261729   5.982   1.835   3.596 -0.2510  0.6122  0.4275
13413TIP3    H161730   6.004   1.925   3.573 -0.2201  1.4914  3.4894
13413TIP3    H261731   5.924   1.842   3.672  1.9283 -1.8814  2.5633
13414TIP3   OH261732   3.566   5.519   5.592 -0.0652 -0.0631 -1.1530
13414TIP3    H161733   3.528   5.437   5.560 -0.3622  0.0026 -0.9717
13414TIP3    H261734   3.654   5.495   5.623 -0.5900 -0.5497  0.0149
13415TIP3   OH261735   3.931   6.522   3.456 -0.2846  0.1990  0.2261
13415TIP3    H161736   3.970   6.547   3.372 -2.8495 -0.3311 -1.2216
13415TIP3    H261737   3.963   6.433   3.471 -0.3362  0.0403 -0.5432
13416TIP3   OH261738   4.052   3.075  12.068 -0.2421  0.4462  0.1871
13416TIP3    H161739   4.052   3.170  12.084 -2.4885  1.1263 -2.9285
13416TIP3    H261740   4.142   3.056  12.040  0.8107  1.1440  2.7588
13417TIP3   OH261741   4.934   4.121  12.183  0.2347 -0.3530 -0.2785
13417TIP3    H161742   4.840   4.107  12.194  0.4347 -2.7314 -1.0315
13417TIP3    H261743   4.966   4.040  12.143  2.8349 -0.1636  1.1893
13418TIP3   OH261744   3.001   1.699   1.440 -0.3035 -0.0568  0.7831
13418TIP3    H161745   3.037   1.765   1.380  0.8884 -0.8333  0.6176
13418TIP3    H261746   2.906   1.706   1.428 -0.1385  0.6639 -0.2634
13419TIP3   OH261747   5.299   5.102  15.150 -0.7211 -0.6131  0.0779
13419TIP3    H161748   5.251   5.044  15.092 -0.4003 -1.2230  0.4110
13419TIP3    H261749   5.255   5.187  15.141 -1.4564 -1.0037 -0.1009
13420TIP3   OH261750   6.486   2.690  13.972  0.2475 -0.4282 -0.1894
13420TIP3    H161751   6.551   2.672  13.904 -1.6030 -0.2529 -2.1187
13420TIP3    H261752   6.416   2.737  13.926 -0.3021  1.2964  2.2507
13421TIP3   OH261753   3.391   5.061  15.516  0.2383 -0.1133 -0.9258
13421TIP3    H161754   3.401   5.125  15.587  0.5889 -1.7734  0.5815
13421TIP3    H261755   3.466   5.078  15.458  1.3681 -0.3302  0.4250
13422TIP3   OH261756   3.520   2.692   4.182 -0.4721 -1.0237  0.2512
13422TIP3    H161757   3.602   2.666   4.138  0.2417  0.9630  0.3159
13422TIP3    H261758   3.459   2.709   4.110  0.4264  1.3438 -0.0544
13423TIP3   OH261759   3.398   4.824   3.920 -0.1491 -0.0664  0.4167
13423TIP3    H161760   3.401   4.729   3.904  1.9749 -0.2252  1.3603
13423TIP3    H261761   3.380   4.862   3.834  0.3386 -1.2793 -0.2602
13424TIP3   OH261762   4.012   1.617  16.859  0.2655  0.1014  1.0602
13424TIP3    H161763   3.998   1.523  16.846 -1.4321  0.5306 -0.6877
13424TIP3    H261764   3.970   1.636  16.942 -1.4154 -0.3446  0.3633
13425TIP3   OH261765   5.943   3.174  11.472  0.5478  0.1388  0.4737
13425TIP3    H161766   5.918   3.253  11.520  1.0133  0.6884 -0.1769
13425TIP3    H261767   6.029   3.194  11.436 -0.2203  0.1702 -1.4890
13426TIP3   OH261768   0.018   5.830   3.246  0.5940  0.0267 -0.3008
13426TIP3    H161769  -0.003   5.918   3.214 -4.0932  0.2368  2.4175
13426TIP3    H261770   0.010   5.774   3.169 -0.6940  1.5226 -1.3250
13427TIP3   OH261771   2.812   4.359   2.584  0.4973 -0.1936 -0.2463
13427TIP3    H161772   2.754   4.342   2.658 -0.5225 -1.1474 -1.2189
13427TIP3    H261773   2.871   4.428   2.615 -0.4473  0.0333  1.1525
13428TIP3   OH261774   0.334   1.623   1.775  0.1576  0.5891  0.1857
13428TIP3    H161775   0.288   1.697   1.737  2.1865  1.2525 -1.1568
13428TIP3    H261776   0.266   1.561   1.798 -1.3428  0.4823 -3.8166
13429TIP3   OH261777   3.533   3.015   4.500 -0.2727  0.3976 -0.3676
13429TIP3    H161778   3.519   3.107   4.476  0.2520 -0.0227 -2.5219
13429TIP3    H261779   3.570   2.975   4.421  1.4017 -1.2423  1.1436
13430TIP3   OH261780   1.603   4.157  14.726  0.5324 -0.1674  0.5313
13430TIP3    H161781   1.535   4.098  14.758 -0.5675  0.6006 -0.3072
13430TIP3    H261782   1.613   4.222  14.796  1.6047 -1.2021  1.3684
13431TIP3   OH261783   0.197   5.615   4.362 -0.4623  0.4966 -0.2763
13431TIP3    H161784   0.148   5.690   4.393 -1.2022  0.4486 -1.2611
13431TIP3    H261785   0.219   5.565   4.441 -2.5914  0.1628  0.1681
13432TIP3   OH261786   0.626   2.417   0.917  1.2220 -0.0985 -0.1216
13432TIP3    H161787   0.568   2.451   0.985 -0.3819 -0.7188 -1.1315
13432TIP3    H261788   0.582   2.338   0.885  2.4978 -0.4346 -1.1186
13433TIP3   OH261789   6.198   5.721   0.455  0.3585  0.3847 -0.0205
13433TIP3    H161790   6.194   5.667   0.377  1.0297 -0.4288  0.4933
13433TIP3    H261791   6.288   5.711   0.487 -0.1676 -0.0572  1.3794
13434TIP3   OH261792   1.838   4.352  10.577 -0.3946 -0.4953 -0.2844
13434TIP3    H161793   1.873   4.291  10.641  0.0459 -0.0890 -0.1320
13434TIP3    H261794   1.809   4.297  10.504  1.3838 -0.7894 -0.8153
13435TIP3   OH261795   1.061   4.899  13.471  0.2300 -1.1113  0.2696
13435TIP3    H161796   1.024   4.854  13.546 -0.7482 -1.0229 -0.1410
13435TIP3    H261797   1.122   4.836  13.432 -1.4241 -2.2593 -0.5429
13436TIP3   OH261798   4.627   1.304   1.701  0.4210 -0.4010 -0.5472
13436TIP3    H161799   4.571   1.239   1.743 -0.6587  1.4383  1.0189
13436TIP3    H261800   4.672   1.347   1.773 -0.5664  2.0620 -1.2939
13437TIP3   OH261801   5.695   5.864   4.789 -0.3845 -0.6716  0.4202
13437TIP3    H161802   5.788   5.840   4.790 -0.4340 -0.8525  0.7320
13437TIP3    H261803   5.652   5.787   4.751 -0.2526 -0.0272 -1.1020
13438TIP3   OH261804   2.962   3.551  13.912 -0.4758 -0.1675 -0.2776
13438TIP3    H161805   2.913   3.506  13.981  1.3102 -2.1617 -0.2209
13438TIP3    H261806   2.896   3.570  13.845 -1.6667 -1.1149  0.5733
13439TIP3   OH261807   5.968   0.388  12.128  0.1592  0.1278 -0.1999
13439TIP3    H161808   5.956   0.360  12.037  1.1643  0.3683 -0.4215
13439TIP3    H261809   6.063   0.402  12.136  0.8545 -4.0757  2.0340
13440TIP3   OH261810   2.462   2.140   3.838 -0.2859  0.6250  0.1108
13440TIP3    H161811   2.502   2.137   3.751 -0.9689  0.0403 -0.1975
13440TIP3    H261812   2.503   2.215   3.881  0.6107  0.4634 -0.4389
13441TIP3   OH261813   2.400   1.019   3.905  0.6125  0.0501  0.1435
13441TIP3    H161814   2.393   1.108   3.869  0.2966  0.6363  1.5598
13441TIP3    H261815   2.428   1.033   3.996  1.5330 -1.3612  0.1005
13442TIP3   OH261816   0.385   3.722   5.286  0.1286 -0.0149  0.0200
13442TIP3    H161817   0.465   3.717   5.234  0.2210 -2.1073  0.2730
13442TIP3    H261818   0.316   3.742   5.222  0.6364  0.3197 -0.4346
13443TIP3   OH261819   0.703   5.203  14.748  0.0124 -0.3330  0.3982
13443TIP3    H161820   0.786   5.249  14.761 -0.8182  1.2727  0.2902
13443TIP3    H261821   0.639   5.273  14.735 -0.7536 -1.5153 -3.4920
13444TIP3   OH261822   1.097   5.297   2.704 -0.3603  0.0163  0.0671
13444TIP3    H161823   1.110   5.382   2.662  0.0578  0.3186  0.8047
13444TIP3    H261824   1.011   5.268   2.672 -0.7653  0.9703  0.2495
13445TIP3   OH261825   3.466   5.883   3.671 -0.2475 -0.1911  0.2161
13445TIP3    H161826   3.550   5.879   3.625 -1.8175  0.5559 -3.0327
13445TIP3    H261827   3.434   5.971   3.655 -1.6299 -0.4118  1.5055
13446TIP3   OH261828   0.449   1.470  17.009  0.3830 -0.2590  0.4241
13446TIP3    H161829   0.517   1.521  16.965  0.6919  0.6224  1.8474
13446TIP3    H261830   0.488   1.383  17.022  0.7297 -0.1599  0.0523
13447TIP3   OH261831   1.315   4.048   3.029  0.1895 -0.3434 -0.3666
13447TIP3    H161832   1.394   4.039   2.976  2.0067 -1.5131  2.3476
13447TIP3    H261833   1.338   4.110   3.098 -0.7136 -1.7773  1.3179
13448TIP3   OH261834   4.038   6.244   0.925  1.0070 -0.7642 -0.3617
13448TIP3    H161835   3.975   6.197   0.980  0.7629 -0.4758 -0.3933
13448TIP3    H261836   4.110   6.265   0.985  0.2832  0.4502  0.1118
13449TIP3   OH261837   6.780   6.512   4.417  0.1862 -0.1120 -0.9807
13449TIP3    H161838   6.862   6.553   4.444 -0.0510 -0.2608  0.0110
13449TIP3    H261839   6.731   6.583   4.374  0.4815  0.2016 -0.8031
13450TIP3   OH261840   3.286   5.873  13.685  0.0656 -0.3456 -0.0366
13450TIP3    H161841   3.270   5.788  13.643  2.2575 -0.8125 -0.0860
13450TIP3    H261842   3.295   5.853  13.778  3.4307 -0.7534 -0.3285
13451TIP3   OH261843   0.908   6.647   0.822 -0.6705 -0.0055 -0.1362
13451TIP3    H161844   0.941   6.726   0.865 -0.2126 -0.7561  0.9269
13451TIP3    H261845   0.885   6.588   0.894  0.1223 -1.3033 -0.9089
13452TIP3   OH261846   3.933   5.464   1.940 -0.7584  0.1579  0.0739
13452TIP3    H161847   3.845   5.471   1.903 -0.9347  1.0089  0.6407
13452TIP3    H261848   3.985   5.525   1.888 -0.5593 -0.1511 -0.0896
13453TIP3   OH261849   2.141   6.062  14.419  0.5265  0.0955  0.1765
13453TIP3    H161850   2.081   5.988  14.426  0.8016 -0.1133  0.4047
13453TIP3    H261851   2.222   6.024  14.384  1.1785 -0.0221  1.7299
13454TIP3   OH261852   0.628   2.784   3.071  0.2658 -0.2096  0.8145
13454TIP3    H161853   0.617   2.689   3.063 -1.7382  0.1280 -2.1904
13454TIP3    H261854   0.694   2.805   3.005  0.1667  0.5624  0.9571
13455TIP3   OH261855   4.670   5.124  12.129 -0.5726  0.6681  0.1254
13455TIP3    H161856   4.732   5.177  12.079  1.0707 -1.7943 -0.6669
13455TIP3    H261857   4.617   5.080  12.062  0.5010 -1.3491  0.5227
13456TIP3   OH261858   0.460   2.959  13.901  0.0247  0.0836 -0.4627
13456TIP3    H161859   0.512   2.895  13.853 -0.8758 -0.9346 -0.1484
13456TIP3    H261860   0.381   2.970  13.849 -0.2306  0.2236 -0.0566
13457TIP3   OH261861   1.713   2.282  10.750 -0.4292  0.3179 -0.2303
13457TIP3    H161862   1.659   2.245  10.819 -1.9925  0.6532 -1.2303
13457TIP3    H261863   1.755   2.206  10.709  0.0592  0.0749  0.6955
13458TIP3   OH261864   1.346   4.053   1.754  0.3281  0.4440 -0.2772
13458TIP3    H161865   1.278   3.994   1.721 -0.0909  0.0706  1.1935
13458TIP3    H261866   1.413   3.995   1.790  0.7599  0.8467 -0.4107
13459TIP3   OH261867   3.812   0.253  16.804  0.0548 -0.1340 -0.7027
13459TIP3    H161868   3.776   0.229  16.719 -0.2418 -1.4226 -0.2371
13459TIP3    H261869   3.761   0.330  16.830 -2.3221 -1.7618 -0.1654
13460TIP3   OH261870   3.508   1.025  15.799 -0.5273  0.1280  0.1547
13460TIP3    H161871   3.470   0.969  15.732  0.5215  0.0918 -0.4416
13460TIP3    H261872   3.553   0.965  15.858 -1.0377  0.1998  0.6284
13461TIP3   OH261873   4.897   5.238   0.316  0.0825 -0.2150  0.4447
13461TIP3    H161874   4.883   5.263   0.225  1.0521  0.4465  0.4589
13461TIP3    H261875   4.898   5.143   0.316 -3.4193 -0.3578  0.3217
13462TIP3   OH261876   6.040   3.966   2.018  0.3950 -0.0432 -0.2102
13462TIP3    H161877   6.021   3.878   2.052  0.2557  0.3936  0.8746
13462TIP3    H261878   5.971   3.983   1.954  0.7488 -0.9450 -0.8555
13463TIP3   OH261879   2.392   4.708  16.786 -0.4262 -0.0843  0.6324
13463TIP3    H161880   2.410   4.621  16.750 -1.0320 -0.0257  0.1777
13463TIP3    H261881   2.446   4.712  16.866  3.5846  1.0177 -1.8295
13464TIP3   OH261882   2.198   2.361   5.212 -0.0253 -0.8187 -0.9209
13464TIP3    H161883   2.156   2.303   5.148  0.2008 -1.2102 -0.7179
13464TIP3    H261884   2.141   2.437   5.217  0.4447 -0.3357 -2.3206
13465TIP3   OH261885   3.770   1.229   0.642  0.3675 -0.0908 -0.1242
13465TIP3    H161886   3.818   1.147   0.647 -0.5675 -0.6020  0.7516
13465TIP3    H261887   3.762   1.247   0.548 -1.0199 -1.9688 -0.4074
13466TIP3   OH261888   2.019   0.236   3.859  0.1426 -0.3647  0.2357
13466TIP3    H161889   1.981   0.186   3.787  0.1893 -2.4105  1.5592
13466TIP3    H261890   2.011   0.327   3.831 -1.3128 -0.9918 -1.6345
13467TIP3   OH261891   0.867   5.374   4.838 -0.2070  0.7238 -0.2060
13467TIP3    H161892   0.810   5.411   4.770  0.1376  0.9248 -0.3867
13467TIP3    H261893   0.947   5.349   4.792  1.0673  3.1697  0.4970
13468TIP3   OH261894   0.479   2.169   0.344 -0.7772 -0.4826 -0.2059
13468TIP3    H161895   0.507   2.241   0.287  1.2292 -1.2207 -0.2372
13468TIP3    H261896   0.467   2.095   0.285  1.4365 -1.2874  0.2497
13469TIP3   OH261897   5.985   1.329   2.769  0.1815  0.1805 -0.0197
13469TIP3    H161898   5.959   1.421   2.758  0.8703  0.2228 -1.4054
13469TIP3    H261899   5.927   1.280   2.710  1.1188 -0.0526 -0.7653
13470TIP3   OH261900   3.148   5.433  15.836  0.2338  0.3395  0.9609
13470TIP3    H161901   3.191   5.477  15.909  0.3962 -1.7543  2.2027
13470TIP3    H261902   3.055   5.447  15.851  0.3178  1.2143  0.6958
13471TIP3   OH261903   5.345   2.963   5.302 -0.2249  0.1098  0.0372
13471TIP3    H161904   5.287   2.985   5.228  0.9568  0.5210 -0.8054
13471TIP3    H261905   5.385   3.047   5.326 -0.2978 -0.0944  0.9004
13472TIP3   OH261906   1.831   1.198   1.479 -0.6331  0.1999 -0.0086
13472TIP3    H161907   1.772   1.195   1.554 -0.1431  2.3088  0.5376
13472TIP3    H261908   1.917   1.216   1.517 -0.4190  1.5820 -1.0549
13473TIP3   OH261909   5.653   4.127  11.985  0.2620 -0.0165 -0.0890
13473TIP3    H161910   5.592   4.123  12.059  0.4430  0.0361  0.0647
13473TIP3    H261911   5.701   4.209  11.998  0.3069 -0.0167 -0.2544
13474TIP3   OH261912   0.180   6.623  13.761 -0.7192 -1.2471  0.0697
13474TIP3    H161913   0.118   6.633  13.689 -1.1045  1.4158  0.6737
13474TIP3    H261914   0.126   6.604  13.838 -0.5447 -1.3819  0.1627
13475TIP3   OH261915   1.361   0.075   6.496  0.2231  0.8695  0.5119
13475TIP3    H161916   1.352   0.055   6.589  0.4038 -0.7446  0.2172
13475TIP3    H261917   1.272   0.086   6.465  0.1000  0.3375  0.6689
13476TIP3   OH261918   1.071   6.355  13.773  0.6399  0.6938  0.2314
13476TIP3    H161919   1.063   6.277  13.717  0.3622  0.0794  1.1180
13476TIP3    H261920   1.155   6.343  13.818  1.5822  1.9054 -1.1024
13477TIP3   OH261921   2.574   0.068   2.621 -0.0763  0.0306  0.3001
13477TIP3    H161922   2.628   0.134   2.578 -0.0151 -0.6917 -0.7683
13477TIP3    H261923   2.507   0.046   2.556 -0.7427 -0.1924  1.0407
13478TIP3   OH261924   2.479   1.304   5.826 -0.1490  0.3577  0.5002
13478TIP3    H161925   2.522   1.221   5.805 -1.6191 -0.8701  2.0841
13478TIP3    H261926   2.452   1.295   5.917 -2.4036  1.6242  0.0392
13479TIP3   OH261927   1.270   2.087  11.827  0.1017 -0.0156  0.0200
13479TIP3    H161928   1.262   1.998  11.860  0.5622  0.4262  1.3772
13479TIP3    H261929   1.215   2.140  11.884  1.4114  0.8610  0.5371
13480TIP3   OH261930   6.609   1.077   3.694  0.0429 -0.0950 -0.1174
13480TIP3    H161931   6.581   1.167   3.675 -1.0418  0.2420  2.6312
13480TIP3    H261932   6.528   1.026   3.693  0.0109 -0.2112  2.2718
13481TIP3   OH261933   0.201   5.329   4.818 -0.2209  0.2081  0.2338
13481TIP3    H161934   0.291   5.297   4.809  0.0964  1.0739  0.2426
13481TIP3    H261935   0.147   5.253   4.797  0.5037 -0.5205  0.9120
13482TIP3   OH261936   0.067   2.237  14.869  0.4545  0.1352 -0.2653
13482TIP3    H161937  -0.016   2.242  14.915  1.8159  0.7502  2.3167
13482TIP3    H261938   0.053   2.287  14.788 -2.3048 -1.7605 -1.0937
13483TIP3   OH261939   0.498   6.686   1.781  0.1496 -0.3035  0.2268
13483TIP3    H161940   0.415   6.721   1.813 -1.1538 -1.8297 -1.2458
13483TIP3    H261941   0.504   6.599   1.820 -0.1639 -1.1279 -1.4318
13484TIP3   OH261942   4.064   1.212   5.316  0.0727 -0.3992 -0.7832
13484TIP3    H161943   4.109   1.216   5.401  0.6316 -2.2057 -0.9582
13484TIP3    H261944   3.990   1.272   5.325  0.7070  0.2132  0.6171
13485TIP3   OH261945   0.681   3.803   3.358 -0.0451 -0.4900 -0.0476
13485TIP3    H161946   0.664   3.830   3.449  1.2661  1.8836 -0.4301
13485TIP3    H261947   0.761   3.849   3.334 -0.0180 -1.5529 -2.2387
13486TIP3   OH261948   4.273   2.958   0.002  0.3558 -0.1887 -0.1779
13486TIP3    H161949   4.343   3.015  -0.031  0.9213 -0.2553  0.8752
13486TIP3    H261950   4.226   3.013   0.065 -1.1931  0.1897 -1.6037
13487TIP3   OH261951   1.345   5.581  17.113 -0.4940  0.1450  0.1827
13487TIP3    H161952   1.308   5.646  17.173 -1.3585 -0.0856 -0.0866
13487TIP3    H261953   1.286   5.583  17.037  0.7875  0.6946 -0.8341
13488TIP3   OH261954   0.656   5.051   3.769 -0.4136 -0.4421  0.0294
13488TIP3    H161955   0.620   5.068   3.856 -2.3021 -0.6125 -0.6699
13488TIP3    H261956   0.743   5.016   3.785  0.0039  1.2270  1.7942
13489TIP3   OH261957   1.539   1.914  12.019  0.3036 -0.1522  0.3942
13489TIP3    H161958   1.626   1.937  11.987  0.4801 -0.9285  0.3007
13489TIP3    H261959   1.502   1.859  11.950 -0.1980  0.0264  0.5138
13490TIP3   OH261960   3.426   4.836   2.391 -0.0466 -0.2177  0.5055
13490TIP3    H161961   3.463   4.898   2.329  3.4373 -1.0429  1.5424
13490TIP3    H261962   3.420   4.885   2.473  0.5703 -0.6111  0.7901
13491TIP3   OH261963   5.204   5.080   0.159 -0.1462  0.4651  0.1097
13491TIP3    H161964   5.293   5.067   0.191 -0.1371 -0.3831 -0.2105
13491TIP3    H261965   5.149   5.066   0.236  0.0136  1.6187  0.4517
13492TIP3   OH261966   0.138   2.568   6.263  0.1329 -0.1840 -0.1319
13492TIP3    H161967   0.065   2.547   6.321  1.8980 -1.1921  1.8951
13492TIP3    H261968   0.215   2.534   6.309  2.1065  2.3119 -1.3359
13493TIP3   OH261969   2.068   4.880   2.344 -0.2977 -1.0087  0.1148
13493TIP3    H161970   2.133   4.831   2.296  0.9378  1.0782 -0.4786
13493TIP3    H261971   2.062   4.836   2.429 -0.1956 -2.8582 -0.7845
13494TIP3   OH261972   0.509   4.433   2.251 -0.3122 -0.4977 -0.6812
13494TIP3    H161973   0.440   4.485   2.209  0.2093 -0.2523 -1.2525
13494TIP3    H261974   0.581   4.494   2.263 -0.7809 -0.3025  1.5183
13495TIP3   OH261975   0.007   3.316  17.118  0.7379  0.7183 -0.0473
13495TIP3    H161976   0.068   3.349  17.184  1.2730 -1.1711  0.4585
13495TIP3    H261977  -0.077   3.312  17.164  0.8216  0.6978  0.1078
13496TIP3   OH261978   6.512   1.829  13.945  0.1110 -0.1133 -0.0717
13496TIP3    H161979   6.545   1.766  14.009  0.2532  1.5144  1.5563
13496TIP3    H261980   6.427   1.855  13.979  0.0634  0.5921 -0.7022
13497TIP3   OH261981   6.525   3.179  15.225 -0.4796 -0.3393 -0.1284
13497TIP3    H161982   6.480   3.125  15.289  1.6294 -1.0112  0.8642
13497TIP3    H261983   6.528   3.267  15.264 -3.1695  0.4265 -1.3814
13498TIP3   OH261984   4.511   4.144   3.291 -0.6027  0.1667  0.3664
13498TIP3    H161985   4.486   4.175   3.378 -3.4009 -0.4478 -0.1003
13498TIP3    H261986   4.446   4.076   3.270 -0.4650  0.7721 -2.4542
13499TIP3   OH261987   4.290   6.501   0.091 -0.0063  0.0871 -0.0311
13499TIP3    H161988   4.289   6.476  -0.001 -1.2804  2.8824 -0.9104
13499TIP3    H261989   4.374   6.546   0.103  0.2609 -0.4852  0.2313
13500TIP3   OH261990   0.705   6.515   2.451  0.1013  0.1345  0.0247
13500TIP3    H161991   0.726   6.547   2.363  3.3012 -0.5662  0.4211
13500TIP3    H261992   0.750   6.575   2.510 -0.1768 -0.6745  1.0919
13501TIP3   OH261993   3.678   4.872   5.561  0.8895 -0.0708  0.2448
13501TIP3    H161994   3.683   4.777   5.576  0.2401 -0.0923  0.3519
13501TIP3    H261995   3.769   4.901   5.564  0.9613 -0.3771  2.1936
13502TIP3   OH261996   5.657   5.909   1.218 -0.6324  0.5891 -0.4565
13502TIP3    H161997   5.695   5.906   1.306 -0.3228  2.4528 -0.4944
13502TIP3    H261998   5.724   5.869   1.162 -1.1089 -1.2391  0.1914
13503TIP3   OH261999   6.795   1.647  15.987 -0.2417 -0.3602  0.2949
13503TIP3    H162000   6.815   1.738  16.005 -1.7695  0.1300 -0.3025
13503TIP3    H262001   6.867   1.617  15.931 -0.3002  0.8334 -0.4591
13504TIP3   OH262002   0.270   0.581   0.625 -0.1876 -0.5383 -0.0417
13504TIP3    H162003   0.350   0.548   0.585  0.6268  0.7734  0.4270
13504TIP3    H262004   0.254   0.524   0.700  0.1739 -0.9559 -0.2847
13505TIP3   OH262005   2.570   1.353  11.964  0.1291 -0.0867  0.1505
13505TIP3    H162006   2.490   1.320  12.005 -1.3758  1.5408 -1.2835
13505TIP3    H262007   2.623   1.275  11.950 -0.6413 -1.0679  2.2565
13506TIP3   OH262008   1.665   6.684   3.706 -0.2601 -0.2704  0.5693
13506TIP3    H162009   1.678   6.620   3.777  1.4009 -1.5264 -0.7770
13506TIP3    H262010   1.641   6.631   3.630 -0.9586  0.9427 -0.0807
13507TIP3   OH262011   5.997   2.371   3.004  0.5855 -0.5873 -0.6175
13507TIP3    H162012   6.078   2.326   3.027  0.5917 -0.7035 -0.8570
13507TIP3    H262013   6.007   2.393   2.911  2.0635  3.0278  0.2614
13508TIP3   OH262014   4.337   1.235   0.472  0.2405  0.6025 -0.1513
13508TIP3    H162015   4.351   1.166   0.407 -2.2052 -0.6622  0.5432
13508TIP3    H262016   4.331   1.315   0.420 -1.2553 -0.3211 -1.5056
13509TIP3   OH262017   1.574   4.055   2.861  0.1956 -0.4275 -0.7864
13509TIP3    H162018   1.607   4.032   2.774 -0.2009 -0.1643 -1.0112
13509TIP3    H262019   1.598   4.147   2.872 -0.1484 -0.3327 -0.8094
13510TIP3   OH262020   4.653   1.442   4.989 -0.0328  0.2297 -0.4159
13510TIP3    H162021   4.700   1.525   4.979 -1.0454  0.7450 -1.0240
13510TIP3    H262022   4.596   1.437   4.913 -1.1095 -0.2863  0.3948
13511TIP3   OH262023   2.462   6.435   2.989 -0.3588 -0.7198  0.4107
13511TIP3    H162024   2.414   6.362   3.029 -0.8513 -1.4996 -1.4773
13511TIP3    H262025   2.535   6.393   2.943 -0.9353 -0.1345 -1.1305
13512TIP3   OH262026   1.403   6.024   1.975 -0.5834  0.6487 -0.2662
13512TIP3    H162027   1.312   5.992   1.972  0.2333 -1.9054  0.2350
13512TIP3    H262028   1.437   5.993   2.058  1.6724 -1.3194 -1.7790
13513TIP3   OH262029   5.911   2.431  11.195  0.7112  0.4372  0.0821
13513TIP3    H162030   5.988   2.408  11.144  2.8581  0.0086  3.2238
13513TIP3    H262031   5.935   2.409  11.285 -2.6581  1.4626  1.3710
13514TIP3   OH262032   0.229   2.881   0.099 -0.3541 -0.7985 -0.0284
13514TIP3    H162033   0.270   2.965   0.084 -0.9268 -0.1915  1.5501
13514TIP3    H262034   0.271   2.821   0.037  1.6539  0.1550  0.3448
13515TIP3   OH262035   1.571   4.031   6.601 -0.5845 -0.6137  0.0637
13515TIP3    H162036   1.478   4.037   6.581 -0.5711  1.8741  0.4431
13515TIP3    H262037   1.577   4.048   6.695  0.1676 -2.2414  0.3442
13516TIP3   OH262038   1.323   0.106   0.455 -0.0834 -0.5138 -0.0996
13516TIP3    H162039   1.341   0.027   0.404  4.0804  0.1831  0.0005
13516TIP3    H262040   1.321   0.176   0.391 -0.6037 -0.2733  0.1657
13517TIP3   OH262041   3.294   3.084  15.467  0.5147  0.9380 -0.2809
13517TIP3    H162042   3.271   3.078  15.560  0.4893  0.2825 -0.3241
13517TIP3    H262043   3.212   3.064  15.421  0.6166  0.8843 -0.4401
13518TIP3   OH262044   6.162   4.146  11.592  0.4009  0.4739  0.2009
13518TIP3    H162045   6.234   4.114  11.647  1.0854  0.5379 -0.6291
13518TIP3    H262046   6.201   4.219  11.543 -1.1148  2.6620  2.0533
13519TIP3   OH262047   4.846   3.623  16.477 -0.2609  0.4622  0.0256
13519TIP3    H162048   4.892   3.668  16.548  1.2430 -0.2010 -0.4689
13519TIP3    H262049   4.917   3.592  16.419 -1.4033  0.3199 -1.3500
13520TIP3   OH262050   1.406   2.391  12.870  0.2108  0.4237  0.3471
13520TIP3    H162051   1.360   2.321  12.916  1.5105 -1.0802 -0.5619
13520TIP3    H262052   1.375   2.384  12.779  0.8768  0.5542  0.1037
13521TIP3   OH262053   0.933   0.506   0.470  0.5785 -0.0303  0.0286
13521TIP3    H162054   0.847   0.548   0.464  0.4094 -0.3323  0.2670
13521TIP3    H262055   0.914   0.412   0.467  0.9679 -0.0949 -0.6958
13522TIP3   OH262056   1.805   1.958  12.574  0.2368  0.0366  0.5100
13522TIP3    H162057   1.754   1.965  12.494  0.5522 -1.6075  0.1302
13522TIP3    H262058   1.762   2.018  12.636 -1.0786 -0.0161 -0.3291
13523TIP3   OH262059   3.328   6.688  10.315  0.3720 -0.0969 -0.2567
13523TIP3    H162060   3.304   6.755  10.379  0.1169 -0.3259 -0.1044
13523TIP3    H262061   3.312   6.605  10.361  0.2499 -0.2637 -0.5936
13524TIP3   OH262062   6.292   4.840  14.300 -0.3837  0.4124  0.1151
13524TIP3    H162063   6.362   4.899  14.271  0.9969 -0.5953  1.2848
13524TIP3    H262064   6.215   4.869  14.251  1.2271  0.3884 -2.6033
13525TIP3   OH262065   4.686   4.436   3.624  0.0454 -0.3888  0.6286
13525TIP3    H162066   4.635   4.505   3.668 -0.7644 -1.1533  0.9062
13525TIP3    H262067   4.653   4.354   3.661  0.8823 -0.9465  0.1736
13526TIP3   OH262068   1.578   1.151   5.432 -0.4148  0.1969  0.2726
13526TIP3    H162069   1.586   1.204   5.352  0.6206 -0.0204  0.2120
13526TIP3    H262070   1.515   1.083   5.410 -0.1606  0.1585 -0.3568
13527TIP3   OH262071   1.312   1.705   2.309  0.7455 -0.7194 -0.2363
13527TIP3    H162072   1.391   1.660   2.279  1.7432 -1.3333  2.8995
13527TIP3    H262073   1.344   1.786   2.349 -0.2832 -0.6373  0.4528
13528TIP3   OH262074   3.869   0.750   2.013  0.2915 -0.5080 -0.0809
13528TIP3    H162075   3.892   0.743   1.920  1.1896 -1.8732  0.2064
13528TIP3    H262076   3.918   0.826   2.045  2.6427 -1.9404 -0.0332
13529TIP3   OH262077   1.255   6.187   5.413 -0.7575 -0.1794  0.1252
13529TIP3    H162078   1.219   6.141   5.337 -1.1716  1.3751 -0.6539
13529TIP3    H262079   1.213   6.146   5.488 -0.4391 -1.6645 -0.4758
13530TIP3   OH262080   1.069   6.230  12.578 -0.2157 -0.0212 -0.3044
13530TIP3    H162081   1.163   6.237  12.560 -0.3019 -2.3822 -2.1773
13530TIP3    H262082   1.062   6.161  12.644 -0.6303  0.8128  0.5603
13531TIP3   OH262083   1.627   0.466  13.728 -0.2783 -0.2625  0.1645
13531TIP3    H162084   1.614   0.372  13.718  1.5239 -0.5013 -0.3428
13531TIP3    H262085   1.634   0.479  13.823  1.0210 -0.9152  0.1836
13532TIP3   OH262086   5.297   1.110  13.948 -0.3976 -0.2029 -0.0614
13532TIP3    H162087   5.328   1.196  13.976  1.6189 -1.4157  1.7868
13532TIP3    H262088   5.342   1.093  13.866 -0.3056  0.2317 -0.1025
13533TIP3   OH262089   6.499   1.338   4.278 -0.2785 -0.0529 -0.1339
13533TIP3    H162090   6.567   1.287   4.235  0.4041  1.1386 -0.5129
13533TIP3    H262091   6.512   1.321   4.371  1.5215  1.2949 -0.0911
13534TIP3   OH262092   5.139   5.435   4.342 -0.2524  0.3009 -0.5238
13534TIP3    H162093   5.229   5.405   4.349  0.3265  1.8912 -0.6522
13534TIP3    H262094   5.088   5.372   4.393  0.7404 -1.3101 -1.4447
13535TIP3   OH262095   1.822   3.729  11.590  0.4654 -0.2523 -0.1053
13535TIP3    H162096   1.782   3.807  11.551  0.8230  0.2738  0.5489
13535TIP3    H262097   1.754   3.663  11.586  0.1809  0.0654 -0.7486
13536TIP3   OH262098   5.373   2.035   3.858 -0.7991 -0.1899  0.8740
13536TIP3    H162099   5.468   2.041   3.848 -0.5929 -2.5375  0.8981
13536TIP3    H262100   5.360   2.003   3.947 -1.6195  0.1310  0.8782
13537TIP3   OH262101   4.709   0.756  16.269  0.9428 -0.1468  0.7469
13537TIP3    H162102   4.718   0.709  16.187  0.9896 -0.9063  1.1823
13537TIP3    H262103   4.716   0.849  16.245 -0.3225 -0.3010 -0.2738
13538TIP3   OH262104   0.489   1.113  15.150  0.2491 -0.2303 -0.3319
13538TIP3    H162105   0.481   1.145  15.060  0.0234  0.6185 -0.0189
13538TIP3    H262106   0.462   1.021  15.145 -0.2377 -0.0603 -1.0392
13539TIP3   OH262107   5.394   0.197  12.297 -0.2383  0.4681  1.0604
13539TIP3    H162108   5.480   0.202  12.255  0.4677 -1.0223  2.2219
13539TIP3    H262109   5.333   0.233  12.232  1.1602  0.8837 -0.0704
13540TIP3   OH262110   2.812   1.839   0.528  0.1841 -0.3024 -0.7672
13540TIP3    H162111   2.759   1.883   0.594  0.5764 -0.8563 -0.0657
13540TIP3    H262112   2.812   1.899   0.454 -0.8680  0.0007 -0.5395
13541TIP3   OH262113   3.751   0.024   0.042 -0.3722  0.4135  0.2472
13541TIP3    H162114   3.845   0.009   0.049 -0.4074  0.9837  3.1428
13541TIP3    H262115   3.712  -0.064   0.049 -0.0857  0.2693  0.0398
13542TIP3   OH262116   1.170   6.651   4.692  0.6433 -0.1084  0.0667
13542TIP3    H162117   1.176   6.589   4.620 -0.1130 -0.9718  0.7189
13542TIP3    H262118   1.158   6.597   4.770  0.6392  0.8338  0.7477
13543TIP3   OH262119   6.405   4.422  13.088  0.0417 -0.3649 -0.0955
13543TIP3    H162120   6.376   4.332  13.076 -2.8660  0.6269 -1.5284
13543TIP3    H262121   6.449   4.445  13.006 -0.0711 -0.1971 -0.1103
13544TIP3   OH262122   0.764   0.769   1.694 -0.2717 -0.3918 -0.3294
13544TIP3    H162123   0.784   0.780   1.601 -0.9477 -2.8138 -0.8394
13544TIP3    H262124   0.849   0.757   1.736  0.0393  0.7722 -0.6095
13545TIP3   OH262125   0.947   6.611   4.393  0.0250  0.2689 -0.9953
13545TIP3    H162126   0.887   6.541   4.368 -1.4112  0.2246  2.1128
13545TIP3    H262127   1.032   6.568   4.402 -0.6930 -0.9816  0.1902
13546TIP3   OH262128   4.522   5.049  13.855  0.1647 -0.7859  0.7286
13546TIP3    H162129   4.616   5.053  13.874  0.4960 -0.3353 -0.8659
13546TIP3    H262130   4.490   5.137  13.873 -0.0095 -0.9920  1.4674
13547TIP3   OH262131   6.126   0.252  14.826 -0.0004  0.1389 -0.2757
13547TIP3    H162132   6.106   0.311  14.753 -0.6638 -2.5230 -2.4222
13547TIP3    H262133   6.221   0.249  14.829  0.0443  1.6679  0.1994
13548TIP3   OH262134   2.757   3.257  10.777 -0.7052 -0.5296  0.1251
13548TIP3    H162135   2.763   3.162  10.786  0.2534 -0.6185 -1.0429
13548TIP3    H262136   2.744   3.271  10.683  0.3605  0.5074  0.1008
13549TIP3   OH262137   0.103   2.740   0.796 -0.1417  0.1092  0.0235
13549TIP3    H162138   0.081   2.778   0.881  1.6342  1.6451 -0.1234
13549TIP3    H262139   0.093   2.646   0.808  0.5449  0.2578  2.0995
13550TIP3   OH262140   0.043   4.305   1.345  0.4514  0.5575  0.2074
13550TIP3    H162141   0.075   4.379   1.293 -0.5836  0.5644 -0.4634
13550TIP3    H262142   0.045   4.337   1.436 -2.6881  2.5822 -0.2718
13551TIP3   OH262143   3.885   1.126  14.648 -0.3202 -0.0243  0.1046
13551TIP3    H162144   3.869   1.147  14.557  2.4903 -0.0995 -0.4995
13551TIP3    H262145   3.880   1.030  14.652  3.3037 -0.4393 -0.9910
13552TIP3   OH262146   6.347   0.341   2.058  0.1800 -0.2556 -0.1347
13552TIP3    H162147   6.324   0.355   1.966  0.9620  0.8031 -0.1928
13552TIP3    H262148   6.387   0.254   2.060 -2.1504 -1.3988 -0.3163
13553TIP3   OH262149   1.166   1.157  13.928 -0.6563 -0.3185 -0.2112
13553TIP3    H162150   1.192   1.086  13.987 -2.9955 -1.9840 -1.0522
13553TIP3    H262151   1.089   1.196  13.970 -0.3991  0.6302 -0.6011
13554TIP3   OH262152   0.983   2.118  12.976  0.0840  0.3458 -0.1396
13554TIP3    H162153   0.935   2.052  13.025 -0.1499  1.2399  0.8751
13554TIP3    H262154   0.934   2.127  12.894  0.0043 -0.5704 -0.2005
13555TIP3   OH262155   4.241   5.322  15.367 -0.2957  0.0773  0.0361
13555TIP3    H162156   4.164   5.268  15.388 -0.0140 -1.8621 -3.1821
13555TIP3    H262157   4.300   5.309  15.440 -1.2080 -2.1983  0.4713
13556TIP3   OH262158   5.984   5.228  13.130  0.2487 -0.7993  0.5530
13556TIP3    H162159   5.994   5.139  13.164  1.3547 -0.5504  0.9194
13556TIP3    H262160   6.066   5.272  13.153  0.0962  0.0461 -0.4523
13557TIP3   OH262161   3.410   2.166   5.046 -0.3366 -0.5757 -0.4231
13557TIP3    H162162   3.434   2.104   4.977  3.0796  1.1556 -1.0542
13557TIP3    H262163   3.374   2.241   4.999  0.2680 -0.1196 -0.1670
13558TIP3   OH262164   6.730   5.575  16.386 -0.0790  0.3127  0.7314
13558TIP3    H162165   6.680   5.493  16.383 -0.3659  0.4938  0.5998
13558TIP3    H262166   6.798   5.559  16.452 -0.3566  0.0951  0.9645
13559TIP3   OH262167   1.271   0.531   5.234  0.3108 -0.1259 -0.3500
13559TIP3    H162168   1.268   0.466   5.164  1.3202 -0.2688 -0.2841
13559TIP3    H262169   1.320   0.488   5.304  1.9044  1.0309 -0.6969
13560TIP3   OH262170   0.701   6.006   5.582  0.3454 -0.5402  0.2227
13560TIP3    H162171   0.775   5.945   5.586  0.6408 -0.2236 -0.3222
13560TIP3    H262172   0.720   6.071   5.649  0.5100 -0.5152  0.1516
13561TIP3   OH262173   4.100   2.250   2.374 -0.0066 -0.0105 -0.5950
13561TIP3    H162174   4.143   2.335   2.390  2.9603 -1.2351 -1.3227
13561TIP3    H262175   4.141   2.190   2.436 -2.6489 -0.8494  0.4782
13562TIP3   OH262176   1.620   0.024   3.395 -0.7497 -0.2428  0.1069
13562TIP3    H162177   1.689   0.005   3.460 -0.9645  2.0565  1.0847
13562TIP3    H262178   1.640  -0.035   3.322  0.1205 -2.1898  1.8083
13563TIP3   OH262179   1.545   4.616   5.549 -0.1619  0.1549  0.4372
13563TIP3    H162180   1.586   4.531   5.531 -0.6347 -0.8978  3.6761
13563TIP3    H262181   1.451   4.601   5.538 -0.1054  1.2605 -2.2421
13564TIP3   OH262182   0.718   4.298   1.343 -0.2019 -0.8869  0.0737
13564TIP3    H162183   0.657   4.240   1.298  2.1485 -3.6211  0.1109
13564TIP3    H262184   0.724   4.263   1.432  0.7694 -0.1620  0.3090
13565TIP3   OH262185   1.839   2.014  14.068  0.0020  0.2326 -0.2047
13565TIP3    H162186   1.827   1.956  14.143 -0.6767  0.2099 -0.3254
13565TIP3    H262187   1.926   1.992  14.034  1.1411  1.5453  1.6828
13566TIP3   OH262188   6.676   4.493  15.232  0.6310  0.5639  0.4894
13566TIP3    H162189   6.632   4.433  15.292 -0.5484 -0.0100 -0.8827
13566TIP3    H262190   6.606   4.526  15.175  1.7083  0.9940 -0.6420
13567TIP3   OH262191   3.183   0.439   0.012  0.4948 -0.2325  0.2675
13567TIP3    H162192   3.253   0.399   0.063  1.1669  1.4343  0.7161
13567TIP3    H262193   3.172   0.526   0.051 -1.1263 -0.0796 -0.4538
13568TIP3   OH262194   0.369   6.207  15.551  0.3740 -0.2713  0.0343
13568TIP3    H162195   0.295   6.183  15.494  0.7399 -1.0494 -0.1335
13568TIP3    H262196   0.359   6.151  15.628 -0.3300  1.0433  0.9325
13569TIP3   OH262197   1.922   0.371   3.631 -0.4991 -0.2313  0.7042
13569TIP3    H162198   1.868   0.425   3.688  1.0266  0.7494  1.2763
13569TIP3    H262199   2.007   0.413   3.631 -0.1968 -0.6928 -1.6429
13570TIP3   OH262200   5.608   1.768   3.509 -0.1270 -0.3252 -0.0751
13570TIP3    H162201   5.644   1.855   3.523  0.4525 -0.7235  1.0374
13570TIP3    H262202   5.683   1.709   3.519 -0.3976 -0.9305 -1.3693
13571TIP3   OH262203   0.299   3.842   1.185 -0.1764 -0.3112 -0.4827
13571TIP3    H162204   0.228   3.905   1.172  0.2907  0.4959  0.6776
13571TIP3    H262205   0.354   3.882   1.253  0.0957 -2.0315  0.3560
13572TIP3   OH262206   2.475   5.936  17.043 -0.0430 -0.2970 -0.0000
13572TIP3    H162207   2.447   5.908  17.130 -0.0550 -0.1480  0.0439
13572TIP3    H262208   2.395   5.936  16.991  0.0037 -0.6284 -0.0755
13573TIP3   OH262209   5.754   1.187  15.172  0.3611  0.2612 -0.3367
13573TIP3    H162210   5.724   1.268  15.215  1.5441  0.1224  0.8219
13573TIP3    H262211   5.705   1.117  15.216  0.8271  0.1958  0.0794
13574TIP3   OH262212   1.245   1.124  14.383 -0.4365  0.6324  0.1639
13574TIP3    H162213   1.183   1.117  14.455 -1.4763 -0.5464 -0.7799
13574TIP3    H262214   1.239   1.214  14.353 -0.1296  1.0785  1.4146
13575TIP3   OH262215   2.063   1.924   1.525 -0.8291  0.2662 -0.0274
13575TIP3    H162216   1.971   1.904   1.539 -0.6509  0.5188  1.7613
13575TIP3    H262217   2.107   1.839   1.531 -1.0884 -0.2445 -3.2215
13576TIP3   OH262218   2.885   0.167  14.122  0.7541 -0.0941 -0.1343
13576TIP3    H162219   2.887   0.174  14.218  1.1895 -1.2710 -0.0466
13576TIP3    H262220   2.800   0.127  14.103  1.4117 -1.5545 -0.1001
13577TIP3   OH262221   4.990   0.975  12.753 -0.0097 -0.1509  0.1413
13577TIP3    H162222   5.061   0.977  12.817 -0.1712  0.6827  0.3168
13577TIP3    H262223   5.006   1.052  12.698 -0.4836 -0.2421 -0.1303
13578TIP3   OH262224   2.656   2.304  11.992  0.0865 -0.2110  0.5139
13578TIP3    H162225   2.644   2.299  11.897  1.9751 -0.4514  0.2500
13578TIP3    H262226   2.671   2.213  12.018 -2.3263 -0.4457  1.3955
13579TIP3   OH262227   5.376   5.499   0.361 -0.6203  0.4907 -0.1583
13579TIP3    H162228   5.430   5.466   0.289  1.4271  0.7811  1.1655
13579TIP3    H262229   5.336   5.421   0.399  0.2204  0.0721 -0.1228
13580TIP3   OH262230   4.809   3.844  16.015  0.6928 -0.3398 -0.1477
13580TIP3    H162231   4.721   3.863  16.046  0.4401 -2.3810  0.5680
13580TIP3    H262232   4.866   3.858  16.091  0.6857 -1.0565 -0.0042
13581TIP3   OH262233   2.031   2.660  13.035 -0.1451  0.5664 -0.8022
13581TIP3    H162234   1.981   2.653  12.954  0.1915  0.4861 -1.0057
13581TIP3    H262235   2.118   2.686  13.007 -0.8030  3.7358 -0.2316
13582TIP3   OH262236   4.497   3.177   4.744 -0.3073 -0.4071 -0.6137
13582TIP3    H162237   4.592   3.165   4.754 -0.3933 -2.6370 -1.8895
13582TIP3    H262238   4.485   3.194   4.650 -1.2567 -1.2043 -0.6404
13583TIP3   OH262239   3.266   2.777  13.512  0.2823 -0.5173 -0.2897
13583TIP3    H162240   3.327   2.816  13.450 -1.1563 -2.0969 -2.8838
13583TIP3    H262241   3.212   2.851  13.541  1.5454  0.4098 -0.1988
13584TIP3   OH262242   6.358   3.263  10.317 -0.2660  0.4286 -0.0299
13584TIP3    H162243   6.428   3.311  10.274 -0.9247  1.0815 -0.3916
13584TIP3    H262244   6.279   3.312  10.297 -0.9006 -0.5556 -0.0251
13585TIP3   OH262245   2.999   5.789  16.352  0.5184 -0.8877 -0.2972
13585TIP3    H162246   2.907   5.776  16.376  0.6242 -2.0196 -0.4574
13585TIP3    H262247   3.044   5.800  16.436  0.0730  1.0471 -0.2606
13586TIP3   OH262248   4.780   6.244   1.800 -0.1848  0.2143 -0.2855
13586TIP3    H162249   4.728   6.317   1.833  0.2289  0.2216  0.3470
13586TIP3    H262250   4.747   6.231   1.711 -2.3870 -0.7716  0.5856
13587TIP3   OH262251   4.140   6.637   4.708 -0.5821 -0.5732  0.2593
13587TIP3    H162252   4.141   6.637   4.804 -0.7454  1.7255  0.3037
13587TIP3    H262253   4.177   6.721   4.683  1.0244 -1.7874 -1.7690
13588TIP3   OH262254   3.121   3.296   0.572  0.1760  0.1392 -0.0134
13588TIP3    H162255   3.144   3.381   0.534  0.5315  0.5853  1.1470
13588TIP3    H262256   3.191   3.279   0.636 -1.3440  0.2967  1.7622
13589TIP3   OH262257   3.869   2.219   5.398  0.6881  0.2349  0.2148
13589TIP3    H162258   3.865   2.126   5.420  1.0694  0.3635  0.8721
13589TIP3    H262259   3.815   2.261   5.465  1.0492  0.5468  0.3134
13590TIP3   OH262260   0.204   1.296   5.150 -0.7967 -0.1640 -0.0176
13590TIP3    H162261   0.184   1.389   5.135  0.2278  0.3105  1.3284
13590TIP3    H262262   0.236   1.293   5.240  0.1155 -1.6750 -0.3610
13591TIP3   OH262263   6.486   4.288   4.007 -0.3966 -1.0916 -0.4177
13591TIP3    H162264   6.556   4.350   3.990 -1.4051  0.1770 -0.1583
13591TIP3    H262265   6.489   4.226   3.935  1.0002 -1.0840 -0.3805
13592TIP3   OH262266   1.634   0.439  16.346  0.0285 -0.3764  0.3943
13592TIP3    H162267   1.723   0.423  16.376 -0.0192 -2.3884 -0.3673
13592TIP3    H262268   1.583   0.365  16.380 -1.5176  1.0550  1.3586
13593TIP3   OH262269   2.074   2.715   0.003  0.1002 -0.4849  0.5132
13593TIP3    H162270   1.997   2.771  -0.007  0.5251  0.0712  0.3242
13593TIP3    H262271   2.107   2.704  -0.086  0.9065  0.2327  0.7070
13594TIP3   OH262272   2.100   1.859  11.670 -0.4559 -0.1313 -0.1396
13594TIP3    H162273   2.057   1.944  11.660 -1.7455 -0.7588 -0.0975
13594TIP3    H262274   2.064   1.806  11.600 -0.9129 -1.1353  0.8271
13595TIP3   OH262275   3.973   5.246  14.376 -0.3708 -0.1812 -0.2672
13595TIP3    H162276   4.066   5.251  14.394 -0.1418 -1.4059 -0.9967
13595TIP3    H262277   3.935   5.319  14.426  0.7988 -0.4436  1.0664
13596TIP3   OH262278   5.554   0.394   6.138  0.0834 -0.2548 -0.1039
13596TIP3    H162279   5.588   0.437   6.217  0.3512  1.9101 -1.3038
13596TIP3    H262280   5.459   0.398   6.148  0.1083 -1.3937  0.7807
13597TIP3   OH262281   0.491   1.373  10.616 -0.3371  0.1302  0.1632
13597TIP3    H162282   0.428   1.388  10.546  0.3460 -1.0638 -0.7609
13597TIP3    H262283   0.448   1.404  10.695 -1.7023  0.1873 -0.5779
13598TIP3   OH262284   0.779   1.149   0.133 -0.2008 -0.2708 -0.2994
13598TIP3    H162285   0.807   1.076   0.188 -0.1557 -0.0598 -0.0371
13598TIP3    H262286   0.819   1.226   0.174  1.1821 -0.2715 -1.5653
13599TIP3   OH262287   0.108   6.066  16.283  0.2418  0.5641  0.1700
13599TIP3    H162288   0.179   6.128  16.266 -0.0387  0.5812 -0.9954
13599TIP3    H262289   0.093   6.022  16.199  0.6798 -1.3647  1.0499
13600TIP3   OH262290   3.672   5.921  14.063  0.1133  0.1500  0.4592
13600TIP3    H162291   3.756   5.881  14.085  0.6083  1.5996  1.4001
13600TIP3    H262292   3.611   5.888  14.129  0.3543  0.3916  0.8078
13601TIP3   OH262293   5.360   1.513   2.699  0.2433  0.5258 -0.0198
13601TIP3    H162294   5.374   1.481   2.610 -0.4848  0.3155 -0.0591
13601TIP3    H262295   5.449   1.530   2.732  0.5835 -0.5151 -0.3639
13602TIP3   OH262296   5.641   0.382  12.474 -0.5180 -0.0154 -0.0274
13602TIP3    H162297   5.609   0.310  12.420 -1.7013  0.8530 -0.5369
13602TIP3    H262298   5.736   0.382  12.461 -0.6928 -0.3919 -1.3973
13603TIP3   OH262299   2.920   3.803  12.348 -0.0996  0.3961  0.1472
13603TIP3    H162300   2.882   3.738  12.408  1.9725  1.1492  2.4394
13603TIP3    H262301   2.900   3.887  12.390  0.4093  1.0201 -0.8539
13604TIP3   OH262302   5.216   5.380  10.928  0.2533 -0.7565 -0.0451
13604TIP3    H162303   5.275   5.398  11.001 -0.6458  0.4772  0.4161
13604TIP3    H262304   5.133   5.357  10.969 -0.5787  1.0213 -0.6234
13605TIP3   OH262305   3.369   1.946   5.249  0.5788 -0.2983 -0.0993
13605TIP3    H162306   3.419   2.017   5.209  1.3318 -0.4421  0.5467
13605TIP3    H262307   3.344   1.890   5.175  1.3414 -0.1947 -0.4533
13606TIP3   OH262308   1.760   4.007  11.929  0.6166 -0.0127  0.1773
13606TIP3    H162309   1.667   4.014  11.950  0.4078  0.6585 -0.9175
13606TIP3    H262310   1.765   3.939  11.862  0.6699  1.1709 -1.0701
13607TIP3   OH262311   3.303   1.960  11.485  0.1327  0.3026  0.4170
13607TIP3    H162312   3.349   2.044  11.484 -0.3031  0.5594  1.3238
13607TIP3    H262313   3.240   1.967  11.557  1.4737 -1.5231  1.9033
13608TIP3   OH262314   4.504   1.411  12.105  0.0467 -0.1636  0.1193
13608TIP3    H162315   4.595   1.387  12.089  0.5876  2.0881 -0.5641
13608TIP3    H262316   4.506   1.506  12.117 -2.3838  0.1633 -1.3289
13609TIP3   OH262317   0.579   2.567  14.087  0.5707  0.0828  0.1384
13609TIP3    H162318   0.589   2.648  14.136 -0.3870 -0.4657  1.3026
13609TIP3    H262319   0.566   2.500  14.154  1.9425 -1.1528 -0.7588
13610TIP3   OH262320   5.540   2.100  14.354 -0.1200 -0.1361  0.1132
13610TIP3    H162321   5.488   2.123  14.277  0.1258  1.2878  0.3474
13610TIP3    H262322   5.582   2.017  14.330 -0.4939 -0.0104 -1.0625
13611TIP3   OH262323   5.048   4.880   0.036  0.8193  0.6620 -0.3834
13611TIP3    H162324   5.051   4.800   0.088 -1.5406 -0.0814 -1.2877
13611TIP3    H262325   5.114   4.937   0.076  0.0109 -0.3261  2.5883
13612TIP3   OH262326   0.212   0.082   4.680  0.0082 -0.4480 -0.0364
13612TIP3    H162327   0.257   0.142   4.621 -2.8386  1.0676 -0.8540
13612TIP3    H262328   0.187   0.135   4.755 -0.1881 -1.2870  0.5072
13613TIP3   OH262329   3.727   1.162  13.535  0.0718  0.3274  0.4179
13613TIP3    H162330   3.685   1.213  13.605  2.5545  1.2025  1.4004
13613TIP3    H262331   3.808   1.130  13.575  0.7569 -0.5790 -1.5876
13614TIP3   OH262332   0.054   0.795   3.946 -0.2561 -0.1131 -0.2476
13614TIP3    H162333  -0.016   0.811   4.008  1.8513  1.6363  1.8718
13614TIP3    H262334   0.032   0.849   3.870 -0.0771  2.4307  1.3780
13615TIP3   OH262335   4.329   1.037  12.503  0.4589  1.4981 -0.1468
13615TIP3    H162336   4.404   0.997  12.548  0.3105 -0.9095 -1.8394
13615TIP3    H262337   4.368   1.092  12.435  0.6672  2.1016  0.4509
13616TIP3   OH262338   3.208   4.303   2.594  0.3659 -0.5181 -0.1450
13616TIP3    H162339   3.146   4.286   2.665  1.3935 -2.1663  0.4125
13616TIP3    H262340   3.220   4.398   2.595 -0.1371 -0.4439  1.4685
13617TIP3   OH262341   2.155   1.812   0.447  0.4948  0.3134 -0.1955
13617TIP3    H162342   2.132   1.851   0.362  1.6494  0.3833 -0.4936
13617TIP3    H262343   2.247   1.786   0.438  0.4483 -0.2753  0.8219
13618TIP3   OH262344   4.282   3.141  13.173 -0.1774 -0.2068 -0.4336
13618TIP3    H162345   4.371   3.171  13.153  0.4661 -2.6051 -1.5165
13618TIP3    H262346   4.272   3.157  13.267  1.3554  0.1753 -0.3048
13619TIP3   OH262347   1.166   4.413   4.780  0.1970 -0.4692 -0.4507
13619TIP3    H162348   1.174   4.509   4.785  2.5981 -0.6239  0.2230
13619TIP3    H262349   1.097   4.391   4.843 -0.7367  0.8356 -0.9783
13620TIP3   OH262350   4.181   3.120  15.257  0.1814 -0.5088  0.2248
13620TIP3    H162351   4.173   3.146  15.165  2.2130 -3.8728 -1.1249
13620TIP3    H262352   4.224   3.194  15.300 -0.8569  1.1654 -1.4873
13621TIP3   OH262353   5.143   6.184  15.455 -0.1225 -0.2675  0.3428
13621TIP3    H162354   5.071   6.194  15.393 -0.5474  1.8432  1.0962
13621TIP3    H262355   5.222   6.194  15.402 -0.3270 -2.1872 -0.4165
13622TIP3   OH262356   0.886   6.555  14.492 -0.1753 -0.1874 -0.1109
13622TIP3    H162357   0.816   6.611  14.526  1.5623  1.5429  0.7840
13622TIP3    H262358   0.948   6.615  14.451  1.5134 -1.5026  0.3936
13623TIP3   OH262359   6.013   0.108   0.881  1.2016  0.7461  0.0425
13623TIP3    H162360   6.001   0.198   0.910  1.7496  0.6314  0.6515
13623TIP3    H262361   5.949   0.096   0.811  0.2754  1.2184  0.7861
13624TIP3   OH262362   6.575   3.423  10.231  0.2558  0.0231 -0.8410
13624TIP3    H162363   6.660   3.380  10.237 -0.3545 -1.3212 -1.4544
13624TIP3    H262364   6.582   3.500  10.289  1.2188 -1.1710  0.6999
13625TIP3   OH262365   3.792   1.864  16.629 -0.5937  0.5843  0.4798
13625TIP3    H162366   3.800   1.776  16.591 -1.1477  0.5994  0.3265
13625TIP3    H262367   3.873   1.875  16.679 -0.0421  0.3858 -0.3370
13626TIP3   OH262368   2.265   3.489   0.981  0.3354 -0.1066  0.1799
13626TIP3    H162369   2.289   3.550   0.912  1.7351  0.5650  1.2072
13626TIP3    H262370   2.320   3.513   1.055 -2.0762  0.1173  2.0405
13627TIP3   OH262371   4.919   6.013  15.044 -0.0164 -0.4806  0.0670
13627TIP3    H162372   4.883   6.094  15.080  2.5782  0.8406 -0.0162
13627TIP3    H262373   4.952   5.965  15.120 -2.3323 -1.9836  0.2146
13628TIP3   OH262374   1.413   2.446   1.944  0.1671 -0.4244 -0.3265
13628TIP3    H162375   1.328   2.489   1.958  0.1746  0.1645 -1.8878
13628TIP3    H262376   1.461   2.461   2.026  0.2162  2.7419 -0.8075
13629TIP3   OH262377   0.911   1.406   5.148  0.4410 -0.0871 -0.3701
13629TIP3    H162378   0.991   1.389   5.098  0.9065 -0.0639  0.3358
13629TIP3    H262379   0.858   1.327   5.136  0.2922  0.1600 -1.3565
13630TIP3   OH262380   6.823   1.932  16.055  0.8572  0.5649  0.1261
13630TIP3    H162381   6.855   2.001  15.998 -1.5542  0.6275 -1.2842
13630TIP3    H262382   6.730   1.954  16.070  0.5293 -1.3329  1.2143
13631TIP3   OH262383   4.924   0.616   4.247  0.1374 -0.0679 -0.7566
13631TIP3    H162384   4.889   0.644   4.332 -1.5053 -0.7581 -1.1759
13631TIP3    H262385   4.959   0.528   4.263  4.2691  1.5501  0.2886
13632TIP3   OH262386   2.400   2.013  11.917 -0.0104  0.1875 -0.2686
13632TIP3    H162387   2.397   1.933  11.864 -1.6058  0.0685 -0.0342
13632TIP3    H262388   2.309   2.032  11.938  0.4922  0.8286  1.5636
13633TIP3   OH262389   6.400   1.153   6.293  0.4723  0.2994  0.3853
13633TIP3    H162390   6.354   1.074   6.263  1.0092  0.2220 -0.2713
13633TIP3    H262391   6.423   1.134   6.384  1.7137 -0.8526 -0.1255
13634TIP3   OH262392   6.254   1.466  15.144  0.3298  0.2519 -0.1330
13634TIP3    H162393   6.247   1.504  15.232 -1.4867 -0.2666 -0.0187
13634TIP3    H262394   6.164   1.450  15.117  0.7964  1.1945 -2.4859
13635TIP3   OH262395   4.245   1.870   5.787  0.1286  0.0026 -0.1772
13635TIP3    H162396   4.229   1.897   5.696 -0.7917  0.6472  0.1570
13635TIP3    H262397   4.309   1.799   5.780 -0.0927 -0.1067 -1.3451
13636TIP3   OH262398   3.822   3.439   6.272  0.5344  0.2457  0.1279
13636TIP3    H162399   3.770   3.473   6.345  0.0780 -0.7009  0.2579
13636TIP3    H262400   3.815   3.344   6.280 -0.2326  0.1322 -1.6562
13637TIP3   OH262401   3.773   1.155  14.376 -0.4938  0.2481  0.3720
13637TIP3    H162402   3.759   1.066  14.342 -0.9761  0.6381 -0.4898
13637TIP3    H262403   3.703   1.207  14.336 -0.0331  1.0778  0.6296
13638TIP3   OH262404   4.565   6.654  17.043 -0.0124  0.0057 -0.3201
13638TIP3    H162405   4.550   6.698  17.127  0.1983  0.0350 -0.2969
13638TIP3    H262406   4.603   6.569  17.067 -0.7090 -0.3184 -0.3499
13639TIP3   OH262407   5.655   5.712   2.487  0.2083 -0.3363 -0.0540
13639TIP3    H162408   5.667   5.620   2.463 -0.2397  0.1449 -2.3395
13639TIP3    H262409   5.580   5.741   2.435 -0.8951  0.8697  2.0485
13640TIP3   OH262410   2.995   2.721   5.610  0.3294 -0.4688 -0.2830
13640TIP3    H162411   2.927   2.720   5.542  1.0066  2.7462 -1.1546
13640TIP3    H262412   3.065   2.665   5.576 -0.2829 -0.7093 -1.1570
13641TIP3   OH262413   0.360   1.157   4.817  0.7470 -0.0251 -0.1868
13641TIP3    H162414   0.363   1.111   4.734  1.8518  0.2156 -0.2890
13641TIP3    H262415   0.267   1.159   4.840  0.4299 -0.0812 -1.4145
13642TIP3   OH262416   1.018   0.584  11.636  0.6762  0.0223 -0.0728
13642TIP3    H162417   1.016   0.569  11.542  1.6403  0.0142 -0.1020
13642TIP3    H262418   1.015   0.679  11.646  1.0764  0.0452 -0.1387
13643TIP3   OH262419   5.860   1.758  13.165  0.1468  0.3669 -0.6311
13643TIP3    H162420   5.790   1.764  13.100 -1.5515  1.4580  1.1747
13643TIP3    H262421   5.847   1.835  13.221  1.5195 -0.5268  0.9904
13644TIP3   OH262422   3.326   0.043  10.507 -0.5119  0.3650 -0.2724
13644TIP3    H162423   3.375   0.116  10.467 -0.7437 -0.4987 -2.2653
13644TIP3    H262424   3.371   0.026  10.589  2.5947 -0.3159 -1.9428
13645TIP3   OH262425   5.470   0.541  14.431 -0.4045 -0.0655 -0.0777
13645TIP3    H162426   5.381   0.551  14.466 -0.2670  0.1164  0.2273
13645TIP3    H262427   5.480   0.446  14.420  0.0168 -0.2534  1.6462
13646TIP3   OH262428   1.220   5.030   3.497 -0.4764  0.3120 -0.3577
13646TIP3    H162429   1.243   4.944   3.463  0.8711  1.0332 -1.3640
13646TIP3    H262430   1.277   5.042   3.573  1.4438  1.4098 -1.8673
13647TIP3   OH262431   4.343   0.196  14.631  0.3170 -0.4560 -0.0254
13647TIP3    H162432   4.381   0.283  14.614 -0.3745 -0.1918 -0.2453
13647TIP3    H262433   4.267   0.214  14.686 -0.5838 -0.7893 -1.1368
13648TIP3   OH262434   1.797   2.090   0.905 -0.1136 -0.4260 -0.8288
13648TIP3    H162435   1.748   2.153   0.853 -1.8278 -0.9180  0.1236
13648TIP3    H262436   1.809   2.132   0.990  1.2911 -0.2613 -1.0776
13649TIP3   OH262437   2.574   1.296  14.078  0.0738 -0.5238 -0.4077
13649TIP3    H162438   2.569   1.351  14.000  2.1678  0.8615  0.3502
13649TIP3    H262439   2.621   1.350  14.142 -1.5177 -1.6213  1.8150
13650TIP3   OH262440   5.054   3.609  13.913  0.2321 -0.2852 -0.0821
13650TIP3    H162441   5.104   3.671  13.966 -1.0897  0.6148  0.1701
13650TIP3    H262442   5.007   3.556  13.977 -1.5832  0.9806 -0.2901
13651TIP3   OH262443   3.363   4.774   1.507  0.2050  0.1817 -0.1301
13651TIP3    H162444   3.355   4.869   1.502 -2.4158  0.0680  0.1643
13651TIP3    H262445   3.273   4.742   1.495  0.9810 -2.2517 -0.0626
13652TIP3   OH262446   2.544   5.044   5.477  0.4339  0.1751  0.1226
13652TIP3    H162447   2.487   4.970   5.494  1.5634 -0.6042  0.6769
13652TIP3    H262448   2.494   5.121   5.504 -1.2008 -0.2340 -1.5438
13653TIP3   OH262449   1.638   6.675   0.786 -0.1471 -0.1482 -0.5508
13653TIP3    H162450   1.624   6.756   0.739  1.4833  0.3912 -0.1903
13653TIP3    H262451   1.670   6.702   0.872  2.1031 -1.1163 -0.9934
13654TIP3   OH262452   4.930   5.801  17.024  0.0356  0.1770 -0.3232
13654TIP3    H162453   4.917   5.716  17.065  0.4552 -1.0079 -2.5335
13654TIP3    H262454   4.855   5.812  16.965  1.1250  0.2637 -1.7523
13655TIP3   OH262455   5.534   2.545   2.845 -0.3162 -0.0519 -0.7346
13655TIP3    H162456   5.524   2.633   2.882  0.9517  0.9021 -2.5168
13655TIP3    H262457   5.593   2.500   2.906 -1.3884  0.1141  0.4713
13656TIP3   OH262458   2.986   5.394   3.375  0.5384 -0.6017  0.2283
13656TIP3    H162459   3.080   5.410   3.379  0.2249  1.2992  0.5925
13656TIP3    H262460   2.972   5.357   3.287  1.4215  0.6064 -0.4401
13657TIP3   OH262461   6.549   4.297  15.393  0.6288 -0.0666  0.0651
13657TIP3    H162462   6.496   4.300  15.473 -1.3388 -0.7148 -1.1530
13657TIP3    H262463   6.613   4.228  15.410 -1.4135 -2.0266  0.1637
13658TIP3   OH262464   3.112   2.994  16.429 -0.1835 -0.1633  0.3152
13658TIP3    H162465   3.063   2.929  16.481  1.4685 -1.2159  0.6350
13658TIP3    H262466   3.045   3.057  16.401 -1.5580 -1.0113  1.5066
13659TIP3   OH262467   6.583   3.267   4.813  0.0677  0.1519  0.4944
13659TIP3    H162468   6.498   3.257   4.855  0.3160 -0.3739  0.8853
13659TIP3    H262469   6.587   3.196   4.749 -0.3279  0.9736 -0.4811
13660TIP3   OH262470   2.907   2.272   4.454  0.2076 -0.0281  0.0054
13660TIP3    H162471   2.992   2.271   4.411  0.4250 -1.3821  0.4122
13660TIP3    H262472   2.905   2.191   4.505 -0.5087  0.9536  1.6045
13661TIP3   OH262473   2.039   1.753  13.781  0.6144  0.0471 -0.0434
13661TIP3    H162474   2.115   1.807  13.803  0.8394 -0.1854 -0.2422
13661TIP3    H262475   2.008   1.721  13.865  2.1613 -1.7717 -0.0885
13662TIP3   OH262476   3.333   4.479   6.551 -0.0112 -0.3555 -0.0805
13662TIP3    H162477   3.324   4.534   6.629  1.0474  1.5282 -1.2012
13662TIP3    H262478   3.275   4.521   6.487  2.1365  0.5839 -1.5048
13663TIP3   OH262479   4.071   4.384   3.022  0.0662 -0.2519  0.2419
13663TIP3    H162480   3.977   4.384   3.041  0.1103  2.7652  0.9304
13663TIP3    H262481   4.099   4.473   3.041  2.7097 -0.5184 -1.8681
13664TIP3   OH262482   6.497   5.407   0.694  0.0861 -0.6136 -0.9271
13664TIP3    H162483   6.404   5.427   0.690  0.2993  0.4913 -0.5626
13664TIP3    H262484   6.501   5.311   0.692 -0.9601 -0.6692 -2.8444
13665TIP3   OH262485   0.514   5.669  11.653 -0.5580  0.1467 -0.1337
13665TIP3    H162486   0.549   5.626  11.731 -0.6630 -1.1867 -0.8041
13665TIP3    H262487   0.524   5.763  11.671 -0.0274 -0.1503  1.2198
13666TIP3   OH262488   5.120   6.378   0.149 -0.4737 -0.1626 -0.2713
13666TIP3    H162489   5.201   6.417   0.181  1.5109 -2.7063 -1.7708
13666TIP3    H262490   5.102   6.308   0.212 -0.6804 -0.5252 -0.7332
13667TIP3   OH262491   3.656   2.147   0.046 -0.7069 -0.0715  0.2584
13667TIP3    H162492   3.657   2.103  -0.039  1.4346 -0.1933  0.3069
13667TIP3    H262493   3.595   2.095   0.099  1.0422 -2.5078  0.0435
13668TIP3   OH262494   0.998   6.685  12.721 -0.5882  0.1558 -0.1145
13668TIP3    H162495   0.959   6.746  12.659  1.4687  1.1664 -0.5271
13668TIP3    H262496   0.965   6.713  12.806 -1.3164  0.4844 -0.4942
13669TIP3   OH262497   0.768   5.695   2.813  0.7030 -0.1445  0.4834
13669TIP3    H162498   0.675   5.717   2.812  0.4958 -0.8260  1.8228
13669TIP3    H262499   0.795   5.698   2.721 -0.6576 -0.0238  0.0685
13670TIP3   OH262500   4.356   6.022   0.186 -0.4018  1.2838  0.1636
13670TIP3    H162501   4.269   6.061   0.173 -0.0209  2.4034  0.7867
13670TIP3    H262502   4.357   5.996   0.278 -0.7335 -0.4787 -0.3041
13671TIP3   OH262503   4.232   0.592   3.607 -0.2397  0.7902 -0.3344
13671TIP3    H162504   4.146   0.634   3.613  0.3041  1.7714  0.9981
13671TIP3    H262505   4.288   0.643   3.665  1.2635  0.1776 -1.1924
13672TIP3   OH262506   1.400   2.655   5.356 -0.1868 -0.0912 -0.3693
13672TIP3    H162507   1.406   2.681   5.448 -1.1517  2.4509 -0.9580
13672TIP3    H262508   1.325   2.594   5.354 -1.2630  1.1549  0.3107
13673TIP3   OH262509   0.911   5.811  11.532  1.1623  0.2189  0.1675
13673TIP3    H162510   0.901   5.718  11.515  0.1236  0.3053  0.2191
13673TIP3    H262511   0.905   5.853  11.447  1.3122  0.2601  0.1775
13674TIP3   OH262512   1.592   1.977  15.401 -0.3519 -0.5576 -0.2719
13674TIP3    H162513   1.520   1.981  15.338 -0.1039 -1.5684 -0.6523
13674TIP3    H262514   1.610   2.068  15.423  0.9025  0.0385 -3.2373
13675TIP3   OH262515   4.896   5.095   5.902 -0.2985 -0.3847  0.1625
13675TIP3    H162516   4.988   5.117   5.911  0.5008 -2.9403 -0.9893
13675TIP3    H262517   4.875   5.044   5.980 -1.6038  2.4563  1.8387
13676TIP3   OH262518   4.783   4.767   0.748 -0.2530  0.6168  0.0401
13676TIP3    H162519   4.801   4.773   0.842 -1.5350 -0.5991  0.3945
13676TIP3    H262520   4.825   4.844   0.711  2.4668 -0.1413  1.2616
13677TIP3   OH262521   6.428   0.146  13.118 -0.0037  0.0116  0.4337
13677TIP3    H162522   6.377   0.221  13.086  0.0583 -0.9472 -2.2114
13677TIP3    H262523   6.518   0.164  13.090  0.2494 -0.4722  0.9131
13678TIP3   OH262524   4.073   1.289  15.851 -0.1271  0.0485 -0.2113
13678TIP3    H162525   3.988   1.244  15.850  0.6346 -1.5572  1.2435
13678TIP3    H262526   4.059   1.368  15.800 -2.0965 -0.8996 -1.2665
13679TIP3   OH262527   4.935   4.633  11.939  0.9991 -0.5652 -0.7466
13679TIP3    H162528   4.859   4.633  11.997  0.9701 -0.6451 -0.7850
13679TIP3    H262529   4.983   4.554  11.963  1.0362 -0.5483 -0.7661
13680TIP3   OH262530   4.748   5.892  13.342  0.0065  0.2241 -0.3249
13680TIP3    H162531   4.796   5.881  13.260 -0.4947  0.6239 -0.6788
13680TIP3    H262532   4.706   5.978  13.334  0.6872  0.6786  0.7376
13681TIP3   OH262533   6.251   3.622  10.293 -0.1468  0.2058 -0.0709
13681TIP3    H162534   6.205   3.643  10.374 -0.0789 -1.8712  0.5733
13681TIP3    H262535   6.212   3.539  10.265  1.8400 -0.6071 -0.5689
13682TIP3   OH262536   0.043   5.219   2.711  0.1841 -0.0127 -0.0979
13682TIP3    H162537   0.023   5.131   2.742  0.2161  0.0178  0.0103
13682TIP3    H262538  -0.035   5.246   2.663  0.9624 -0.9056 -1.9390
13683TIP3   OH262539   0.476   5.236   4.763 -0.1081  0.9227  0.3001
13683TIP3    H162540   0.502   5.286   4.685 -0.0267  1.2526  0.5408
13683TIP3    H262541   0.429   5.160   4.727  1.1364  0.3325 -0.1509
13684TIP3   OH262542   2.880   2.430   1.758 -0.3200  0.0084 -0.0027
13684TIP3    H162543   2.908   2.422   1.849 -0.4527 -1.4704 -0.0738
13684TIP3    H262544   2.949   2.386   1.707  0.6158  2.2637 -0.8026
13685TIP3   OH262545   3.864   5.302   2.444  0.0541 -0.1054  0.0967
13685TIP3    H162546   3.850   5.338   2.356 -1.4851 -1.8519 -0.4269
13685TIP3    H262547   3.816   5.220   2.444  2.1484 -1.4257  1.7558
13686TIP3   OH262548   3.507   1.753   1.031 -0.8073  0.1320  0.1329
13686TIP3    H162549   3.602   1.751   1.019 -1.0700  0.1799 -2.7648
13686TIP3    H262550   3.477   1.669   0.998 -1.7612  0.0449  1.1991
13687TIP3   OH262551   6.719   3.185  16.895 -0.7194  0.1618  0.3140
13687TIP3    H162552   6.756   3.262  16.937 -0.6904  0.0423  0.5102
13687TIP3    H262553   6.723   3.117  16.962 -1.7619  0.2788  0.4964
13688TIP3   OH262554   3.066   3.794   1.574 -0.0216 -0.2316 -0.3085
13688TIP3    H162555   3.073   3.885   1.544 -0.2342 -0.2400 -0.3811
13688TIP3    H262556   3.025   3.748   1.500 -0.5062 -0.2625 -0.0197
13689TIP3   OH262557   0.413   6.573  11.893  0.4359  0.2132 -0.7441
13689TIP3    H162558   0.483   6.624  11.851 -0.2833  1.4615 -0.4985
13689TIP3    H262559   0.389   6.507  11.828 -0.1648  1.6382 -2.0503
13690TIP3   OH262560   3.070   3.735   1.149  0.1691 -0.4452  0.0304
13690TIP3    H162561   3.106   3.816   1.113  1.9367 -1.8791 -1.6487
13690TIP3    H262562   3.125   3.717   1.226 -0.6168  0.2223  0.7677
13691TIP3   OH262563   0.837   5.014   5.803  0.0419  0.3131 -0.2562
13691TIP3    H162564   0.853   5.021   5.897  0.1337 -0.0012 -0.2456
13691TIP3    H262565   0.742   5.022   5.793 -0.0013 -0.0311 -0.1018
13692TIP3   OH262566   0.972   6.249  10.726 -0.7666 -1.0300  0.2976
13692TIP3    H162567   0.999   6.188  10.795  0.7765 -2.2107 -1.2673
13692TIP3    H262568   1.053   6.291  10.697 -1.6111  0.7612  0.3429
13693TIP3   OH262569   5.835   0.248   1.701 -0.0579  0.2174 -0.3251
13693TIP3    H162570   5.907   0.192   1.731 -0.0768  0.3659  0.0066
13693TIP3    H262571   5.771   0.186   1.664  0.3785  0.1138 -0.9257
13694TIP3   OH262572   0.329   3.437  16.112  0.5138 -0.3847  0.6557
13694TIP3    H162573   0.296   3.426  16.022  1.7137 -0.9530  0.2703
13694TIP3    H262574   0.258   3.404  16.167 -0.5377  0.6516 -0.0295
13695TIP3   OH262575   1.757   2.987  13.510 -0.6807 -0.0238 -0.1185
13695TIP3    H162576   1.843   2.970  13.550 -0.8603  1.8343  1.1720
13695TIP3    H262577   1.767   2.958  13.419  1.1283 -0.3731  0.1531
13696TIP3   OH262578   3.106   3.357  13.760  0.0339 -0.7473 -0.6855
13696TIP3    H162579   3.111   3.275  13.809  2.1339 -0.4743 -0.3756
13696TIP3    H262580   3.098   3.425  13.826 -0.0566 -0.5796 -0.8678
13697TIP3   OH262581   4.434   1.792   2.701 -0.4202 -0.1779 -0.1441
13697TIP3    H162582   4.381   1.760   2.775 -1.5668 -1.3582 -1.4267
13697TIP3    H262583   4.518   1.748   2.712  0.0448  0.9698  1.3693
13698TIP3   OH262584   1.204   5.803  13.559 -0.6587  0.3913 -0.0227
13698TIP3    H162585   1.295   5.782  13.578 -0.7865  1.3319  1.8299
13698TIP3    H262586   1.168   5.722  13.522  0.3135 -0.7879  1.4814
13699TIP3   OH262587   3.476   0.998   5.352 -0.1206 -0.5938  0.4444
13699TIP3    H162588   3.475   0.903   5.361  2.1324 -0.7831 -0.6694
13699TIP3    H262589   3.554   1.026   5.399  0.6826  0.4077 -1.3830
13700TIP3   OH262590   4.318   5.124   5.724 -0.1368  0.0523  0.1557
13700TIP3    H162591   4.397   5.143   5.674 -0.0875 -0.4502  0.0304
13700TIP3    H262592   4.350   5.091   5.809 -0.2130  0.1927  0.2390
13701TIP3   OH262593   3.439   6.568   2.125 -0.4541 -0.3109 -0.8135
13701TIP3    H162594   3.501   6.523   2.067  0.1311  0.4880 -0.8167
13701TIP3    H262595   3.481   6.651   2.145 -2.1000  0.8275 -1.8937
13702TIP3   OH262596   4.073   3.361   0.477  0.6596  0.3574 -0.1451
13702TIP3    H162597   4.150   3.305   0.484  0.0934 -0.3624  0.6059
13702TIP3    H262598   4.003   3.309   0.517  0.3855  2.1230  1.8197
13703TIP3   OH262599   2.978   3.744   3.872  0.2425  0.6578 -0.1212
13703TIP3    H162600   2.948   3.765   3.961 -0.7482  1.3076 -0.5911
13703TIP3    H262601   2.966   3.649   3.865  4.2510 -0.1808  1.8305
13704TIP3   OH262602   4.363   5.345  14.260 -0.3901 -0.0214 -0.0725
13704TIP3    H162603   4.422   5.273  14.239  2.5306  2.9472 -3.1242
13704TIP3    H262604   4.402   5.386  14.337 -0.6365 -0.2141  0.1578
13705TIP3   OH262605   0.110   0.647  15.934 -0.1209 -0.5764  0.4577
13705TIP3    H162606   0.090   0.649  16.027 -0.1349 -0.3629  0.4504
13705TIP3    H262607   0.166   0.569  15.923  0.8476  0.0473  0.8331
13706TIP3   OH262608   2.940   0.666  13.109  0.1802 -0.3276  0.2319
13706TIP3    H162609   2.913   0.718  13.185 -0.1314 -1.9422  1.2648
13706TIP3    H262610   2.863   0.663  13.053  0.1991  0.3079  0.1687
13707TIP3   OH262611   3.439   3.560  15.248  0.3863  0.5060  0.0196
13707TIP3    H162612   3.492   3.490  15.212 -1.6598 -1.2763  0.2828
13707TIP3    H262613   3.489   3.591  15.324  0.1964 -2.5546  1.5448
13708TIP3   OH262614   3.150   3.898  15.086 -0.3946 -0.3299 -0.0403
13708TIP3    H162615   3.193   3.848  15.155 -1.3951 -0.2656  0.6531
13708TIP3    H262616   3.131   3.983  15.126 -3.2468 -1.1015  0.5171
13709TIP3   OH262617   6.510   1.747  13.685  0.7801  0.5339  0.0137
13709TIP3    H162618   6.555   1.771  13.766 -0.9801  2.5712  0.4718
13709TIP3    H262619   6.441   1.687  13.713 -0.6490  2.2230  0.3105
13710TIP3   OH262620   0.974   4.801  13.726  0.3701  0.7929  0.3529
13710TIP3    H162621   0.902   4.849  13.768 -0.4105  0.2477 -0.3435
13710TIP3    H262622   0.980   4.719  13.775  0.6352  0.9112  0.5204
13711TIP3   OH262623   0.284   3.834  10.642  0.1500  0.8289  0.0585
13711TIP3    H162624   0.243   3.865  10.561 -0.3495 -0.7100 -0.3004
13711TIP3    H262625   0.212   3.831  10.705  0.0631 -0.1794 -0.0821
13712TIP3   OH262626   3.969   0.541   1.712 -0.0944 -0.5339 -0.1902
13712TIP3    H162627   3.922   0.625   1.716 -1.3816 -1.1845 -1.1449
13712TIP3    H262628   3.903   0.476   1.735  0.6392 -1.3848 -0.4563
13713TIP3   OH262629   4.801   3.187   4.298 -0.5738  0.2268  0.0847
13713TIP3    H162630   4.724   3.176   4.242 -0.2842  0.0602 -0.2858
13713TIP3    H262631   4.833   3.275   4.278 -0.7461  0.3459  0.3358
13714TIP3   OH262632   6.704   5.934  12.146  0.4455 -0.2849  0.2464
13714TIP3    H162633   6.610   5.922  12.137 -0.0952  2.8332  0.4819
13714TIP3    H262634   6.715   5.981  12.229  2.3622 -1.5564  0.7906
13715TIP3   OH262635   4.193   4.132  11.904  0.1199  0.8466  0.1936
13715TIP3    H162636   4.243   4.119  11.984  2.1268 -0.5966 -1.1918
13715TIP3    H262637   4.195   4.227  11.889  0.1557  1.0744  1.5482
13716TIP3   OH262638   3.134   2.499   1.175 -0.4806  0.6182  0.2459
13716TIP3    H162639   3.163   2.534   1.090  0.0504  0.0583  0.1803
13716TIP3    H262640   3.040   2.486   1.165 -0.3201 -0.0502 -0.4959
13717TIP3   OH262641   3.056   1.211   0.261 -0.6253 -0.5325 -0.0617
13717TIP3    H162642   3.051   1.281   0.326 -0.3586 -0.0136 -0.5913
13717TIP3    H262643   2.990   1.147   0.290 -1.1111  0.0910  0.2430
13718TIP3   OH262644   0.319   2.218  16.554 -0.3095 -0.5826  0.2905
13718TIP3    H162645   0.326   2.242  16.462 -0.2496  1.3206  0.7460
13718TIP3    H262646   0.316   2.301  16.600 -2.7913 -1.4352  1.8644
13719TIP3   OH262647   4.626   5.504  13.583  0.3710 -0.5984 -0.9990
13719TIP3    H162648   4.622   5.591  13.624  1.0584 -0.7846 -0.5193
13719TIP3    H262649   4.582   5.516  13.498 -2.1506 -0.4797  0.2205
13720TIP3   OH262650   1.804   0.475   3.085 -0.0908  0.0394  0.5788
13720TIP3    H162651   1.855   0.459   3.164 -0.2731  0.4215  0.7738
13720TIP3    H262652   1.783   0.387   3.052  1.2849 -0.1348  0.1045
13721TIP3   OH262653   0.864   4.691  16.869 -0.5681 -0.7105  0.6437
13721TIP3    H162654   0.936   4.698  16.931 -0.6028 -1.3664  0.7713
13721TIP3    H262655   0.900   4.642  16.794 -0.6829 -0.4262  0.4006
13722TIP3   OH262656   2.791   6.098   3.502 -0.0834 -0.6498 -0.0160
13722TIP3    H162657   2.727   6.099   3.430  0.2039  2.8403 -0.4331
13722TIP3    H262658   2.870   6.059   3.463 -0.3803 -0.1601 -1.1691
13723TIP3   OH262659   5.104   4.494   0.534 -0.6903  0.4658  0.0885
13723TIP3    H162660   5.150   4.578   0.539  1.5779 -0.6657 -0.6906
13723TIP3    H262661   5.142   4.442   0.604 -0.4866 -0.6219 -0.8048
13724TIP3   OH262662   6.296   0.322   1.784  0.1388 -0.5173  0.0395
13724TIP3    H162663   6.278   0.340   1.691 -0.7571  0.3707  0.3639
13724TIP3    H262664   6.391   0.324   1.791  0.2479 -1.3174 -0.9967
13725TIP3   OH262665   1.849   0.851   1.030  0.3308 -0.5107  0.1287
13725TIP3    H162666   1.772   0.854   0.974 -0.1873 -0.4392  0.8321
13725TIP3    H262667   1.820   0.808   1.110  0.6851  0.6149  0.8967
13726TIP3   OH262668   2.915   0.867   4.250 -0.0785  0.3597  0.6198
13726TIP3    H162669   2.865   0.895   4.327  1.2144 -0.0715  1.6703
13726TIP3    H262670   2.855   0.810   4.202 -0.5813 -0.2303  1.8861
13727TIP3   OH262671   0.863   6.552  12.239 -0.3325  0.3886 -0.3065
13727TIP3    H162672   0.795   6.570  12.173 -1.4292  0.0134  0.6796
13727TIP3    H262673   0.827   6.590  12.319  0.7260  0.3323  0.1981
13728TIP3   OH262674   2.012   1.760  14.076 -0.1020 -0.2435 -0.0493
13728TIP3    H162675   1.926   1.754  14.116  0.6951  1.0086  2.0074
13728TIP3    H262676   2.059   1.683  14.109 -0.1912 -0.5361 -0.5905
13729TIP3   OH262677   1.029   3.437   5.753 -0.4467  0.2120  0.1420
13729TIP3    H162678   1.053   3.387   5.674 -1.0371  0.6327 -0.3176
13729TIP3    H262679   1.113   3.454   5.797 -0.2249 -1.1127  0.2795
13730TIP3   OH262680   3.975   5.262   3.445 -0.4062  0.0184  0.4436
13730TIP3    H162681   3.979   5.198   3.517 -1.2534 -1.6155 -0.8944
13730TIP3    H262682   4.013   5.216   3.371  0.1435  1.5621 -0.2763
13731TIP3   OH262683   2.904   6.278  16.557 -0.0107 -0.1045 -0.2794
13731TIP3    H162684   2.976   6.337  16.580  0.8270 -0.6541 -1.3965
13731TIP3    H262685   2.825   6.333  16.562  0.4588  0.4794  1.0338
13732TIP3   OH262686   4.196   3.782  11.940  0.5475 -0.0208  0.1899
13732TIP3    H162687   4.122   3.841  11.951  0.5512 -0.3032  2.0703
13732TIP3    H262688   4.196   3.760  11.847 -1.5541  0.1931  0.1004
13733TIP3   OH262689   3.913   5.200  15.251  0.2586  0.4027 -0.4574
13733TIP3    H162690   3.975   5.213  15.180  1.2321  0.1788  0.3240
13733TIP3    H262691   3.867   5.284  15.259  1.2242  0.9357 -0.3457
13734TIP3   OH262692   1.429   1.030   2.658  0.3224  0.2563  0.4180
13734TIP3    H162693   1.348   1.002   2.616 -0.0272 -1.0098  1.8311
13734TIP3    H262694   1.497   1.012   2.594 -0.2662 -0.8355  0.0706
13735TIP3   OH262695   0.177   0.278   5.399 -0.0701 -0.1993 -0.5323
13735TIP3    H162696   0.178   0.211   5.331  1.3553 -0.2184 -0.5127
13735TIP3    H262697   0.261   0.322   5.391 -0.4057  0.6502  0.3938
13736TIP3   OH262698   0.447   3.392   5.933  0.1840 -0.4712 -0.0005
13736TIP3    H162699   0.521   3.390   5.873 -0.3045 -1.1571 -0.5905
13736TIP3    H262700   0.379   3.341   5.889 -0.5967  0.0431  0.5903
13737TIP3   OH262701   2.877   2.875  10.948 -0.2014 -0.2665 -0.3819
13737TIP3    H162702   2.923   2.849  11.028  0.3664 -0.1033 -0.6526
13737TIP3    H262703   2.815   2.803  10.933 -1.6045  0.5349  1.1911
13738TIP3   OH262704   2.088   3.149  15.349 -0.0587  0.1773 -0.0578
13738TIP3    H162705   2.066   3.232  15.306  1.2658  0.9429  0.6884
13738TIP3    H262706   2.071   3.083  15.282  0.1679  1.1756 -1.1410
13739TIP3   OH262707   2.375   5.804  13.512  0.4985  0.1064  0.6951
13739TIP3    H162708   2.420   5.723  13.489  1.8696  1.4507 -1.7819
13739TIP3    H262709   2.321   5.824  13.436  1.0656  2.0698  0.7486
13740TIP3   OH262710   4.457   3.103  13.930 -0.1207  0.0771  0.2689
13740TIP3    H162711   4.362   3.115  13.928 -0.0364  1.6467  2.3811
13740TIP3    H262712   4.474   3.059  14.013  1.1912  3.0846  1.7347
13741TIP3   OH262713   3.625   4.266   4.350  0.2262  0.5145 -0.3004
13741TIP3    H162714   3.648   4.239   4.261  2.6820  0.6940  0.2048
13741TIP3    H262715   3.659   4.196   4.406 -2.0253 -0.0136  0.4944
13742TIP3   OH262716   2.786   1.600  10.934 -0.0715  0.1906  0.4536
13742TIP3    H162717   2.819   1.640  11.014 -1.1331  0.3907  0.8051
13742TIP3    H262718   2.730   1.667  10.894  1.0789  0.3957 -0.8921
13743TIP3   OH262719   0.677   3.193  11.232 -0.0798 -0.4622 -0.4523
13743TIP3    H162720   0.679   3.284  11.204 -0.9107  0.4091  2.1239
13743TIP3    H262721   0.604   3.154  11.183  0.5180  0.1016 -1.8495
13744TIP3   OH262722   2.608   5.696   3.378  0.6158  0.0227  0.1554
13744TIP3    H162723   2.575   5.741   3.301 -1.5087 -1.3156  0.2018
13744TIP3    H262724   2.653   5.618   3.343 -0.4375 -0.6391  0.2368
13745TIP3   OH262725   4.342   6.779   0.467  0.0870  0.4439 -0.5554
13745TIP3    H162726   4.350   6.689   0.435 -0.7460  0.0943  0.1834
13745TIP3    H262727   4.415   6.789   0.528  0.9379  0.7043 -1.5862
13746TIP3   OH262728   4.881   6.498  15.005 -0.2966  0.1335 -0.3869
13746TIP3    H162729   4.818   6.440  14.961 -0.6836  1.0693 -1.1097
13746TIP3    H262730   4.839   6.521  15.088  0.1166 -1.0624  0.1794
13747TIP3   OH262731   0.032   4.874   6.701  1.0745  0.2354  0.3092
13747TIP3    H162732  -0.056   4.884   6.664  1.2211 -0.2841 -0.2073
13747TIP3    H262733   0.018   4.874   6.795  0.6044  0.8772  0.2480
13748TIP3   OH262734   5.747   0.472  16.649 -0.4611  0.2127 -0.4845
13748TIP3    H162735   5.818   0.437  16.703 -1.9259  0.2231  1.5945
13748TIP3    H262736   5.726   0.401  16.588 -0.1847 -0.7031  0.4490
13749TIP3   OH262737   6.498   5.616   3.442 -0.0840 -0.1844 -0.2817
13749TIP3    H162738   6.561   5.552   3.475 -0.6420 -1.1074 -0.9750
13749TIP3    H262739   6.547   5.698   3.438  0.6387 -0.5615  0.6157
13750TIP3   OH262740   2.378   6.792   1.653  0.4380 -0.1913  0.0588
13750TIP3    H162741   2.434   6.771   1.728  0.9786 -1.9395 -0.7828
13750TIP3    H262742   2.388   6.718   1.594 -2.4567 -0.3851 -0.3436
13751TIP3   OH262743   6.682   0.052   0.832 -0.2131  0.1696 -0.0097
13751TIP3    H162744   6.596   0.066   0.872 -0.8696 -1.4402 -0.7983
13751TIP3    H262745   6.688   0.118   0.763 -0.5697  0.6336  0.3947
13752TIP3   OH262746   1.674   3.807   5.734 -0.7325  0.1475  0.0792
13752TIP3    H162747   1.704   3.897   5.750  1.8918 -0.4735 -0.9492
13752TIP3    H262748   1.649   3.806   5.642  0.0001 -0.3484 -0.1231
13753TIP3   OH262749   1.655   2.928   0.609  0.2812 -0.5790 -0.4674
13753TIP3    H162750   1.563   2.952   0.626  0.0555 -0.5616 -1.6408
13753TIP3    H262751   1.693   2.917   0.696 -0.5802  0.3762  0.0502
13754TIP3   OH262752   0.127   5.966  15.568  0.3258 -0.0785 -0.4359
13754TIP3    H162753   0.176   5.948  15.488  1.7128  1.5213 -0.0096
13754TIP3    H262754   0.037   5.982  15.538  0.8507  0.6515 -1.7071
13755TIP3   OH262755   4.705   3.807   2.377 -0.3914 -0.0586 -0.4790
13755TIP3    H162756   4.673   3.880   2.323 -0.3768  0.4437  0.1839
13755TIP3    H262757   4.781   3.842   2.422 -2.0098  0.4698  2.0280
13756TIP3   OH262758   0.491   3.994   4.401 -0.5088  0.1647 -0.2420
13756TIP3    H162759   0.492   3.914   4.453  4.3842  1.6579  2.5709
13756TIP3    H262760   0.548   3.975   4.326  0.7488  0.9673  0.4879
13757TIP3   OH262761   0.650   3.287   3.214 -0.0665  0.3077  0.4733
13757TIP3    H162762   0.674   3.355   3.277  0.1590  1.1798 -0.5283
13757TIP3    H262763   0.727   3.230   3.208  0.2988  0.8203  0.2232
13758TIP3   OH262764   1.707   3.737  13.785  0.0670 -0.5069 -0.3936
13758TIP3    H162765   1.657   3.668  13.829 -0.7092 -0.9344 -1.8544
13758TIP3    H262766   1.798   3.715  13.802 -0.1916 -0.1080  1.7504
13759TIP3   OH262767   6.390   5.156  14.929 -0.0164  0.3208  0.0080
13759TIP3    H162768   6.307   5.174  14.885  0.5704  1.5530 -0.6650
13759TIP3    H262769   6.397   5.223  14.997  0.2444 -0.0188  0.3235
13760TIP3   OH262770   4.648   6.425  13.446 -0.1947 -0.0040 -0.9024
13760TIP3    H162771   4.594   6.347  13.430 -0.0018 -0.4360  0.4294
13760TIP3    H262772   4.598   6.496  13.405 -0.5901 -0.7420 -1.7599
13761TIP3   OH262773   4.736   0.784  12.340  0.0998 -0.4779 -0.0996
13761TIP3    H162774   4.764   0.718  12.403 -0.7923  0.0097  0.8395
13761TIP3    H262775   4.670   0.835  12.387 -0.0240  0.3845 -1.1786
13762TIP3   OH262776   1.993   2.212  16.970  0.3484 -0.2290  0.5036
13762TIP3    H162777   1.920   2.273  16.985 -0.6755 -1.4450  0.6559
13762TIP3    H262778   2.022   2.230  16.881  0.8984  1.3180  0.9683
13763TIP3   OH262779   6.132   5.126   3.503 -0.1520 -0.2839  0.2423
13763TIP3    H162780   6.180   5.117   3.421 -0.0241 -0.6672  0.3589
13763TIP3    H262781   6.162   5.209   3.540 -0.4474  0.0492 -0.2547
13764TIP3   OH262782   1.369   0.058  11.900  0.1187  0.0296 -0.3991
13764TIP3    H162783   1.314  -0.011  11.863 -1.4027 -0.0625  1.8613
13764TIP3    H262784   1.447   0.059  11.844 -0.8288 -1.9359 -1.8628
13765TIP3   OH262785   1.210   2.326  11.626 -0.3261  0.4966 -0.2184
13765TIP3    H162786   1.204   2.285  11.713  0.3854  0.0090 -0.3879
13765TIP3    H262787   1.182   2.257  11.566  1.9422 -0.1640 -0.6034
13766TIP3   OH262788   4.174   2.601  13.853  0.2854 -0.1307 -0.3018
13766TIP3    H162789   4.151   2.652  13.931 -0.2132 -0.2583 -0.3570
13766TIP3    H262790   4.206   2.666  13.790 -1.6298  0.3308 -0.8618
13767TIP3   OH262791   3.095   3.877  13.297 -0.2575  0.1867 -0.2046
13767TIP3    H162792   3.043   3.827  13.234 -1.0077  0.2448  0.3472
13767TIP3    H262793   3.034   3.943  13.331 -0.6936 -1.4034  2.4317
13768TIP3   OH262794   3.946   2.916  11.648  0.1523 -0.2852 -0.3885
13768TIP3    H162795   3.911   3.005  11.646 -2.0205 -1.0481  0.7955
13768TIP3    H262796   3.952   2.894  11.741  0.0479 -1.6035 -0.6732
13769TIP3   OH262797   3.135   1.389   2.272  0.6816 -0.6186 -0.1355
13769TIP3    H162798   3.187   1.439   2.334  1.4469 -0.8869 -0.5526
13769TIP3    H262799   3.048   1.386   2.311  0.7945  0.4333  0.2273
13770TIP3   OH262800   2.480   5.145   1.921 -0.4638  0.0708  0.0247
13770TIP3    H162801   2.467   5.073   1.860  0.6248  0.2382 -0.4226
13770TIP3    H262802   2.406   5.204   1.906  0.0254  0.3353 -1.4582
13771TIP3   OH262803   5.520   6.262   4.587 -0.2020 -0.4928  0.0635
13771TIP3    H162804   5.436   6.267   4.632 -1.0205 -1.1029 -1.3210
13771TIP3    H262805   5.503   6.207   4.510  1.6911 -1.3726  0.2144
13772TIP3   OH262806   4.398   1.845   2.444  0.1188  0.0912  0.3825
13772TIP3    H162807   4.459   1.775   2.422 -1.0684 -1.0868  0.7234
13772TIP3    H262808   4.412   1.861   2.537  1.5343  1.5028 -0.0173
13773TIP3   OH262809   1.953   1.722   3.946  0.1816 -1.0332  0.1793
13773TIP3    H162810   1.945   1.635   3.906 -1.1680  0.0094 -2.0231
13773TIP3    H262811   2.047   1.740   3.944  0.5029 -2.4883  0.8186
13774TIP3   OH262812   1.754   1.477  12.259  0.1311  0.2810  0.4151
13774TIP3    H162813   1.709   1.506  12.180 -0.5389 -2.2352 -0.2274
13774TIP3    H262814   1.808   1.403  12.230  2.5312  1.4061  1.7184
13775TIP3   OH262815   0.533   4.016  12.117  0.1600  0.5151  0.2826
13775TIP3    H162816   0.552   3.963  12.194  0.1839  1.1792  0.7464
13775TIP3    H262817   0.452   3.979  12.082 -0.0488  0.4347  0.8417
13776TIP3   OH262818   1.665   4.725  14.101  0.1969  0.3917 -0.5598
13776TIP3    H162819   1.574   4.699  14.115  0.3311 -0.0245 -0.4433
13776TIP3    H262820   1.717   4.660  14.149  0.5922  0.0219 -1.4539
13777TIP3   OH262821   4.913   1.123   4.414  0.1861 -0.1439  0.1349
13777TIP3    H162822   4.839   1.113   4.355 -0.1770 -0.1285  0.5857
13777TIP3    H262823   4.988   1.139   4.356 -0.8254  4.3512 -0.2238
13778TIP3   OH262824   1.035   2.516  16.208 -0.0782 -0.3815  0.1880
13778TIP3    H162825   0.993   2.431  16.195 -0.3513 -0.1517 -0.4858
13778TIP3    H262826   1.119   2.495  16.249  0.1840 -1.0483 -0.6568
13779TIP3   OH262827   2.728   5.920  15.275  0.3048  0.2839  0.2262
13779TIP3    H162828   2.754   5.979  15.204  0.4779 -0.1855 -0.0990
13779TIP3    H262829   2.635   5.941  15.290  0.2705  0.3943 -0.1283
13780TIP3   OH262830   2.200   3.190   2.113 -0.1006  0.5462 -0.4109
13780TIP3    H162831   2.216   3.264   2.055 -0.3102  0.7087 -0.2664
13780TIP3    H262832   2.286   3.154   2.131 -0.0371  0.4719 -0.8512
13781TIP3   OH262833   3.085   2.094   5.122 -0.5288  0.6251  0.3747
13781TIP3    H162834   3.151   2.026   5.114 -1.3026 -0.0077 -1.0879
13781TIP3    H262835   3.106   2.140   5.203  0.8840 -0.4122  0.6165
13782TIP3   OH262836   5.498   1.298  14.881 -0.3265  0.1504  0.0496
13782TIP3    H162837   5.496   1.335  14.969 -0.7220  3.4027 -1.1903
13782TIP3    H262838   5.591   1.298  14.857 -0.3691  0.9401 -0.1400
13783TIP3   OH262839   0.292   3.437  11.924 -0.1476 -0.4705 -0.2291
13783TIP3    H162840   0.310   3.372  11.992 -1.1665 -0.4220  0.1086
13783TIP3    H262841   0.351   3.414  11.853  2.1963  0.5034  1.2957
13784TIP3   OH262842   2.941   3.819   1.850 -0.2385 -0.0612  0.2710
13784TIP3    H162843   2.989   3.883   1.797 -0.3967  0.7656  1.1006
13784TIP3    H262844   2.953   3.849   1.940 -0.0361 -1.3956  0.7139
13785TIP3   OH262845   5.760   0.835  16.469 -0.1000  0.0086  0.5984
13785TIP3    H162846   5.817   0.758  16.461 -2.9715 -2.1006 -3.4018
13785TIP3    H262847   5.672   0.798  16.481 -1.5538  2.6460 -1.0065
13786TIP3   OH262848   1.222   5.201   0.753 -0.2623 -0.0269  0.5191
13786TIP3    H162849   1.214   5.239   0.840 -2.3388  1.4930 -0.2259
13786TIP3    H262850   1.193   5.110   0.763 -0.1799  0.0433  1.4569
13787TIP3   OH262851   6.373   2.797   4.762  0.3259  0.0086 -0.1843
13787TIP3    H162852   6.401   2.833   4.846 -4.3256  2.4523  0.6628
13787TIP3    H262853   6.424   2.845   4.697  0.7824  1.4947  1.2102
13788TIP3   OH262854   5.068   2.114  13.201 -0.5450 -0.5323  0.1015
13788TIP3    H162855   5.128   2.162  13.259  0.2906 -0.3904 -0.8565
13788TIP3    H262856   5.051   2.032  13.247  1.2263 -1.0329 -0.0595
13789TIP3   OH262857   0.371   5.247  12.581 -0.1739 -0.0208  0.6258
13789TIP3    H162858   0.408   5.291  12.504 -0.9946  0.9976  0.8000
13789TIP3    H262859   0.441   5.252  12.646 -0.7718  2.4894  1.1815
13790TIP3   OH262860   6.008   6.104   0.235  0.3086  0.0066 -0.6129
13790TIP3    H162861   6.046   6.125   0.321 -0.0848 -1.2212 -0.1128
13790TIP3    H262862   6.034   6.013   0.220 -0.8764 -0.2638 -1.1074
13791TIP3   OH262863   4.982   2.316  14.092  0.0977  0.1907 -0.0069
13791TIP3    H162864   4.890   2.293  14.089  0.5758 -1.8262 -0.7591
13791TIP3    H262865   5.013   2.282  14.176  0.2303  0.5639  0.0967
13792TIP3   OH262866   5.893   1.126   5.605 -0.5213  0.3477  0.3659
13792TIP3    H162867   5.917   1.215   5.581 -0.5397  0.6146  1.3246
13792TIP3    H262868   5.870   1.130   5.698 -0.1770 -0.7121  0.5226
13793TIP3   OH262869   0.253   0.742  15.247  0.6526  0.7184  0.7546
13793TIP3    H162870   0.296   0.672  15.295  0.2002  0.1422  0.3264
13793TIP3    H262871   0.181   0.700  15.201 -0.9202  1.7875  2.1103
13794TIP3   OH262872   5.025   4.636  14.994  0.5331  0.6370  0.7979
13794TIP3    H162873   5.109   4.613  15.033  0.4626 -0.0409  0.5596
13794TIP3    H262874   5.011   4.727  15.020  1.2145  0.6746  1.0562
13795TIP3   OH262875   0.437   2.068   4.023 -0.2206  0.3060  0.4205
13795TIP3    H162876   0.480   2.080   3.938 -1.8510 -3.3350 -1.1046
13795TIP3    H262877   0.496   2.008   4.071 -0.1945  0.9180  1.1719
13796TIP3   OH262878   2.026   4.728  16.172 -0.0827  0.3782  0.0010
13796TIP3    H162879   1.937   4.702  16.194 -0.1735  1.3308  0.7670
13796TIP3    H262880   2.025   4.738  16.076 -0.7479  0.2307 -0.0109
13797TIP3   OH262881   3.074   5.296  14.177  0.1260 -0.2331  0.2812
13797TIP3    H162882   3.002   5.331  14.124  0.6577 -0.7680 -0.8047
13797TIP3    H262883   3.052   5.324  14.267  0.6594  3.1916 -0.4942
13798TIP3   OH262884   6.117   5.658  16.119  0.0078  0.2741  0.3950
13798TIP3    H162885   6.150   5.737  16.076  0.7381 -1.1344 -1.8271
13798TIP3    H262886   6.024   5.674  16.131 -0.2826  0.7317 -1.9344
13799TIP3   OH262887   0.285   5.729   5.280 -0.3616 -0.2554 -0.2461
13799TIP3    H162888   0.359   5.719   5.339 -1.1489 -1.5877  0.5629
13799TIP3    H262889   0.242   5.810   5.310  0.6704  0.4598 -0.6522
13800TIP3   OH262890   4.234   0.121  14.149 -0.9030  0.5435  0.3285
13800TIP3    H162891   4.196   0.074  14.223 -2.1410  1.6079  0.4106
13800TIP3    H262892   4.160   0.165  14.107 -0.3581 -0.6433 -2.0425
13801TIP3   OH262893   1.353   4.131  12.323 -0.7437 -0.5483  0.2690
13801TIP3    H162894   1.291   4.064  12.352 -2.2411  0.8848  0.4995
13801TIP3    H262895   1.341   4.135  12.228 -2.4870  1.0722  0.5075
13802TIP3   OH262896   2.320   4.225   0.165  0.1403 -0.3202  0.1277
13802TIP3    H162897   2.237   4.235   0.120  0.7705  0.6114 -0.8830
13802TIP3    H262898   2.330   4.131   0.179  0.4761 -0.7950 -2.8062
13803TIP3   OH262899   0.498   6.104   2.902  0.3956  0.0298  0.6958
13803TIP3    H162900   0.403   6.108   2.911  0.4706  1.0093  1.2497
13803TIP3    H262901   0.529   6.190   2.933  1.4254 -0.0943  0.0779
13804TIP3   OH262902   6.331   5.648  16.612 -0.3063 -0.3623 -0.0306
13804TIP3    H162903   6.322   5.732  16.568  0.0904 -0.7320 -0.8288
13804TIP3    H262904   6.279   5.587  16.560 -1.5258 -0.4075  1.1759
13805TIP3   OH262905   0.097   2.249   5.665 -0.4214  0.1493  0.3935
13805TIP3    H162906   0.026   2.188   5.650 -1.7654  1.9885 -1.2301
13805TIP3    H262907   0.122   2.280   5.577  1.8283  0.1920  0.9711
13806TIP3   OH262908   0.344   0.642  17.094  0.2239  0.1351  0.1963
13806TIP3    H162909   0.395   0.656  17.174 -0.1814  1.5078  0.2514
13806TIP3    H262910   0.269   0.701  17.104  0.0157  0.0978 -1.0569
13807TIP3   OH262911   1.854   1.880  15.716 -0.2075 -0.1991 -0.0974
13807TIP3    H162912   1.792   1.807  15.711  0.5865 -0.9629  0.7406
13807TIP3    H262913   1.867   1.894  15.809  0.1505  0.5926 -0.2585
13808TIP3   OH262914   5.920   5.802   5.629 -0.4006  0.2532  0.1075
13808TIP3    H162915   5.972   5.722   5.615  0.6136  1.1473 -1.6190
13808TIP3    H262916   5.955   5.864   5.565 -0.3451  2.4893  2.1862
13809TIP3   OH262917   4.312   0.058   3.989  0.1476  0.0154  0.3815
13809TIP3    H162918   4.264   0.095   4.063  0.3990  0.8182  0.1537
13809TIP3    H262919   4.245   0.035   3.925  0.1177  2.5595 -0.5839
13810TIP3   OH262920   3.723   3.278  12.403  0.5377 -0.6967  0.1225
13810TIP3    H162921   3.661   3.340  12.442  0.5129 -0.9489  0.4924
13810TIP3    H262922   3.803   3.329  12.391  0.0525 -0.1768 -1.0152
13811TIP3   OH262923   3.408   0.686  12.928  0.7287 -0.5940  0.0259
13811TIP3    H162924   3.410   0.618  12.995  3.7482  0.6513  1.3652
13811TIP3    H262925   3.334   0.741  12.952  0.4768 -1.3691  1.0841
13812TIP3   OH262926   1.058   0.775   4.836  0.1433 -0.1701  0.0729
13812TIP3    H162927   1.058   0.720   4.913  0.8963 -1.5916 -0.8973
13812TIP3    H262928   1.149   0.804   4.827 -0.2107  1.1185  0.4796
13813TIP3   OH262929   5.115   1.967   3.517 -0.3718 -0.0851  0.6910
13813TIP3    H162930   5.185   1.902   3.522 -2.0763 -2.0975 -0.4462
13813TIP3    H262931   5.075   1.953   3.431 -3.0788  0.0241  1.8572
13814TIP3   OH262932   0.898   2.667  14.426 -0.0043  0.1108  0.1137
13814TIP3    H162933   0.974   2.664  14.484  0.4707 -0.6924 -0.5314
13814TIP3    H262934   0.864   2.578  14.424 -1.8071  0.7228  1.4449
13815TIP3   OH262935   5.376   6.546  11.385  0.3229 -0.0847  0.4370
13815TIP3    H162936   5.300   6.559  11.442  0.3772 -1.0755  0.7708
13815TIP3    H262937   5.361   6.459  11.346  1.1483 -0.1706  0.3044
13816TIP3   OH262938   4.028   6.817  16.392 -0.1781  0.3541 -0.5635
13816TIP3    H162939   4.023   6.814  16.487  0.6933  1.3650 -0.4744
13816TIP3    H262940   4.047   6.909  16.371  0.0643  0.0678 -1.6842
13817TIP3   OH262941   4.676   2.540  11.265 -0.3879  0.4453 -0.0510
13817TIP3    H162942   4.769   2.563  11.257  0.3813 -1.8778  1.1961
13817TIP3    H262943   4.664   2.525  11.359 -2.3587  1.8001 -0.0380
13818TIP3   OH262944   3.565   3.935  14.169  0.0485 -1.0687 -0.4008
13818TIP3    H162945   3.598   3.966  14.085  0.4024  0.5411  0.2961
13818TIP3    H262946   3.482   3.981  14.181  1.1844  0.7168  1.2312
13819TIP3   OH262947   6.006   6.251  16.489  0.0473  0.0188  0.3618
13819TIP3    H162948   6.015   6.317  16.420  0.9717 -0.5632 -0.0899
13819TIP3    H262949   5.923   6.207  16.470  0.0840  0.1557 -0.1258
13820TIP3   OH262950   3.393   5.998   1.171  0.3217  0.1017 -0.0454
13820TIP3    H162951   3.343   5.918   1.183  1.4914 -0.7509 -0.6102
13820TIP3    H262952   3.476   5.981   1.217  0.8172  0.7354 -0.6865
13821TIP3   OH262953   6.688   5.134  11.049  0.0423  0.1612 -0.3872
13821TIP3    H162954   6.722   5.055  11.091 -0.0003  0.0834 -0.5011
13821TIP3    H262955   6.740   5.205  11.087  0.5447  0.0144 -0.7893
13822TIP3   OH262956   0.084   2.391  11.974  0.3608  0.0935  0.8851
13822TIP3    H162957   0.085   2.430  11.886  1.0639 -2.0713 -0.1478
13822TIP3    H262958  -0.008   2.389  11.998  0.2510  1.7504  0.7202
13823TIP3   OH262959   6.502   1.758   4.370 -0.1968 -0.0128 -0.6173
13823TIP3    H162960   6.443   1.783   4.440 -0.5001  0.8476 -1.1710
13823TIP3    H262961   6.589   1.782   4.402 -0.4335  1.3221 -0.9311
13824TIP3   OH262962   0.551   5.354  12.952 -0.5206  0.3744  0.3009
13824TIP3    H162963   0.634   5.314  12.978 -0.1903  0.0246 -1.2308
13824TIP3    H262964   0.498   5.281  12.921  0.3062  1.0265 -3.1012
13825TIP3   OH262965   2.237   6.645   4.911  0.1544 -0.6780 -0.4886
13825TIP3    H162966   2.270   6.647   5.001  2.0964  1.6658 -1.1354
13825TIP3    H262967   2.162   6.704   4.911 -0.5050 -1.5036 -0.2119
13826TIP3   OH262968   2.066   3.747   5.870 -0.0237  0.2279  0.3151
13826TIP3    H162969   2.057   3.656   5.840  0.2446  0.2026  0.3070
13826TIP3    H262970   2.022   3.749   5.955 -1.4627  0.4792 -0.4057
13827TIP3   OH262971   5.141   5.649   0.274  0.0675 -0.3837 -0.1496
13827TIP3    H162972   5.172   5.564   0.305  1.6311 -0.6078 -2.1729
13827TIP3    H262973   5.177   5.712   0.336 -2.4147 -1.1734  2.3338
13828TIP3   OH262974   0.293   3.867  14.837 -0.7075  0.3816  0.4113
13828TIP3    H162975   0.325   3.831  14.919 -2.6867  2.9359  2.4929
13828TIP3    H262976   0.371   3.896  14.790  0.4314 -0.5875  1.6534
13829TIP3   OH262977   0.148   6.329   3.041  0.2564  0.4635  0.1272
13829TIP3    H162978   0.130   6.382   3.118  1.3493  1.3529 -0.1936
13829TIP3    H262979   0.150   6.392   2.968  1.1512 -0.0654 -0.3300
13830TIP3   OH262980   3.175   3.132  15.009  0.2134 -0.9204 -0.0434
13830TIP3    H162981   3.241   3.067  14.984 -0.7941 -2.0453  0.1571
13830TIP3    H262982   3.212   3.215  14.981  0.6686 -1.7647 -2.0883
13831TIP3   OH262983   2.061   0.637   3.040 -0.1815 -0.4382  0.1150
13831TIP3    H162984   2.127   0.645   3.109 -0.2259 -0.1979  0.1279
13831TIP3    H262985   2.011   0.559   3.064 -0.4871 -0.0918  0.5977
13832TIP3   OH262986   5.692   1.819  15.087  0.3577  0.1500 -0.0363
13832TIP3    H162987   5.654   1.907  15.086 -0.5697 -0.2488 -0.6581
13832TIP3    H262988   5.709   1.799  14.995 -0.7739 -0.8858 -0.0349
13833TIP3   OH262989   5.340   0.449  11.202 -0.4407  0.0638 -0.8026
13833TIP3    H162990   5.261   0.448  11.148  0.7532 -2.6200 -2.7195
13833TIP3    H262991   5.411   0.433  11.140  1.4638  0.7379  1.0881
13834TIP3   OH262992   1.614   5.437   2.917 -0.0730 -0.4538  0.2723
13834TIP3    H162993   1.577   5.441   3.005 -2.3941  1.1344 -0.6660
13834TIP3    H262994   1.543   5.402   2.862  0.7812 -0.0216 -1.1762
13835TIP3   OH262995   0.873   2.689  11.842  0.0131 -0.1091  0.8345
13835TIP3    H162996   0.793   2.737  11.820 -0.4627 -0.2483  2.1802
13835TIP3    H262997   0.903   2.653  11.759 -2.7417 -2.2407  0.6188
13836TIP3   OH262998   3.294   3.625  13.053 -0.4377 -0.6313 -0.2203
13836TIP3    H162999   3.241   3.589  13.124 -1.4025  0.9697 -0.0967
13836TIP3    H263000   3.360   3.679  13.097 -1.1697  0.5384 -0.5230
13837TIP3   OH263001   2.210   1.674  13.212 -0.1339 -0.2647  0.0422
13837TIP3    H163002   2.208   1.766  13.241  1.9747 -0.7839  2.1024
13837TIP3    H263003   2.302   1.657  13.192 -0.4296 -2.0397  0.0414
13838TIP3   OH263004   1.033   1.382  14.705  0.5619 -0.8993  0.0989
13838TIP3    H163005   1.116   1.429  14.709  0.8917 -1.5721  2.3312
13838TIP3    H263006   0.972   1.435  14.757 -0.9609  0.4359 -2.7927
13839TIP3   OH263007   5.167   4.122   1.913  0.7800  0.3677  0.2044
13839TIP3    H163008   5.204   4.093   1.830  2.3982  0.3048  0.9084
13839TIP3    H263009   5.077   4.088   1.913  0.7468  0.3792 -1.4962
13840TIP3   OH263010   4.188   3.226  12.625  0.4637 -0.2570  0.1105
13840TIP3    H163011   4.238   3.205  12.546 -0.5786 -0.2099 -0.5829
13840TIP3    H263012   4.127   3.295  12.597  0.5694  0.2776  1.1441
13841TIP3   OH263013   3.848   4.898  14.045 -0.4558 -0.0593  0.3634
13841TIP3    H163014   3.834   4.908  14.139 -2.6558  0.5159  0.0343
13841TIP3    H263015   3.764   4.922  14.005  0.5385  0.1267 -1.7816
13842TIP3   OH263016   6.810   2.872  15.692 -0.1404  0.6200 -0.1749
13842TIP3    H163017   6.751   2.809  15.733  1.7299 -0.7510  0.5378
13842TIP3    H263018   6.797   2.953  15.741 -0.5634  0.0193  0.7286
13843TIP3   OH263019   0.008   3.294   2.903 -0.1471  0.1552 -0.1903
13843TIP3    H163020   0.082   3.289   2.965  1.0039  0.4156 -1.4992
13843TIP3    H263021   0.047   3.328   2.823 -1.5782 -0.3601 -1.1250
13844TIP3   OH263022   6.277   3.620   5.655 -0.2228 -0.6422 -0.3454
13844TIP3    H163023   6.195   3.578   5.629 -0.2425 -0.7008 -0.1859
13844TIP3    H263024   6.341   3.589   5.590 -0.2551 -0.8538 -0.2776
13845TIP3   OH263025   1.198   2.995   4.058 -0.3397 -0.3275 -0.0118
13845TIP3    H163026   1.136   2.926   4.033  1.5169 -1.9437 -0.4435
13845TIP3    H263027   1.216   2.978   4.150 -0.6972  0.2710  0.1688
13846TIP3   OH263028   3.076   6.292   2.377 -0.3815  0.3299  0.0232
13846TIP3    H163029   3.072   6.201   2.348 -1.0756  0.7822 -1.3989
13846TIP3    H263030   3.066   6.287   2.472  1.7634 -1.1992  0.2458
13847TIP3   OH263031   0.418   2.209  12.887 -0.0162  1.1710 -0.6311
13847TIP3    H163032   0.485   2.255  12.938  0.2374  1.4258 -1.1826
13847TIP3    H263033   0.466   2.141  12.840 -0.1785  1.2031 -0.8459
13848TIP3   OH263034   3.650   2.902  16.269 -0.6785  0.1029  0.2979
13848TIP3    H163035   3.707   2.881  16.343 -0.5349 -0.3120  0.0707
13848TIP3    H263036   3.663   2.996  16.256  0.3097 -0.0632 -0.0437
13849TIP3   OH263037   2.266   1.708  15.897  0.5636  0.2142  0.1772
13849TIP3    H163038   2.253   1.707  15.992  0.0666 -3.1372  0.2023
13849TIP3    H263039   2.181   1.684  15.860  1.3458 -0.9774 -0.9341
13850TIP3   OH263040   3.473   3.127   4.892  0.0291 -0.0656 -0.0664
13850TIP3    H163041   3.504   3.041   4.864  3.0676  1.2991 -1.4000
13850TIP3    H263042   3.383   3.113   4.919  1.3665 -4.3577  3.2569
13851TIP3   OH263043   6.549   0.710   2.369 -0.1803 -0.3580  0.0941
13851TIP3    H163044   6.468   0.717   2.318 -0.9065 -0.8948  1.1293
13851TIP3    H263045   6.571   0.617   2.366  1.6067  0.0497 -1.9223
13852TIP3   OH263046   0.870   4.986  15.203 -0.2041 -0.0410 -0.3633
13852TIP3    H163047   0.929   5.041  15.151  2.0448 -0.4247  1.6161
13852TIP3    H263048   0.919   4.906  15.219 -1.5931 -0.7357  0.6999
13853TIP3   OH263049   6.638   5.066  15.052  0.0400  0.0514  0.8116
13853TIP3    H163050   6.695   5.128  15.006 -0.9781  0.9632  0.7598
13853TIP3    H263051   6.553   5.076  15.011 -0.1790 -1.2912  0.9129
13854TIP3   OH263052   6.638   2.661  15.277  0.3946  0.2932  0.0117
13854TIP3    H163053   6.652   2.635  15.368 -1.2127 -1.9196 -0.3012
13854TIP3    H263054   6.549   2.697  15.276  0.8779  1.5397 -0.4905
13855TIP3   OH263055   1.121   3.111  11.349  0.5782 -0.0552 -0.5388
13855TIP3    H163056   1.094   3.203  11.347 -1.3450 -0.5711 -0.2262
13855TIP3    H263057   1.150   3.093  11.259  2.1602  1.1569 -0.3023
13856TIP3   OH263058   3.306   3.781  16.046  0.6427 -0.2764  0.3880
13856TIP3    H163059   3.352   3.731  15.978 -0.1416 -1.8983  0.9835
13856TIP3    H263060   3.219   3.796  16.009  0.6704  0.0829  0.4747
13857TIP3   OH263061   6.530   1.206  13.081 -0.4474  0.6940 -0.1832
13857TIP3    H163062   6.562   1.260  13.153  0.4889 -1.5261  1.1603
13857TIP3    H263063   6.501   1.269  13.015  1.8198  2.8350  0.7240
13858TIP3   OH263064   6.297   4.712  16.413  0.4509 -0.0375 -0.3253
13858TIP3    H163065   6.332   4.627  16.438  0.5389  0.4347  1.3280
13858TIP3    H263066   6.329   4.727  16.324  3.6155 -0.1177  0.6591
13859TIP3   OH263067   6.281   2.783   1.734 -0.0828 -0.4829  0.2097
13859TIP3    H163068   6.326   2.727   1.797 -0.1427  0.6838  1.3227
13859TIP3    H263069   6.188   2.760   1.742  0.1709 -2.4287 -1.6227
13860TIP3   OH263070   0.771   1.835   3.653 -0.1007  0.2641 -0.6837
13860TIP3    H163071   0.750   1.927   3.665  0.8694  0.8528 -2.9951
13860TIP3    H263072   0.689   1.796   3.621 -0.1740  0.6042 -0.9144
13861TIP3   OH263073   4.740   2.523  11.907  0.6297 -0.2773 -0.0036
13861TIP3    H163074   4.687   2.453  11.869  0.2679  1.0477 -2.1304
13861TIP3    H263075   4.679   2.595  11.921  1.0355 -0.2607  1.9232
13862TIP3   OH263076   4.476   5.775   4.406  0.4644  0.3800 -0.4836
13862TIP3    H163077   4.513   5.806   4.323  1.7528 -2.1398 -0.9705
13862TIP3    H263078   4.497   5.843   4.469  2.7539  0.7353 -1.5305
13863TIP3   OH263079   2.583   3.270   5.154  0.1993 -0.0041  0.1877
13863TIP3    H163080   2.548   3.348   5.112  0.6846  0.4940  0.6921
13863TIP3    H263081   2.665   3.252   5.107 -0.5604 -1.0107 -0.8147
13864TIP3   OH263082   1.586   1.942   1.832 -0.0726  0.0765 -0.3665
13864TIP3    H163083   1.565   1.859   1.789 -0.7769  0.1049 -0.0944
13864TIP3    H263084   1.551   1.932   1.921 -0.9800  0.9985 -0.6037
13865TIP3   OH263085   3.171   0.174   1.719 -0.4830  0.4896 -0.1675
13865TIP3    H163086   3.253   0.133   1.693  1.2496  2.2010  2.1882
13865TIP3    H263087   3.150   0.232   1.646  0.9901  0.7804 -0.3991
13866TIP3   OH263088   2.074   4.079   5.835 -0.4566  0.1397 -0.4175
13866TIP3    H163089   2.125   4.066   5.915 -2.4456 -0.2974  0.8612
13866TIP3    H263090   2.082   4.172   5.816  0.3518  0.1781  0.0676
13867TIP3   OH263091   5.396   3.977  16.323  0.0449 -0.0278 -0.4218
13867TIP3    H163092   5.376   3.995  16.231  0.8511  0.7861 -0.4431
13867TIP3    H263093   5.487   3.948  16.323  0.3300  0.8429  0.2245
13868TIP3   OH263094   4.956   3.768  12.939  0.6305 -0.3107 -0.1004
13868TIP3    H163095   4.939   3.729  12.853 -0.8324  0.4207 -0.1711
13868TIP3    H263096   4.924   3.704  13.001 -0.6054  0.2050 -0.1838
13869TIP3   OH263097   5.612   4.909  11.454  0.0486 -0.0860 -0.4906
13869TIP3    H163098   5.559   4.960  11.394 -0.7300  1.0995  1.1220
13869TIP3    H263099   5.581   4.935  11.541 -1.6862 -4.5566  0.5254
13870TIP3   OH263100   6.345   5.605   4.551 -0.2796  0.5631  0.0987
13870TIP3    H163101   6.325   5.671   4.616 -1.3786  0.6443 -0.3023
13870TIP3    H263102   6.311   5.523   4.587  2.0611 -0.0400  1.0990
13871TIP3   OH263103   1.119   4.678  11.351  0.3777 -0.1076  0.4350
13871TIP3    H163104   1.162   4.622  11.286 -2.0748 -0.7656 -0.7294
13871TIP3    H263105   1.057   4.731  11.301 -1.4632 -0.4893  2.1488
13872TIP3   OH263106   4.656   0.915  15.036 -0.0314  0.5047  0.2452
13872TIP3    H163107   4.575   0.942  15.079  1.0811  0.3970  2.5381
13872TIP3    H263108   4.713   0.991  15.043  0.3363  0.3249 -0.6861
13873TIP3   OH263109   3.246   3.038  10.323  0.3133 -0.0748 -0.3424
13873TIP3    H163110   3.176   3.003  10.380  0.5719  1.0765  0.7171
13873TIP3    H263111   3.273   3.119  10.365  1.4932  0.1020 -1.3857
13874TIP3   OH263112   0.402   5.135  12.896 -0.6849  0.2946  0.4764
13874TIP3    H163113   0.349   5.100  12.824 -0.6164  1.6079 -0.2423
13874TIP3    H263114   0.405   5.063  12.960 -1.4792 -0.5924 -0.4316
13875TIP3   OH263115   6.794   4.218  12.319  0.2952  0.5482  0.2077
13875TIP3    H163116   6.863   4.204  12.254 -0.1317  0.0856 -0.1581
13875TIP3    H263117   6.789   4.135  12.366  0.5158  0.8410  0.7510
13876TIP3   OH263118   0.322   0.156  13.509  0.3921  0.3806  0.4492
13876TIP3    H163119   0.388   0.193  13.568  0.1627  2.1263 -0.3271
13876TIP3    H263120   0.243   0.149  13.562  0.5830  0.5206  0.7557
13877TIP3   OH263121   2.640   1.213  12.739 -0.0251 -0.7100 -0.4129
13877TIP3    H163122   2.710   1.176  12.792 -0.6040  0.0481  0.9272
13877TIP3    H263123   2.600   1.138  12.695  1.1609 -1.2238 -0.6422
13878TIP3   OH263124   4.169   0.332  12.144  0.1247  0.0523 -0.1666
13878TIP3    H163125   4.170   0.270  12.218  1.9554  0.8566  0.5368
13878TIP3    H263126   4.115   0.405  12.175  0.9742  0.4356  0.4272
13879TIP3   OH263127   3.668   5.646  11.537 -0.4458 -0.2439 -0.1289
13879TIP3    H163128   3.757   5.613  11.534  0.0481  0.0936  4.0871
13879TIP3    H263129   3.615   5.570  11.560 -0.8587  0.0396 -0.1327
13880TIP3   OH263130   3.765   4.810  13.670  0.0820  0.6105  0.0838
13880TIP3    H163131   3.680   4.782  13.705  0.4346  1.0077  1.3185
13880TIP3    H263132   3.822   4.735  13.682  0.0301  0.5085 -0.3003
13881TIP3   OH263133   2.937   0.575  14.394 -0.0099  0.0556  0.4966
13881TIP3    H163134   3.021   0.531  14.387  0.2852  0.3437  1.9313
13881TIP3    H263135   2.876   0.517  14.350  0.4164 -1.7059  2.0812
13882TIP3   OH263136   4.640   6.077  11.786  0.4857  0.2922  0.0914
13882TIP3    H163137   4.595   6.003  11.745 -1.4458  0.1849  2.2065
13882TIP3    H263138   4.714   6.039  11.832  1.5823  0.1861 -1.6772
13883TIP3   OH263139   6.562   6.478   5.663 -0.0407 -0.5777  0.5512
13883TIP3    H163140   6.545   6.555   5.718  1.5720 -0.2774  0.6805
13883TIP3    H263141   6.567   6.405   5.724  1.0858 -0.3472  0.7553
13884TIP3   OH263142   2.296   3.105   0.595  0.2942 -0.3911  0.3434
13884TIP3    H163143   2.215   3.150   0.572  0.6347 -0.4736 -1.0953
13884TIP3    H263144   2.295   3.026   0.541  0.1483 -1.6901  2.1525
13885TIP3   OH263145   0.168   0.453  16.953 -0.6909 -0.1108 -0.6689
13885TIP3    H163146   0.217   0.534  16.936  0.1531 -0.2063  1.0854
13885TIP3    H263147   0.082   0.483  16.983 -0.1533  0.1925  0.6483
13886TIP3   OH263148   1.229   0.137   4.229  0.0262 -0.1987  0.2001
13886TIP3    H163149   1.225   0.088   4.311  3.1748 -0.6500  0.1815
13886TIP3    H263150   1.221   0.229   4.255  0.6726 -0.3558  0.9866
13887TIP3   OH263151   3.358   1.211  14.971  0.2147  0.5444 -0.1228
13887TIP3    H163152   3.396   1.173  14.892 -0.8826 -0.6249 -0.1147
13887TIP3    H263153   3.416   1.285  14.992  1.0094  0.3583 -1.5193
13888TIP3   OH263154   5.810   0.581   0.408 -0.4215 -0.4643  0.2771
13888TIP3    H163155   5.896   0.555   0.374 -0.2144  0.3707  0.1245
13888TIP3    H263156   5.754   0.582   0.331 -0.3665 -0.2303  0.2380
13889TIP3   OH263157   1.424   3.179  14.884  0.0185 -0.2188  0.1753
13889TIP3    H163158   1.331   3.170  14.902 -0.5986 -0.4657 -2.6672
13889TIP3    H263159   1.431   3.260  14.834  1.3079 -0.3209  0.1592
13890TIP3   OH263160   5.902   0.636   4.030 -0.4102  0.1246  0.2639
13890TIP3    H163161   5.929   0.595   3.948 -1.2862 -1.5739  0.7704
13890TIP3    H263162   5.976   0.623   4.089  0.0580  0.9803 -0.1276
13891TIP3   OH263163   2.882   6.123  11.916  0.6515 -0.5163  0.5319
13891TIP3    H163164   2.942   6.052  11.937  0.7292 -1.0096 -1.2005
13891TIP3    H263165   2.795   6.084  11.927  0.6915 -0.8004 -0.1080
13892TIP3   OH263166   6.087   1.958   5.384  0.4616 -0.1079  0.1871
13892TIP3    H163167   6.163   1.920   5.429  0.0442 -2.0460 -0.6731
13892TIP3    H263168   6.013   1.934   5.439  0.2877  0.3543  0.1563
13893TIP3   OH263169   6.311   0.739  14.348 -0.1804 -0.4249  0.0302
13893TIP3    H163170   6.387   0.687  14.376  1.2100  1.1614 -0.6323
13893TIP3    H263171   6.348   0.822  14.320 -2.3500  1.0832  1.3160
13894TIP3   OH263172   1.221   6.521  16.458 -0.5272 -0.7816  0.8784
13894TIP3    H163173   1.312   6.542  16.480 -0.8275  1.6510  0.1426
13894TIP3    H263174   1.200   6.581  16.386 -2.2832 -2.2913  0.0616
13895TIP3   OH263175   0.049   2.700   1.615 -0.6127 -0.6231 -0.2077
13895TIP3    H163176   0.059   2.756   1.692 -1.3234 -0.4706 -0.2199
13895TIP3    H263177  -0.019   2.743   1.562  1.1397  0.2927 -1.8516
13896TIP3   OH263178   0.786   2.698  14.732  0.0401  0.1190 -0.0573
13896TIP3    H163179   0.873   2.658  14.738 -0.0797 -0.1703 -0.1968
13896TIP3    H263180   0.798   2.776  14.679  0.6685  1.3898  1.8498
13897TIP3   OH263181   2.193   1.372   3.634 -0.4554  0.0864  1.0073
13897TIP3    H163182   2.166   1.463   3.629  0.1014  0.1927 -0.4679
13897TIP3    H263183   2.130   1.324   3.580  1.1930  0.1171 -1.0758
13898TIP3   OH263184   6.445   4.160  16.938 -0.2878  0.1437  0.7377
13898TIP3    H163185   6.402   4.115  17.010  0.9979 -1.7084  0.4087
13898TIP3    H263186   6.506   4.096  16.902 -1.4284  0.6991 -2.5131
13899TIP3   OH263187   4.943   0.025   3.803 -0.1048 -0.0914  0.2010
13899TIP3    H163188   5.038   0.032   3.812  0.0016  2.0628 -1.7194
13899TIP3    H263189   4.908   0.102   3.848 -0.5459  1.6496 -2.8443
13900TIP3   OH263190   3.104   1.187  12.852 -0.0503  0.8383  0.3140
13900TIP3    H163191   3.040   1.137  12.802 -0.9348  0.4992  1.7377
13900TIP3    H263192   3.187   1.142  12.836 -0.7694 -0.9252  1.3047
13901TIP3   OH263193   3.221   6.273  12.998 -0.6192  0.1698  0.6077
13901TIP3    H163194   3.227   6.367  12.984 -0.3962 -0.0105 -0.7079
13901TIP3    H263195   3.280   6.235  12.932 -1.6338 -0.9213  0.2826
13902TIP3   OH263196   1.246   4.583   2.755  0.6546  0.1912 -0.0286
13902TIP3    H163197   1.338   4.560   2.770  0.6463  0.4607  0.4796
13902TIP3    H263198   1.235   4.666   2.801  1.0121  1.8936 -2.8236
13903TIP3   OH263199   2.111   0.790  12.666 -0.3977 -0.5857 -0.4981
13903TIP3    H163200   2.158   0.856  12.717 -4.2627  1.2086  1.1375
13903TIP3    H263201   2.086   0.835  12.586 -1.5169 -0.5763 -0.1643
13904TIP3   OH263202   0.973   2.663  17.076  0.2843  0.7192  0.4464
13904TIP3    H163203   0.942   2.576  17.053 -1.9771  2.2920 -3.3065
13904TIP3    H263204   1.068   2.654  17.079  0.1800 -1.6376 -0.9322
13905TIP3   OH263205   4.642   5.393  12.679 -0.7494 -0.0592 -0.1793
13905TIP3    H163206   4.668   5.382  12.771  0.6467 -2.5585 -0.7734
13905TIP3    H263207   4.547   5.384  12.680 -0.8039  0.4002  1.0684
13906TIP3   OH263208   6.296   6.097   2.461  0.0971  0.2883  0.2430
13906TIP3    H163209   6.254   6.115   2.377 -0.8388 -0.5150  0.5257
13906TIP3    H263210   6.281   6.177   2.513  0.1574  0.5507 -0.1360
13907TIP3   OH263211   2.768   3.621   2.580 -0.0412 -0.6788  0.0431
13907TIP3    H163212   2.713   3.543   2.584  0.2625 -0.9481 -0.8742
13907TIP3    H263213   2.849   3.596   2.624 -0.2908 -0.5700  0.5807
13908TIP3   OH263214   0.452   0.442   4.683 -0.7049  0.6729 -0.5860
13908TIP3    H163215   0.504   0.520   4.667 -0.4530  0.5370 -0.4251
13908TIP3    H263216   0.370   0.458   4.636  0.1916  0.0848 -2.4369
13909TIP3   OH263217   0.375   2.293   1.538  0.2303 -0.5513  0.3455
13909TIP3    H163218   0.326   2.366   1.576 -0.5459 -1.3102  0.8252
13909TIP3    H263219   0.312   2.248   1.482  0.2675 -1.7361  1.2246
13910TIP3   OH263220   3.788   1.584  14.177  0.4810 -0.0038 -0.1767
13910TIP3    H163221   3.715   1.577  14.239  1.5223  1.5895  1.2945
13910TIP3    H263222   3.752   1.632  14.103 -0.1732  0.0586  0.1726
13911TIP3   OH263223   3.936   1.547   2.948  0.2228  0.0957  0.3971
13911TIP3    H163224   3.952   1.624   3.003 -0.0226 -0.3024  1.0368
13911TIP3    H263225   3.866   1.574   2.889  1.4982  1.0342 -0.7699
13912TIP3   OH263226   1.258   5.203  12.146  0.2956  0.0872 -0.4523
13912TIP3    H163227   1.284   5.195  12.238  0.7311  0.1796 -0.5668
13912TIP3    H263228   1.238   5.113  12.119 -0.4999  0.1368 -0.0806
13913TIP3   OH263229   6.794   5.318  16.681  0.3199 -0.0774  0.2184
13913TIP3    H163230   6.704   5.352  16.684  0.5650  0.5210  2.6673
13913TIP3    H263231   6.847   5.396  16.667  0.5396 -0.2541  0.0773
13914TIP3   OH263232   1.747   5.313  14.932 -0.0950 -0.7768 -0.2596
13914TIP3    H163233   1.681   5.264  14.884 -0.2558  0.4727 -1.3821
13914TIP3    H263234   1.698   5.379  14.981  0.2546 -0.4129 -0.3926
13915TIP3   OH263235   4.430   2.143   4.605  0.8568  0.0648  0.3882
13915TIP3    H163236   4.377   2.092   4.544 -1.1682  1.4681  0.8901
13915TIP3    H263237   4.469   2.212   4.550 -1.0634  1.4022  0.6099
13916TIP3   OH263238   3.849   5.433  12.730  0.1502 -0.6119  0.0044
13916TIP3    H163239   3.890   5.512  12.764 -0.6032 -0.1076 -0.2306
13916TIP3    H263240   3.765   5.429  12.775 -0.2022 -0.7773 -0.6626
13917TIP3   OH263241   2.014   3.546   5.030  0.6371  0.1432  0.2888
13917TIP3    H163242   1.960   3.526   4.954 -0.2690  0.6517  0.7862
13917TIP3    H263243   1.991   3.636   5.053 -0.8291 -0.7281  2.5419
13918TIP3   OH263244   4.777   0.748  10.994 -0.2261 -0.1580 -0.2371
13918TIP3    H163245   4.789   0.825  10.938  1.5976  0.5513  1.0238
13918TIP3    H263246   4.840   0.760  11.064 -0.6981 -2.2748  0.6191
13919TIP3   OH263247   3.549   5.774   1.883  0.2415 -0.1101 -0.4811
13919TIP3    H163248   3.571   5.704   1.945  1.8750 -0.1287 -1.0163
13919TIP3    H263249   3.585   5.853   1.923 -0.5348  0.2343 -0.4475
13920TIP3   OH263250   4.057   6.436  15.706 -0.4154  0.6674  0.1412
13920TIP3    H163251   4.080   6.360  15.654 -0.7366 -0.4066  1.5035
13920TIP3    H263252   4.082   6.511  15.652 -1.3448 -0.3521 -1.8105
13921TIP3   OH263253   3.754   2.384   2.235 -0.0241  0.1523 -0.2995
13921TIP3    H163254   3.724   2.440   2.163  0.1047  0.3856 -0.1743
13921TIP3    H263255   3.824   2.331   2.198  1.7573  1.9771  0.2402
13922TIP3   OH263256   1.970   1.909   2.427 -0.6257 -0.0250 -0.1249
13922TIP3    H163257   1.993   1.926   2.518 -0.7033 -0.5655 -0.0044
13922TIP3    H263258   2.033   1.960   2.377 -0.8774  0.6556  0.2333
13923TIP3   OH263259   0.172   1.435  11.919  0.3884 -0.6871  0.2521
13923TIP3    H163260   0.206   1.449  11.830  0.6722 -1.0310  0.3040
13923TIP3    H263261   0.244   1.392  11.965  0.3050 -0.3441  0.7028
13924TIP3   OH263262   5.826   0.506  15.262  0.0872  0.8434 -0.2793
13924TIP3    H163263   5.792   0.444  15.326 -1.7104  1.8116 -0.2106
13924TIP3    H263264   5.907   0.539  15.300  1.4554 -1.8604 -0.6113
13925TIP3   OH263265   3.122   4.638   1.928  0.7753 -0.1164  0.0394
13925TIP3    H163266   3.138   4.561   1.874  2.2990  0.8312 -0.9486
13925TIP3    H263267   3.148   4.712   1.873  2.8557  0.8980  2.1668
13926TIP3   OH263268   3.073   6.783  13.059 -0.0199  0.3713 -0.4894
13926TIP3    H163269   2.980   6.785  13.080 -0.3040 -1.4605 -1.4140
13926TIP3    H263270   3.116   6.790  13.144 -0.9808  1.1507 -0.0405
13927TIP3   OH263271   0.690   3.433   4.962  0.5028  0.2092  0.5381
13927TIP3    H163272   0.720   3.346   4.936 -1.4752 -0.6095  0.8232
13927TIP3    H263273   0.645   3.466   4.885  0.6069  0.6865  0.6793
13928TIP3   OH263274   0.256   2.629  13.511 -0.0299  0.3174  0.6165
13928TIP3    H163275   0.276   2.710  13.464  1.1700  1.0103  2.2243
13928TIP3    H263276   0.292   2.560  13.455  0.0536  0.9762 -0.1745
13929TIP3   OH263277   6.768   4.540  11.537 -0.1326 -0.3559 -0.0749
13929TIP3    H163278   6.845   4.493  11.503  0.9941  1.1583  0.2340
13929TIP3    H263279   6.761   4.617  11.480 -0.6203  0.1888  0.7029
13930TIP3   OH263280   3.411   4.138  11.488 -0.4633  0.1019 -0.4954
13930TIP3    H163281   3.479   4.189  11.531 -1.2351  0.8533 -0.1233
13930TIP3    H263282   3.443   4.048  11.489  0.1757  0.3288  0.3723
13931TIP3   OH263283   2.403   5.000  14.845  0.0450 -0.4372 -0.2964
13931TIP3    H163284   2.463   4.952  14.902  0.7779  0.7983  0.0203
13931TIP3    H263285   2.363   5.066  14.902  1.5791  1.5140 -1.3759
13932TIP3   OH263286   0.376   2.355   1.869 -0.1914  0.3214  0.7567
13932TIP3    H163287   0.355   2.396   1.786  1.6356 -1.0283 -0.4576
13932TIP3    H263288   0.301   2.373   1.925 -1.3522  1.4915 -1.0900
13933TIP3   OH263289   5.070   3.957  14.511 -0.0182  0.7647 -0.4690
13933TIP3    H163290   5.018   3.904  14.451  0.4299  0.5333 -0.6588
13933TIP3    H263291   5.131   3.895  14.550  1.9225  1.4643 -2.2292
13934TIP3   OH263292   6.728   6.158   0.980 -0.6914  0.4888  0.1136
13934TIP3    H163293   6.675   6.121   1.050 -0.3219  0.5578  0.4320
13934TIP3    H263294   6.746   6.084   0.922  0.6115 -0.0118  1.1019
13935TIP3   OH263295   6.599   6.036   1.186 -0.7880 -0.7078  0.2575
13935TIP3    H163296   6.528   6.017   1.125 -0.4411 -2.6425  0.3884
13935TIP3    H263297   6.560   6.094   1.251 -1.5153  0.3333 -1.0416
13936TIP3   OH263298   1.270   1.877   4.513  0.0012  0.3974  0.5110
13936TIP3    H163299   1.198   1.837   4.465 -0.3792 -1.4386  2.4317
13936TIP3    H263300   1.228   1.937   4.575  0.2995  0.9518  0.1861
13937TIP3   OH263301   4.711   5.450   5.996 -0.5641  0.1436  0.2998
13937TIP3    H163302   4.734   5.461   6.088  0.9058  2.3034 -0.2544
13937TIP3    H263303   4.650   5.375   5.995  0.3615 -0.7391  2.8301
13938TIP3   OH263304   4.933   5.736   2.651  0.3280  0.0219 -0.2235
13938TIP3    H163305   4.989   5.680   2.704 -0.1467  0.1369  0.4103
13938TIP3    H263306   4.962   5.825   2.671 -0.6294  0.1317  0.7721
13939TIP3   OH263307   6.427   1.020   3.265  0.2793 -0.5023  0.0967
13939TIP3    H163308   6.463   1.108   3.249 -0.3614 -0.4250 -0.9227
13939TIP3    H263309   6.503   0.969   3.294  1.0321 -0.0867 -1.0940
13940TIP3   OH263310   5.049   5.047   2.006  0.0512  0.0566 -0.0158
13940TIP3    H163311   5.006   4.986   2.065 -0.4378 -0.8193 -1.2375
13940TIP3    H263312   5.129   5.002   1.978  1.9372  1.6935  2.2877
13941TIP3   OH263313   6.300   0.339   2.908 -0.5397  0.3034 -0.6088
13941TIP3    H163314   6.248   0.267   2.872 -1.9170  0.4688  0.9197
13941TIP3    H263315   6.277   0.341   3.001 -0.7874  2.8891 -0.6436
13942TIP3   OH263316   1.196   5.789   4.470  0.5565  0.4462 -0.6936
13942TIP3    H163317   1.160   5.703   4.493 -0.1825 -0.0731 -3.3931
13942TIP3    H263318   1.154   5.849   4.531 -0.2464 -0.9131  0.1638
13943TIP3   OH263319   4.971   5.113   5.294  0.6038  0.2089 -0.2774
13943TIP3    H163320   5.000   5.172   5.224  2.1600 -1.6625 -1.3039
13943TIP3    H263321   4.937   5.036   5.248  0.2394 -0.4370  1.0310
13944TIP3   OH263322   2.746   4.927  10.856 -0.3057  0.0569  0.1782
13944TIP3    H163323   2.775   4.837  10.873  0.8353  0.3044 -0.3633
13944TIP3    H263324   2.765   4.974  10.937  0.3163  0.0976  0.0095
13945TIP3   OH263325   1.078   5.223   5.945 -0.2148  0.6919  0.2556
13945TIP3    H163326   1.083   5.193   5.854 -0.0413 -0.0909  0.5144
13945TIP3    H263327   1.054   5.145   5.994  0.4441  0.9397  0.9783
13946TIP3   OH263328   2.161   5.073   3.112 -0.0497 -0.3774 -0.5649
13946TIP3    H163329   2.187   4.999   3.056  1.1056 -0.5041  0.1109
13946TIP3    H263330   2.238   5.092   3.165 -0.8006  0.3897  0.3015
13947TIP3   OH263331   5.502   4.513   1.531 -0.0337  0.1879  0.2874
13947TIP3    H163332   5.591   4.549   1.527 -0.3934  1.2725  1.4217
13947TIP3    H263333   5.483   4.486   1.441  1.8976 -1.2538  0.2427
13948TIP3   OH263334   0.770   0.753  13.856  0.0149  0.4332  0.2086
13948TIP3    H163335   0.826   0.830  13.867  0.2364 -0.0427  3.0643
13948TIP3    H263336   0.793   0.696  13.929 -0.3567 -2.2728 -1.6157
13949TIP3   OH263337   3.142   6.475   6.168 -0.0621 -0.1359  0.1118
13949TIP3    H163338   3.176   6.563   6.181 -0.2517 -0.1532  0.7458
13949TIP3    H263339   3.047   6.486   6.168 -0.0956 -0.4019  0.6589
13950TIP3   OH263340   0.755   0.367   3.059  0.1514  0.4263 -0.1614
13950TIP3    H163341   0.734   0.336   3.147 -1.5286  1.5379 -0.1315
13950TIP3    H263342   0.682   0.336   3.005  0.2693  1.2513 -0.8091
13951TIP3   OH263343   0.229   5.765  11.386  0.4832 -0.1184 -0.8433
13951TIP3    H163344   0.256   5.844  11.432 -0.2645  0.8446 -2.0093
13951TIP3    H263345   0.134   5.762  11.396  0.6822 -2.5467  1.7485
13952TIP3   OH263346   3.244   1.995  13.672  0.2412 -0.0575  0.5675
13952TIP3    H163347   3.317   2.044  13.636  1.9497 -2.0517  1.1414
13952TIP3    H263348   3.207   2.054  13.739  0.5553  1.4243 -0.5057
13953TIP3   OH263349   1.739   3.836  16.084  0.3656 -0.0814  0.9165
13953TIP3    H163350   1.817   3.832  16.141 -1.0585 -0.7715  2.9315
13953TIP3    H263351   1.689   3.757  16.107 -1.0792  0.4859 -0.1404
13954TIP3   OH263352   2.814   6.476   1.416  0.5389 -0.2295  0.1213
13954TIP3    H163353   2.837   6.465   1.324 -0.1563  0.3674 -0.1315
13954TIP3    H263354   2.780   6.565   1.422 -0.6874 -0.7153  0.6840
13955TIP3   OH263355   6.559   5.843   4.762  0.1338 -0.6190  0.3464
13955TIP3    H163356   6.523   5.781   4.825 -0.8651 -0.5775 -0.1565
13955TIP3    H263357   6.483   5.872   4.711  0.9367 -0.8363 -1.0318
13956TIP3   OH263358   4.988   3.035   0.946 -0.3408  0.0401 -0.1080
13956TIP3    H163359   5.053   2.970   0.919 -1.0484 -0.0797 -1.5804
13956TIP3    H263360   4.962   3.008   1.034 -0.0315 -1.1868 -0.3807
13957TIP3   OH263361   3.453   6.149  15.981  0.5462  0.0068 -0.1258
13957TIP3    H163362   3.466   6.185  15.893 -1.9712 -0.0895 -0.6131
13957TIP3    H263363   3.359   6.154  15.995  0.7413 -1.2556  2.0438
13958TIP3   OH263364   4.796   0.661  16.666 -0.3594  0.1823  0.5202
13958TIP3    H163365   4.834   0.742  16.698  0.0067 -0.2282  1.1560
13958TIP3    H263366   4.826   0.653  16.576  1.2930 -0.2567  1.0782
13959TIP3   OH263367   0.567   6.361  12.215  0.6369 -0.1742 -0.5913
13959TIP3    H163368   0.542   6.349  12.307  0.1436  1.3135 -0.5081
13959TIP3    H263369   0.653   6.318  12.208  0.1893 -1.2707  0.2713
13960TIP3   OH263370   5.312   2.548   0.309  0.5888 -0.4312 -0.0310
13960TIP3    H163371   5.405   2.541   0.331  0.4986  1.6540  1.3733
13960TIP3    H263372   5.267   2.538   0.393 -0.3711 -0.3633 -0.5275
13961TIP3   OH263373   2.455   6.341   2.201 -0.3758  0.0450 -0.4000
13961TIP3    H163374   2.540   6.347   2.158 -0.2027 -0.9758 -0.2396
13961TIP3    H263375   2.411   6.423   2.180  1.5578  1.6686  1.4956
13962TIP3   OH263376   0.735   1.056  11.042  0.3503 -0.2720 -0.0278
13962TIP3    H163377   0.723   1.007  10.961  0.0554  0.1992 -0.2730
13962TIP3    H263378   0.813   1.017  11.082  0.4651 -0.5469 -0.5056
13963TIP3   OH263379   2.460   3.026  16.482 -0.2441  0.3143  0.4322
13963TIP3    H163380   2.387   3.058  16.430 -0.0163  0.3515  0.1320
13963TIP3    H263381   2.461   2.931  16.468 -0.2140  0.3182  0.4077
13964TIP3   OH263382   5.913   3.341   2.636  0.1138  0.5384 -0.0789
13964TIP3    H163383   5.868   3.314   2.716 -0.3836 -1.2725 -0.9241
13964TIP3    H263384   5.925   3.435   2.646  0.1960  0.3427  2.1795
13965TIP3   OH263385   4.270   4.391  11.859 -0.0308 -0.0067  0.4871
13965TIP3    H163386   4.354   4.360  11.824  0.3235  0.1215  1.1999
13965TIP3    H263387   4.294   4.443  11.936 -0.7695 -0.0055  0.7246
13966TIP3   OH263388   6.362   1.468  10.906 -0.7094  0.2544 -0.0212
13966TIP3    H163389   6.452   1.501  10.905 -0.2232 -0.9790  1.0412
13966TIP3    H263390   6.328   1.491  10.820  0.5953  0.8283 -0.4115
13967TIP3   OH263391   2.435   1.814  14.977  0.2009  0.4819 -0.1056
13967TIP3    H163392   2.378   1.743  15.007 -0.3671  0.1231 -1.9154
13967TIP3    H263393   2.383   1.893  14.987 -0.9176  0.1032 -2.2313
13968TIP3   OH263394   1.471   3.332   5.393  0.1195 -0.0019  0.0430
13968TIP3    H163395   1.456   3.291   5.308  0.0870  0.3750 -0.1307
13968TIP3    H263396   1.491   3.423   5.374  1.1113 -0.1368  0.3686
13969TIP3   OH263397   2.191   6.521   5.919  0.0002  0.1807 -0.4450
13969TIP3    H163398   2.104   6.561   5.932  0.8335  1.8626  0.2709
13969TIP3    H263399   2.210   6.476   6.001 -0.3881 -0.6074 -0.7803
13970TIP3   OH263400   6.213   4.171   5.253 -0.9744 -0.1067  0.1282
13970TIP3    H163401   6.305   4.200   5.253 -0.9114 -0.1554 -1.7136
13970TIP3    H263402   6.168   4.236   5.199 -1.9989 -0.2048  0.8453
13971TIP3   OH263403   2.129   3.466   2.123 -0.1578 -0.1604  0.0013
13971TIP3    H163404   2.216   3.482   2.161 -0.6296 -0.1974  1.1413
13971TIP3    H263405   2.143   3.467   2.029  0.7300  1.9681  0.1074
13972TIP3   OH263406   0.599   0.502  11.150 -0.0997  0.3944 -0.6525
13972TIP3    H163407   0.547   0.452  11.213 -0.3928  1.1758 -0.2650
13972TIP3    H263408   0.592   0.452  11.069 -1.2091  0.3246 -0.5307
13973TIP3   OH263409   1.495   2.756  11.200  0.2639 -0.5003 -0.1620
13973TIP3    H163410   1.405   2.734  11.222 -0.4693  0.8836 -1.5427
13973TIP3    H263411   1.494   2.769  11.105  1.6435  0.7250 -0.0574
13974TIP3   OH263412   6.758   5.751   1.059  0.6271  0.8175 -0.0200
13974TIP3    H163413   6.851   5.735   1.077  1.3619  2.4985 -1.9187
13974TIP3    H263414   6.718   5.755   1.145  2.6043  1.5414  0.9411
13975TIP3   OH263415   0.152   5.994  13.298 -0.2056  0.4814 -0.3050
13975TIP3    H163416   0.212   6.030  13.233  0.8151 -0.4585  0.0820
13975TIP3    H263417   0.199   5.920  13.335 -1.5873 -0.2294  0.0824
13976TIP3   OH263418   5.142   1.412  15.919 -0.3425 -0.0228 -0.2918
13976TIP3    H163419   5.080   1.343  15.944 -0.6212 -0.6204 -2.3895
13976TIP3    H263420   5.104   1.492  15.956 -1.1164 -0.6954  0.4378
13977TIP3   OH263421   5.176   3.307   2.755  0.8633  0.2837 -0.1158
13977TIP3    H163422   5.158   3.310   2.849  0.4166  2.7747 -0.1938
13977TIP3    H263423   5.260   3.262   2.748 -0.5475 -2.7683  1.1253
13978TIP3   OH263424   1.812   3.550   3.494  0.2369 -1.1530 -0.0421
13978TIP3    H163425   1.904   3.579   3.495 -0.4002  1.1914 -1.5519
13978TIP3    H263426   1.815   3.465   3.451  1.8619 -1.9081  1.4498
13979TIP3   OH263427   6.536   4.504   3.067  0.2901 -0.0650 -0.1806
13979TIP3    H163428   6.467   4.440   3.083  0.2282  0.3135  1.1598
13979TIP3    H263429   6.617   4.458   3.091  0.2614  0.2756  0.6099
13980TIP3   OH263430   2.982   4.147  14.029  0.7120  0.8687 -0.4764
13980TIP3    H163431   3.045   4.182  13.966 -0.0211  0.2675 -1.5852
13980TIP3    H263432   3.007   4.056  14.041  0.3504  0.7591 -0.5392
13981TIP3   OH263433   1.815   2.028   4.223 -0.0295 -0.1060 -0.5779
13981TIP3    H163434   1.785   2.063   4.307 -0.8494 -2.4612  0.1907
13981TIP3    H263435   1.901   1.992   4.240 -0.3596 -0.9390 -0.6422
13982TIP3   OH263436   0.251   1.164   4.151 -0.4926 -0.1685  0.1250
13982TIP3    H163437   0.326   1.209   4.114  0.3884 -1.5273  0.1931
13982TIP3    H263438   0.177   1.190   4.095  0.5571 -1.1251 -1.7942
13983TIP3   OH263439   4.695   1.011   3.618 -0.3857 -0.0845 -0.0036
13983TIP3    H163440   4.706   0.966   3.701 -1.7346 -0.2860  0.0846
13983TIP3    H263441   4.669   0.943   3.556 -2.1436  0.4910  0.0621
13984TIP3   OH263442   3.215   5.450  12.984  0.3957 -0.1674  0.1107
13984TIP3    H163443   3.266   5.516  12.939 -0.2833 -1.2658 -2.4458
13984TIP3    H263444   3.126   5.487  12.988  0.2222 -0.5050 -0.4688
13985TIP3   OH263445   6.763   5.056  15.921  0.0002 -0.1868 -0.2001
13985TIP3    H163446   6.816   5.127  15.887 -0.8120 -0.1329 -1.4355
13985TIP3    H263447   6.826   4.989  15.949  0.7355 -0.3102 -2.0342
13986TIP3   OH263448   0.008   4.932  11.149  0.6212 -0.1032  0.2898
13986TIP3    H163449   0.019   4.917  11.055 -0.4262  2.1037 -0.2607
13986TIP3    H263450   0.059   5.010  11.167 -1.3020  1.0867  0.9293
13987TIP3   OH263451   3.046   0.694   2.068  0.1766 -0.0278  0.5034
13987TIP3    H163452   3.076   0.784   2.078  1.5212 -0.2249 -1.1990
13987TIP3    H263453   2.956   0.702   2.037  0.5932  0.7734 -0.5554
13988TIP3   OH263454   6.140   6.403  12.929  0.1557 -0.5872  0.6386
13988TIP3    H163455   6.138   6.352  13.010  1.7552 -0.6547  0.6662
13988TIP3    H263456   6.112   6.341  12.861 -1.6540 -0.4016  1.1516
13989TIP3   OH263457   4.143   4.143  13.205 -0.0204 -0.4106  0.0214
13989TIP3    H163458   4.205   4.174  13.270 -0.1658 -3.7954  2.0174
13989TIP3    H263459   4.062   4.189  13.225  0.2872 -0.4213  1.4010
13990TIP3   OH263460   4.012   4.702   4.960 -0.1965  0.2226 -0.2704
13990TIP3    H163461   4.103   4.705   4.930 -0.3553 -1.4613 -1.0277
13990TIP3    H263462   4.016   4.657   5.045 -0.1549  1.7262  0.5542
13991TIP3   OH263463   2.883   1.963   3.332  0.3405  0.7692 -0.2319
13991TIP3    H163464   2.934   1.886   3.306  0.2015 -0.0847  1.8154
13991TIP3    H263465   2.811   1.966   3.268  0.5526 -0.5984 -0.5822
13992TIP3   OH263466   3.427   6.746   2.625 -0.0838  0.4426  0.1467
13992TIP3    H163467   3.344   6.768   2.584 -0.6687  0.4879  1.3256
13992TIP3    H263468   3.471   6.830   2.639 -0.0604  0.4582 -0.0248
13993TIP3   OH263469   6.378   6.127   3.325  0.3955 -0.2627  0.0297
13993TIP3    H163470   6.390   6.114   3.419 -0.9637  0.5058  0.3362
13993TIP3    H263471   6.323   6.053   3.298 -0.6661  0.4537  0.1947
13994TIP3   OH263472   0.475   0.426  12.940  0.1481 -0.2201  0.3308
13994TIP3    H163473   0.485   0.436  12.845  0.2259  0.8476  0.4416
13994TIP3    H263474   0.407   0.489  12.963 -0.6612 -1.2442  0.8449
13995TIP3   OH263475   5.391   3.880   0.737  0.1661 -0.3814  0.0404
13995TIP3    H163476   5.367   3.971   0.718 -0.1955 -0.4177  0.3188
13995TIP3    H263477   5.486   3.877   0.725  0.2647  0.1831  0.6275
13996TIP3   OH263478   2.246   4.875   6.128 -0.2997  0.0349 -0.6241
13996TIP3    H163479   2.197   4.831   6.198  1.4779 -1.5092 -0.2695
13996TIP3    H263480   2.293   4.804   6.084  1.0739  1.3687 -1.3809
13997TIP3   OH263481   6.259   6.601   2.730  0.7124  0.6728 -0.1944
13997TIP3    H163482   6.326   6.668   2.714  1.0787  0.7800  1.5604
13997TIP3    H263483   6.180   6.636   2.689  1.3978  1.1693 -1.1387
13998TIP3   OH263484   4.809   5.105  11.140 -0.0842 -0.3015  0.1468
13998TIP3    H163485   4.867   5.037  11.104  0.4094 -0.6588  1.5472
13998TIP3    H263486   4.843   5.120  11.229 -1.2835  0.5047  0.4814
13999TIP3   OH263487   3.704   3.593   1.621 -0.1133 -0.4597  0.1302
13999TIP3    H163488   3.768   3.660   1.599 -0.4355 -0.1862  0.0026
13999TIP3    H263489   3.702   3.592   1.717  0.9671 -1.3348  0.1553
14000TIP3   OH263490   4.377   6.803   3.573 -0.0015 -0.0197  0.8760
14000TIP3    H163491   4.443   6.769   3.634  2.2081  0.7653 -0.9003
14000TIP3    H263492   4.339   6.725   3.533  1.3317 -0.5128  0.5085
14001TIP3   OH263493   6.384   1.930   1.209 -0.0264  0.0209  0.2743
14001TIP3    H163494   6.459   1.906   1.154 -0.2336  0.8237 -0.3836
14001TIP3    H263495   6.411   1.907   1.297  1.0215  0.3208  0.0482
14002TIP3   OH263496   0.017   3.637   1.754 -0.0398 -0.3320 -0.9703
14002TIP3    H163497   0.078   3.567   1.729 -0.2723  0.1081 -2.9325
14002TIP3    H263498   0.024   3.701   1.684  0.4728  1.8766  0.9614
14003TIP3   OH263499   6.511   6.239  12.100 -0.1027  0.7256  0.0527
14003TIP3    H163500   6.447   6.168  12.091 -0.5651  1.1071  0.2874
14003TIP3    H263501   6.508   6.262  12.193  0.4785  0.6588  0.0933
14004TIP3   OH263502   3.067   4.509   0.846 -0.7473 -0.0311  0.2911
14004TIP3    H163503   3.065   4.497   0.940 -1.0401 -0.6453  0.2105
14004TIP3    H263504   3.004   4.579   0.829 -0.2690  0.4826  0.6027
14005TIP3   OH263505   6.686   5.128  13.616  0.4222 -0.2201  0.2430
14005TIP3    H163506   6.765   5.111  13.668  0.7329  1.3249  0.3254
14005TIP3    H263507   6.639   5.194  13.667  0.0101  0.2475 -0.7401
14006TIP3   OH263508   4.484   5.473  11.329  0.8049  0.2080 -0.4652
14006TIP3    H163509   4.572   5.438  11.320  0.6774  0.0247 -1.0560
14006TIP3    H263510   4.430   5.415  11.276  0.1172 -0.4619  0.9096
14007TIP3   OH263511   3.212   0.433   5.243  0.6135  0.3016 -0.9620
14007TIP3    H163512   3.290   0.448   5.297  0.5890  0.5498 -0.9956
14007TIP3    H263513   3.243   0.445   5.153  1.0010 -1.5534 -1.1111
14008TIP3   OH263514   4.784   0.224  15.232  0.3654  0.3035  0.0307
14008TIP3    H163515   4.870   0.265  15.236  0.3523  0.2595  0.9625
14008TIP3    H263516   4.790   0.164  15.157  0.6004  1.4774 -0.9185
14009TIP3   OH263517   1.560   5.805  14.806 -0.1970  0.4323  0.3175
14009TIP3    H163518   1.520   5.824  14.721  0.0655  0.4535  0.1999
14009TIP3    H263519   1.533   5.878  14.862 -1.3389 -0.1593  0.5824
14010TIP3   OH263520   5.184   2.675   0.103  0.0730 -0.0503 -0.5306
14010TIP3    H163521   5.168   2.599   0.047  1.8642 -1.0309  0.1987
14010TIP3    H263522   5.242   2.642   0.172  0.8071  1.9504 -0.1173
14011TIP3   OH263523   4.105   2.122   3.234 -0.3261  0.3048  0.0635
14011TIP3    H163524   4.098   2.209   3.194 -1.6868  0.1504 -0.0776
14011TIP3    H263525   4.190   2.089   3.205 -0.6794  0.7537 -1.5719
14012TIP3   OH263526   2.215   6.424  13.099  0.0576 -0.0385 -0.5056
14012TIP3    H163527   2.151   6.355  13.118 -0.2179  0.8699  2.3357
14012TIP3    H263528   2.183   6.500  13.148  2.7758  0.7212  0.2616
14013TIP3   OH263529   5.484   4.668  12.444  0.5341  0.1394 -0.2001
14013TIP3    H163530   5.578   4.651  12.458  1.2305  2.2366 -1.7821
14013TIP3    H263531   5.478   4.696  12.353 -1.4429  1.2647  0.2180
14014TIP3   OH263532   5.309   5.053   2.162  0.1364  0.4435 -0.0462
14014TIP3    H163533   5.370   4.988   2.196 -0.9629 -1.1473 -0.9576
14014TIP3    H263534   5.227   5.037   2.210 -0.1178  1.2549 -0.1838
14015TIP3   OH263535   5.817   5.435   5.054  0.3399  0.1257 -0.5259
14015TIP3    H163536   5.753   5.425   4.984 -0.2208  0.6468 -0.0962
14015TIP3    H263537   5.810   5.527   5.080  1.4572  0.2638 -0.6542
14016TIP3   OH263538   0.023   1.516  16.670  0.0340 -0.0584 -0.0146
14016TIP3    H163539   0.073   1.479  16.742  0.6432  2.0503  0.7115
14016TIP3    H263540  -0.067   1.519  16.702  0.2966  0.8337  0.6617
14017TIP3   OH263541   6.359   1.873   5.396 -0.0938  0.9014 -0.2560
14017TIP3    H163542   6.369   1.867   5.491 -1.5360 -2.8249 -0.1724
14017TIP3    H263543   6.448   1.882   5.363  0.6801 -0.0992  1.4177
14018TIP3   OH263544   3.425   1.701  15.276 -0.0245  0.2236  0.0499
14018TIP3    H163545   3.492   1.634  15.268  0.4945  0.7832 -0.4501
14018TIP3    H263546   3.358   1.663  15.333  0.4961 -0.5165  0.1712
14019TIP3   OH263547   5.062   5.390   3.432 -0.7040 -0.2479  0.1711
14019TIP3    H163548   5.100   5.346   3.508 -0.0015 -0.1156 -0.1006
14019TIP3    H263549   5.044   5.320   3.370  0.0398 -0.2090 -0.0995
14020TIP3   OH263550   2.143   3.558  12.763 -0.2271  0.4849 -0.1829
14020TIP3    H163551   2.202   3.502  12.712  0.9221  0.9953  0.5503
14020TIP3    H263552   2.059   3.510  12.763  0.3057 -0.4894 -0.8406
14021TIP3   OH263553   6.540   5.701   4.999  0.1949 -0.1270  0.2557
14021TIP3    H163554   6.477   5.747   5.054 -0.1889 -0.3066 -0.0305
14021TIP3    H263555   6.624   5.742   5.020 -0.1805  0.9217 -0.2208
14022TIP3   OH263556   4.138   3.377  13.923  0.2815  0.0641 -0.1862
14022TIP3    H163557   4.076   3.416  13.861 -0.8296  1.2461  1.5991
14022TIP3    H263558   4.187   3.313  13.870 -0.8834  0.7140 -2.1713
14023TIP3   OH263559   5.772   4.158   5.950 -0.3997  0.8963  0.4112
14023TIP3    H163560   5.809   4.181   6.035 -2.0170 -0.1422  1.4374
14023TIP3    H263561   5.807   4.070   5.932  0.1559  1.2246 -0.1388
14024TIP3   OH263562   3.276   6.140  14.994 -0.1865 -0.1524 -0.4710
14024TIP3    H163563   3.200   6.171  15.043 -1.0358 -0.0596 -1.8044
14024TIP3    H263564   3.256   6.049  14.971  0.2423 -0.2297 -0.5617
14025TIP3   OH263565   2.510   5.054  17.012 -0.0696  0.0271 -0.2612
14025TIP3    H163566   2.530   5.053  16.919  0.6125 -0.2414 -0.1176
14025TIP3    H263567   2.426   5.008  17.019 -1.1249  1.7397 -0.9420
14026TIP3   OH263568   4.500   2.956   3.597 -0.2599 -0.1158 -0.1976
14026TIP3    H163569   4.556   2.918   3.530  0.3029  1.6814 -0.8252
14026TIP3    H263570   4.425   2.991   3.548 -1.6274 -1.8399  0.5499
14027TIP3   OH263571   0.592   4.545  16.657  0.1812  0.0147  0.3857
14027TIP3    H163572   0.655   4.512  16.722 -0.7827  0.4691  1.5975
14027TIP3    H263573   0.594   4.480  16.587  1.2957 -0.4667  0.8283
14028TIP3   OH263574   4.171   4.346  12.550 -0.2622  0.3831 -0.0411
14028TIP3    H163575   4.224   4.309  12.621 -0.3493 -2.6039 -1.3522
14028TIP3    H263576   4.211   4.312  12.470 -1.9720  1.0819 -1.2701
14029TIP3   OH263577   5.604   2.531  13.913 -0.0577  0.1722  0.3176
14029TIP3    H163578   5.683   2.559  13.867  0.2334 -0.2310  0.5742
14029TIP3    H263579   5.534   2.540  13.847  0.6889 -2.5725 -0.9795
14030TIP3   OH263580   3.790   4.148  11.460 -0.3403 -0.0668 -0.3745
14030TIP3    H163581   3.807   4.189  11.375 -0.0917 -0.0498 -0.3190
14030TIP3    H263582   3.877   4.125  11.493 -0.4003  0.3650  0.0932
14031TIP3   OH263583   2.694   0.328  16.852  0.4093  0.4773 -0.6007
14031TIP3    H163584   2.672   0.384  16.778 -0.2366 -0.2560 -0.9835
14031TIP3    H263585   2.688   0.386  16.928 -2.8185  0.4348 -0.6823
14032TIP3   OH263586   1.696   0.663   0.761 -0.3336  0.3083  0.8702
14032TIP3    H163587   1.606   0.664   0.795 -0.6246 -1.7849  0.2993
14032TIP3    H263588   1.709   0.573   0.731  1.7595  0.7328  0.3720
14033TIP3   OH263589   0.568   2.052  12.741 -0.1942 -0.0806 -0.4952
14033TIP3    H163590   0.593   1.966  12.707  0.0430 -0.4488  0.5586
14033TIP3    H263591   0.651   2.100  12.748 -0.1329 -0.2727  0.2332
14034TIP3   OH263592   1.130   3.856   3.915 -0.5223 -0.4877 -0.0320
14034TIP3    H163593   1.177   3.925   3.960 -2.7109  1.2249 -0.2451
14034TIP3    H263594   1.181   3.841   3.835  0.3631  0.3501  0.3598
14035TIP3   OH263595   4.800   1.219  14.711  0.1455  0.3225  0.1752
14035TIP3    H163596   4.854   1.284  14.668  1.3279 -1.1772 -0.7262
14035TIP3    H263597   4.859   1.145  14.727 -1.1766 -0.6321  0.9395
14036TIP3   OH263598   6.608   2.933   4.045 -0.6740  0.2128  0.3635
14036TIP3    H163599   6.686   2.906   4.092  0.4978  1.8061 -0.5688
14036TIP3    H263600   6.563   2.993   4.105 -0.6841  0.0561  0.5149
14037TIP3   OH263601   6.743   4.891  15.704 -0.8094  0.5254  0.3359
14037TIP3    H163602   6.712   4.966  15.756 -0.5426  1.5434 -0.9207
14037TIP3    H263603   6.804   4.929  15.641 -0.8977 -0.7155 -0.5390
14038TIP3   OH263604   3.698   0.131   0.382 -0.2109  0.3157 -0.3766
14038TIP3    H163605   3.760   0.059   0.368 -0.7627  0.1686 -2.3995
14038TIP3    H263606   3.676   0.125   0.475  1.8337 -0.4013  0.1391
14039TIP3   OH263607   1.718   2.118  15.886 -0.1147  0.2019 -0.3849
14039TIP3    H163608   1.772   2.051  15.929  1.3987  1.9150  0.5077
14039TIP3    H263609   1.631   2.078  15.880  1.1125 -2.5563 -1.6194
14040TIP3   OH263610   4.104   6.559   2.211  0.0672 -0.3708 -0.0989
14040TIP3    H163611   4.165   6.488   2.189  1.2318  0.6228 -0.1257
14040TIP3    H263612   4.072   6.537   2.298  1.2395 -0.3799  0.3407
14041TIP3   OH263613   6.062   4.738  12.414  0.1346  0.2517 -0.4551
14041TIP3    H163614   6.048   4.816  12.467  1.5100  0.4462 -0.3341
14041TIP3    H263615   6.090   4.771  12.328 -0.1057 -0.0980 -0.6724
14042TIP3   OH263616   6.051   1.837  16.036  0.3326 -0.2416 -0.0488
14042TIP3    H163617   6.123   1.900  16.031 -1.1554  1.7210  1.4956
14042TIP3    H263618   6.094   1.752  16.033  2.6138  0.8313 -0.3232
14043TIP3   OH263619   5.328   6.742  10.241  0.0727  0.1354 -0.0440
14043TIP3    H163620   5.423   6.747  10.249  0.1927  0.8474 -1.4199
14043TIP3    H263621   5.295   6.811  10.299  0.4402  0.3129 -0.0425
14044TIP3   OH263622   5.171   1.635   1.202  0.2712 -0.1115  0.2392
14044TIP3    H163623   5.195   1.725   1.177 -0.9709  0.4476  0.9512
14044TIP3    H263624   5.250   1.600   1.242  0.8829  0.5555 -0.3630
14045TIP3   OH263625   4.951   5.855  15.247 -0.2900  0.2616 -0.1010
14045TIP3    H163626   5.021   5.824  15.304 -1.0423 -1.6578 -0.1523
14045TIP3    H263627   4.871   5.841  15.297 -0.6698  2.9257  0.1759
14046TIP3   OH263628   5.029   1.173  13.898 -0.2282 -0.5294  0.0361
14046TIP3    H163629   5.010   1.185  13.991 -0.3717 -0.4063 -0.0077
14046TIP3    H263630   5.119   1.140  13.895  0.2066  0.6082  0.1529
14047TIP3   OH263631   1.331   5.014  15.579 -0.2046 -0.4441  0.3194
14047TIP3    H163632   1.406   5.061  15.614  0.3448  0.0038 -1.3573
14047TIP3    H263633   1.315   4.943  15.641 -0.0864  1.0249  2.0913
14048TIP3   OH263634   1.612   4.907   6.354 -0.4682 -0.2164  0.1631
14048TIP3    H163635   1.538   4.906   6.294 -1.3011 -0.3372  1.1735
14048TIP3    H263636   1.574   4.920   6.441  0.7302  0.2365  0.6537
14049TIP3   OH263637   3.646   4.631   5.900  0.0362  0.2051  0.3194
14049TIP3    H163638   3.585   4.615   5.828 -0.0377 -1.1522  0.6536
14049TIP3    H263639   3.594   4.615   5.979  0.7652 -0.8120  0.6096
14050TIP3   OH263640   1.594   5.087  11.022  0.9849  0.3863 -0.2144
14050TIP3    H163641   1.538   5.070  10.946  1.1575  1.7547 -0.6702
14050TIP3    H263642   1.550   5.042  11.095  0.1576  0.1060 -0.8694
14051TIP3   OH263643   5.187   4.674  16.246 -0.2738  0.3149  0.2797
14051TIP3    H163644   5.267   4.665  16.194 -0.5264 -0.1862 -0.0338
14051TIP3    H263645   5.217   4.698  16.333  0.1817  0.7971 -0.0042
14052TIP3   OH263646   2.455   0.071   4.765  0.3207 -0.0761  0.2106
14052TIP3    H163647   2.530   0.131   4.765  0.5103 -0.3056 -0.5560
14052TIP3    H263648   2.449   0.041   4.855  0.8550  0.3171  0.3846
14053TIP3   OH263649   1.313   6.772  14.075 -0.2691  0.4124  0.1871
14053TIP3    H163650   1.220   6.780  14.096 -0.6531 -0.8483 -0.9043
14053TIP3    H263651   1.315   6.735  13.987  1.2753  0.7791  0.0386
14054TIP3   OH263652   2.585   0.153   1.846  0.5047  0.4044  0.7306
14054TIP3    H163653   2.517   0.116   1.902 -0.2758 -0.2962 -0.6237
14054TIP3    H263654   2.546   0.233   1.811  1.0133  0.8763  1.2391
14055TIP3   OH263655   2.782   2.284   6.308 -0.3652 -0.6161  0.4954
14055TIP3    H163656   2.835   2.331   6.372  0.7627 -0.3008 -0.6261
14055TIP3    H263657   2.828   2.201   6.295  1.6536  0.7756 -2.6162
14056TIP3   OH263658   5.783   2.004   3.251 -0.3507 -0.0302  0.2551
14056TIP3    H163659   5.848   2.072   3.234  0.6637 -0.8200  0.8372
14056TIP3    H263660   5.742   1.988   3.166 -0.1601  0.8605 -0.0109
14057TIP3   OH263661   4.290   1.071  12.839 -0.0447 -0.0840  0.0987
14057TIP3    H163662   4.366   1.099  12.788 -0.7614  0.3405 -0.7939
14057TIP3    H263663   4.224   1.138  12.821 -1.0395 -1.0980 -0.1702
14058TIP3   OH263664   4.915   3.786   5.279  0.1749 -0.5190  0.3897
14058TIP3    H163665   4.848   3.797   5.211 -2.0988 -0.7573  2.4776
14058TIP3    H263666   4.880   3.719   5.337  1.6173  0.2915  2.3107
14059TIP3   OH263667   4.737   6.010  10.644 -0.4050 -0.2290 -0.6088
14059TIP3    H163668   4.733   6.104  10.629  0.7613 -0.0485  0.0674
14059TIP3    H263669   4.680   5.995  10.719  0.6768  0.2171  0.3407
14060TIP3   OH263670   5.045   5.686  15.597 -0.2322 -0.5420 -0.2300
14060TIP3    H163671   4.956   5.652  15.593 -0.8836  1.1639 -0.7844
14060TIP3    H263672   5.069   5.703  15.506  0.6338 -0.8665 -0.0798
14061TIP3   OH263673   5.982   1.661   2.078  0.3395 -0.3505  0.1491
14061TIP3    H163674   5.977   1.612   1.996  0.0585  0.2983 -0.2282
14061TIP3    H263675   5.898   1.707   2.084  0.9593  0.8477  0.0019
14062TIP3   OH263676   3.948   4.083   4.647 -0.3049 -0.2983  0.0549
14062TIP3    H163677   3.992   4.003   4.617  0.3235  0.5498 -1.3798
14062TIP3    H263678   3.960   4.145   4.575 -1.7603  0.7392  0.6723
14063TIP3   OH263679   3.241   0.832  13.077  0.0686 -0.8854 -0.0320
14063TIP3    H163680   3.293   0.830  13.157 -2.6881 -1.4784  1.8845
14063TIP3    H263681   3.151   0.813  13.105 -0.8770 -2.2918 -3.4245
14064TIP3   OH263682   6.011   6.748   4.873 -0.1675  0.0617 -0.4119
14064TIP3    H163683   5.921   6.724   4.849 -0.3134 -0.7368  0.8172
14064TIP3    H263684   6.010   6.843   4.878 -0.9077  0.0671 -0.5748
14065TIP3   OH263685   1.161   1.467  11.081 -0.2214  0.0730  0.2084
14065TIP3    H163686   1.209   1.432  11.006 -1.1797 -1.7325  0.4041
14065TIP3    H263687   1.128   1.552  11.050  0.2610 -0.1718 -1.0569
14066TIP3   OH263688   2.591   5.825  12.761  0.2185 -0.2708 -0.0518
14066TIP3    H163689   2.508   5.800  12.801  0.3059  0.4961  0.6557
14066TIP3    H263690   2.566   5.868  12.679 -0.1582  0.6647  0.5266
14067TIP3   OH263691   3.684   2.952   0.367 -0.1482  0.4206  0.2608
14067TIP3    H163692   3.693   2.993   0.281 -0.7741  0.2432  0.1081
14067TIP3    H263693   3.667   3.025   0.427 -2.8837  0.2929 -0.2470
14068TIP3   OH263694   3.960   1.757  15.187  0.0686 -0.5542  0.2835
14068TIP3    H163695   4.029   1.741  15.122  0.9670 -1.0757  1.3312
14068TIP3    H263696   3.902   1.681  15.178  0.4636 -0.8770  0.4230
14069TIP3   OH263697   3.023   1.543   4.295  0.4489 -0.0401 -0.4600
14069TIP3    H163698   2.947   1.575   4.344 -0.7726 -1.5222 -1.2842
14069TIP3    H263699   3.029   1.601   4.219 -0.0841 -0.1190 -0.5667
14070TIP3   OH263700   1.222   0.324   0.780  0.2181  0.1780 -0.2532
14070TIP3    H163701   1.189   0.409   0.749  0.5376  0.6569  0.6853
14070TIP3    H263702   1.167   0.260   0.735 -3.2449  0.9541  2.4579
14071TIP3   OH263703   4.765   0.956  10.812  0.0480  0.5761  0.2818
14071TIP3    H163704   4.772   0.881  10.753 -3.2158  0.1879  0.2043
14071TIP3    H263705   4.739   1.029  10.756  1.5127  1.3934  0.6127
14072TIP3   OH263706   1.414   6.101   4.089  0.0168  0.4960  0.5458
14072TIP3    H163707   1.444   6.094   3.999 -1.4686  2.7216 -0.2152
14072TIP3    H263708   1.320   6.079   4.084 -0.0945  0.7247  1.5253
14073TIP3   OH263709   3.710   2.947   0.089 -0.2239  0.1590  0.0978
14073TIP3    H163710   3.625   2.906   0.072 -0.7655  0.9201  0.9246
14073TIP3    H263711   3.763   2.921   0.014 -0.7331 -1.5246  0.2609
14074TIP3   OH263712   4.859   0.176   5.432 -0.4356  0.2143 -0.4711
14074TIP3    H163713   4.939   0.142   5.473 -0.2546 -0.4289 -1.3198
14074TIP3    H263714   4.861   0.270   5.450  0.0110  0.0584  0.3437
14075TIP3   OH263715   2.840   5.249   5.695  0.6194  0.2067  0.6765
14075TIP3    H163716   2.888   5.329   5.716  0.5068  0.9945 -1.6998
14075TIP3    H263717   2.889   5.210   5.622 -0.5672 -0.6760  0.3163
14076TIP3   OH263718   6.109   2.167   2.659 -0.0160 -0.7963  0.2392
14076TIP3    H163719   6.117   2.232   2.729  1.2102 -0.4611 -0.1920
14076TIP3    H263720   6.181   2.106   2.676  0.6672 -0.3759 -1.0715
14077TIP3   OH263721   0.757   3.762  16.004  0.3144 -0.0976  0.2604
14077TIP3    H163722   0.686   3.700  15.986  0.2568 -0.3350  1.2646
14077TIP3    H263723   0.727   3.844  15.964  0.9104 -0.9516 -2.1284
14078TIP3   OH263724   2.523   2.584  17.159 -0.4606  0.4503 -0.4494
14078TIP3    H163725   2.595   2.551  17.213 -1.5311 -1.7628 -0.2355
14078TIP3    H263726   2.560   2.656  17.109  1.6248 -0.0215  0.3385
14079TIP3   OH263727   2.357   3.679  11.857  0.2063 -0.6786  0.4934
14079TIP3    H163728   2.359   3.605  11.797  0.6863 -0.5875  0.3922
14079TIP3    H263729   2.381   3.642  11.942 -2.4672 -1.2056  1.0937
14080TIP3   OH263730   6.460   6.141  14.339  0.2592 -0.0387  0.4394
14080TIP3    H163731   6.497   6.131  14.251  0.8813  1.0496  0.5652
14080TIP3    H263732   6.527   6.105  14.397 -0.2271 -0.9216  0.4793
14081TIP3   OH263733   4.919   3.456  14.387  0.0646 -0.3659 -0.6199
14081TIP3    H163734   4.937   3.379  14.440 -1.5934 -1.2779 -1.2769
14081TIP3    H263735   4.851   3.504  14.435 -0.6328 -0.6082 -1.3219
14082TIP3   OH263736   1.895   4.382   1.731  0.4382  0.0250  0.0695
14082TIP3    H163737   1.807   4.364   1.763  0.2557 -2.7245 -1.6422
14082TIP3    H263738   1.951   4.375   1.808 -0.5492 -1.0478  0.7109
14083TIP3   OH263739   4.941   3.507  10.717 -0.0579  0.0181 -0.5237
14083TIP3    H163740   5.006   3.504  10.646 -0.9753 -0.9695 -1.3445
14083TIP3    H263741   4.857   3.519  10.672 -0.5628  0.2209  0.4606
14084TIP3   OH263742   2.923   4.295   0.674  0.2994 -0.0575  0.0697
14084TIP3    H163743   3.001   4.319   0.623 -0.5462  2.7942 -0.0467
14084TIP3    H263744   2.930   4.348   0.754 -0.5547 -1.2649  0.9784
14085TIP3   OH263745   6.603   1.246  10.960 -0.5257 -0.2109  0.0983
14085TIP3    H163746   6.537   1.279  10.899 -0.3577 -0.8602 -0.4511
14085TIP3    H263747   6.631   1.162  10.922 -0.4770 -0.6709  1.1094
14086TIP3   OH263748   1.578   3.347  16.736  0.2762 -0.3533 -0.2306
14086TIP3    H163749   1.656   3.399  16.718 -0.6770  1.0831 -0.4246
14086TIP3    H263750   1.572   3.287  16.662 -1.1523  2.4928 -2.6688
14087TIP3   OH263751   4.329   1.648  15.417 -0.1418  0.7588  0.0453
14087TIP3    H163752   4.300   1.667  15.506  1.4640  0.1312  0.7433
14087TIP3    H263753   4.272   1.577  15.388 -0.3716  0.6495  0.7509
14088TIP3   OH263754   4.086   3.949  15.179 -0.1484  0.8211  0.2157
14088TIP3    H163755   4.098   3.933  15.273  1.4252 -1.9245 -0.3419
14088TIP3    H263756   4.169   3.989  15.151  0.5377 -0.9871 -0.4438
14089TIP3   OH263757   4.038   0.416  15.870  0.2837 -0.2020  0.0144
14089TIP3    H163758   4.052   0.452  15.782 -0.5536 -1.6177 -0.7271
14089TIP3    H263759   3.998   0.331  15.855 -1.0198  0.0357  1.8027
14090TIP3   OH263760   4.951   1.914   5.539 -0.5093 -0.4649 -0.3418
14090TIP3    H163761   5.045   1.906   5.556 -0.3003  0.8511 -0.7868
14090TIP3    H263762   4.912   1.929   5.625 -0.1144  0.5952 -0.3334
14091TIP3   OH263763   2.408   0.981  16.937 -0.0320 -0.1390 -0.0445
14091TIP3    H163764   2.356   0.906  16.910  1.4118 -0.7005 -1.3468
14091TIP3    H263765   2.464   1.001  16.863  2.3902 -0.2238  1.6397
14092TIP3   OH263766   5.999   2.615   0.158  0.2077 -0.5040 -0.5261
14092TIP3    H163767   6.074   2.556   0.160  0.0774 -0.6691 -0.5193
14092TIP3    H263768   6.033   2.698   0.192  0.5119 -0.4364 -0.9905
14093TIP3   OH263769   6.655   6.313  11.890 -0.1556 -0.2875  0.3969
14093TIP3    H163770   6.639   6.228  11.850  2.2465 -0.4908 -0.3184
14093TIP3    H263771   6.619   6.306  11.978 -2.6473 -0.9680 -0.6117
14094TIP3   OH263772   3.970   0.976   2.414 -0.4587 -0.6105 -0.0908
14094TIP3    H163773   3.993   1.038   2.344 -1.2812  0.7760  0.8239
14094TIP3    H263774   3.904   1.022   2.465 -1.7123 -2.5948  0.1582
14095TIP3   OH263775   0.144   3.156  15.073 -0.0861  0.0606 -0.2674
14095TIP3    H163776   0.175   3.246  15.067 -0.4611  0.1835 -0.3629
14095TIP3    H263777   0.141   3.125  14.982 -1.3384  0.4244 -0.3651
14096TIP3   OH263778   1.270   0.495  15.762 -0.3182  0.2021 -0.1824
14096TIP3    H163779   1.300   0.420  15.710 -0.1627  0.7297 -0.8608
14096TIP3    H263780   1.215   0.456  15.830  1.2674 -0.7138  0.6311
14097TIP3   OH263781   1.571   4.135   0.253  0.2145 -0.0475  0.4000
14097TIP3    H163782   1.513   4.198   0.295  0.5332  1.2534 -1.0418
14097TIP3    H263783   1.563   4.055   0.306  0.4374  1.4289  2.7862
14098TIP3   OH263784   4.051   2.066   2.855 -0.3386 -0.0142  0.6678
14098TIP3    H163785   4.115   2.016   2.906  1.4194  0.2914 -1.0994
14098TIP3    H263786   4.083   2.157   2.858 -2.2860  0.7048  2.0351
14099TIP3   OH263787   4.007   0.188   3.317  0.0152 -0.4317  0.0158
14099TIP3    H163788   3.966   0.271   3.344 -2.4215 -1.4161 -0.4333
14099TIP3    H263789   4.085   0.181   3.373  1.8293  3.3644 -1.6733
14100TIP3   OH263790   0.380   1.718  11.696 -0.0108 -0.3687  0.5128
14100TIP3    H163791   0.431   1.737  11.617  0.4340 -3.0171  0.0609
14100TIP3    H263792   0.324   1.644  11.671 -1.0644 -0.1966  2.2148
14101TIP3   OH263793   2.661   3.743   2.990  0.6651 -0.0749 -0.5314
14101TIP3    H163794   2.665   3.650   2.968  1.0726 -0.4812  1.1226
14101TIP3    H263795   2.688   3.747   3.082 -1.0710  1.4730 -0.0339
14102TIP3   OH263796   5.766   3.662   2.304  0.4953 -0.3585  0.0235
14102TIP3    H163797   5.680   3.689   2.335  1.7298  0.8918  2.5970
14102TIP3    H263798   5.794   3.733   2.247  0.0099 -0.5976 -0.5274
14103TIP3   OH263799   2.040   5.053   0.821  0.2737  0.1878  0.8652
14103TIP3    H163800   2.029   5.052   0.726 -0.8379  0.5433  0.9736
14103TIP3    H263801   2.115   4.997   0.837  0.4680  0.1163 -0.2257
14104TIP3   OH263802   0.372   2.192   4.336 -0.4174 -0.8857 -0.4855
14104TIP3    H163803   0.419   2.191   4.420 -0.0321  0.8247 -0.6466
14104TIP3    H263804   0.424   2.136   4.279  0.0193 -1.0467  0.0615
14105TIP3   OH263805   6.161   6.790   3.616 -0.1550  0.8988 -0.2438
14105TIP3    H163806   6.197   6.704   3.598 -1.4278  0.7201 -2.3697
14105TIP3    H263807   6.186   6.809   3.707 -1.3308 -2.4544  0.9315
14106TIP3   OH263808   2.742   5.003  12.832 -0.7983  0.1308 -0.2014
14106TIP3    H163809   2.803   5.055  12.884  0.5409 -0.0771 -1.5066
14106TIP3    H263810   2.700   4.944  12.895  0.6055  0.0452  0.6762
14107TIP3   OH263811   0.833   4.320   3.378 -0.0548 -0.2100  0.0013
14107TIP3    H163812   0.921   4.305   3.413 -0.6020 -0.7293  1.1892
14107TIP3    H263813   0.777   4.262   3.428 -0.9979 -0.3784 -1.2020
14108TIP3   OH263814   4.960   6.684   4.009  0.0625 -0.4192  0.2879
14108TIP3    H163815   4.887   6.622   4.006 -0.8042  0.5746  0.1405
14108TIP3    H263816   4.955   6.732   3.926  0.9143 -0.3696  0.2568
14109TIP3   OH263817   4.742   1.316   0.018 -0.9624  0.2525 -0.8403
14109TIP3    H163818   4.658   1.342  -0.020 -1.3220  0.4682  0.0958
14109TIP3    H263819   4.781   1.398   0.048 -0.1105  0.2405 -1.8375
14110TIP3   OH263820   6.132   1.199  16.070 -1.4688 -0.1107  0.0329
14110TIP3    H163821   6.135   1.236  15.981 -0.5627 -0.5715 -0.1414
14110TIP3    H263822   6.083   1.264  16.121 -0.3990  1.0786 -0.3880
14111TIP3   OH263823   2.442   2.169  13.938  0.3426 -0.3150 -0.3361
14111TIP3    H163824   2.438   2.249  13.990 -0.3472 -0.7921  0.3539
14111TIP3    H263825   2.420   2.198  13.849  0.5143  0.3256 -0.1786
14112TIP3   OH263826   4.193   6.612  12.970  0.3749  0.8301 -0.6002
14112TIP3    H163827   4.229   6.572  13.049  2.1697  2.5384 -0.4734
14112TIP3    H263828   4.243   6.572  12.898  1.7271  2.2909 -0.5169
14113TIP3   OH263829   4.253   2.383   0.613  0.1629 -0.0357  0.0676
14113TIP3    H163830   4.332   2.437   0.615  0.0994  0.0502  2.4086
14113TIP3    H263831   4.181   2.445   0.611  0.1149 -0.1043 -0.7896
14114TIP3   OH263832   0.109   0.188   1.606 -0.1470 -0.1281 -0.1995
14114TIP3    H163833   0.077   0.195   1.516 -1.2370  2.0477  0.2894
14114TIP3    H263834   0.174   0.258   1.613  1.0614 -1.2646  0.3022
14115TIP3   OH263835   0.000   3.518   5.018 -0.3195  0.1752  0.6464
14115TIP3    H163836  -0.033   3.566   5.094 -2.6297 -0.0289 -0.1589
14115TIP3    H263837   0.010   3.428   5.049  3.0580  0.8036  1.8713
14116TIP3   OH263838   1.112   3.965   6.579 -0.4800 -0.2913 -0.3711
14116TIP3    H163839   1.158   3.884   6.560 -0.6993 -0.1871 -1.4162
14116TIP3    H263840   1.022   3.950   6.550 -0.9901 -0.2901  1.1082
14117TIP3   OH263841   2.903   3.480   1.972 -0.2689 -0.7027  0.4599
14117TIP3    H163842   2.863   3.559   1.935  1.2774 -0.1214 -0.0403
14117TIP3    H263843   2.848   3.458   2.047  0.2292  1.8907  1.6988
14118TIP3   OH263844   6.008   4.277  16.198 -0.2842 -0.2830 -0.2522
14118TIP3    H163845   5.998   4.315  16.111 -1.1597 -1.4963 -0.6911
14118TIP3    H263846   6.006   4.353  16.257 -1.0513  0.4425 -1.1757
14119TIP3   OH263847   1.199   1.885   6.214 -0.0539  0.4250  0.6579
14119TIP3    H163848   1.213   1.844   6.128  0.6653  1.6216  0.1706
14119TIP3    H263849   1.118   1.935   6.204 -0.8652 -0.7467  1.2132
14120TIP3   OH263850   1.662   1.039   2.456  0.4701 -0.5064 -0.0299
14120TIP3    H163851   1.736   1.044   2.516  0.3784 -0.7717  0.1058
14120TIP3    H263852   1.687   0.970   2.394  0.5867 -0.2010 -0.3263
14121TIP3   OH263853   4.897   6.272  14.802  0.3436 -0.0414 -0.0521
14121TIP3    H163854   4.932   6.184  14.789 -1.2630 -0.4591 -1.8085
14121TIP3    H263855   4.950   6.308  14.874  2.7795 -1.4649 -1.0054
14122TIP3   OH263856   0.017   2.009   3.401  0.0849 -0.0222  0.1746
14122TIP3    H163857   0.014   1.919   3.433  0.9296 -0.1835 -0.1743
14122TIP3    H263858   0.109   2.024   3.378 -0.0647  0.8862  0.1055
14123TIP3   OH263859   4.312   3.326  12.880  0.0200 -0.0290  0.0055
14123TIP3    H163860   4.267   3.314  12.796  1.0075 -0.3832 -0.4858
14123TIP3    H263861   4.255   3.282  12.943 -0.8468  0.4275 -0.4309
14124TIP3   OH263862   1.219   4.533  11.689 -0.5505 -0.0342 -0.0763
14124TIP3    H163863   1.155   4.545  11.618 -1.8637  1.4279  1.2907
14124TIP3    H263864   1.291   4.486  11.647 -0.8918  1.4638 -2.6042
14125TIP3   OH263865   3.198   1.064   5.364 -0.0016 -0.2953 -0.3379
14125TIP3    H163866   3.254   1.065   5.287  0.9060 -0.1046  0.3071
14125TIP3    H263867   3.196   0.972   5.391  2.4619  0.0356  1.3380
14126TIP3   OH263868   4.678   5.788  11.837 -0.3076  0.0900  0.8429
14126TIP3    H163869   4.708   5.747  11.756 -1.7532  1.0370 -0.2187
14126TIP3    H263870   4.733   5.749  11.905  1.1108 -0.5452 -0.6017
14127TIP3   OH263871   1.343   4.902  16.196 -0.0909  0.3706 -0.1262
14127TIP3    H163872   1.274   4.853  16.153 -0.7324  0.5622  0.6580
14127TIP3    H263873   1.361   4.975  16.137  0.4887 -0.4775 -1.0361
14128TIP3   OH263874   4.291   4.402   2.208  0.1073 -0.1359 -0.1844
14128TIP3    H163875   4.303   4.383   2.301  1.7381 -3.1919 -0.8836
14128TIP3    H263876   4.196   4.411   2.197 -0.2382 -1.1807  1.5588
14129TIP3   OH263877   0.939   0.302   5.084 -0.1209 -0.3398  0.1084
14129TIP3    H163878   1.008   0.365   5.103 -1.5103  1.0054  0.8699
14129TIP3    H263879   0.959   0.270   4.996  1.1538  0.4310  0.0988
14130TIP3   OH263880   6.243   2.971  13.025 -0.2930 -0.9317 -0.0334
14130TIP3    H163881   6.257   2.948  12.933 -2.3653 -1.0029 -0.3849
14130TIP3    H263882   6.331   2.975  13.063  0.6938  0.4117 -2.3103
14131TIP3   OH263883   1.641   3.707   5.482  0.5130  0.0495  0.0206
14131TIP3    H163884   1.611   3.676   5.396  0.3403  0.5333 -0.0984
14131TIP3    H263885   1.699   3.638   5.513  0.7177 -0.0547 -0.5686
14132TIP3   OH263886   3.875   5.021   2.181  0.3602 -0.3853 -0.2807
14132TIP3    H163887   3.885   5.086   2.111  0.4731 -0.5075 -0.3776
14132TIP3    H263888   3.853   4.940   2.136  1.9122 -0.8288 -0.3094
14133TIP3   OH263889   4.818   0.728   5.382 -0.4704 -0.2285 -0.2837
14133TIP3    H163890   4.857   0.737   5.469  0.5715  2.2724 -0.9312
14133TIP3    H263891   4.809   0.818   5.350 -2.9435 -0.9376 -1.8760
14134TIP3   OH263892   0.165   3.614  15.865 -0.1597 -0.3378 -0.2411
14134TIP3    H163893   0.197   3.687  15.917  1.3353  0.8771 -2.6309
14134TIP3    H263894   0.079   3.642  15.834  0.2057  0.2523 -0.7611
14135TIP3   OH263895   0.135   2.839  12.717 -0.4007  0.0488 -0.0035
14135TIP3    H163896   0.129   2.911  12.779 -1.7696  0.4829 -0.5959
14135TIP3    H263897   0.196   2.870  12.650  1.5868 -0.6750  1.3941
14136TIP3   OH263898   6.650   0.046   1.157 -0.5311 -0.0792 -0.5330
14136TIP3    H163899   6.615   0.103   1.226 -1.2864  0.5600 -1.4055
14136TIP3    H263900   6.609   0.079   1.076  0.6572 -0.5262 -1.3471
14137TIP3   OH263901   5.868   0.147   2.737  0.6857 -0.5169 -0.3388
14137TIP3    H163902   5.777   0.171   2.720  0.8587  0.8203  0.4552
14137TIP3    H263903   5.919   0.216   2.694  1.1996  0.7732  2.1510
14138TIP3   OH263904   2.972   2.788  14.546 -0.2471  0.0646  0.2637
14138TIP3    H163905   2.883   2.754  14.539  0.0629 -0.5047 -1.3439
14138TIP3    H263906   2.983   2.808  14.639 -1.3747 -1.7450  0.8355
14139TIP3   OH263907   4.791   2.578   1.933  0.5297 -0.4524 -0.1255
14139TIP3    H163908   4.884   2.598   1.925  0.3819  1.7034  2.2061
14139TIP3    H263909   4.786   2.512   2.001  0.3482 -0.7176 -0.3937
14140TIP3   OH263910   5.621   3.935  11.777  0.4543 -0.4139  0.0027
14140TIP3    H163911   5.602   3.861  11.835  0.0177 -0.1372  0.2232
14140TIP3    H263912   5.639   4.008  11.836  0.2760 -0.1964 -0.2081
14141TIP3   OH263913   1.880   6.772   3.467  0.3738 -0.4454  0.4789
14141TIP3    H163914   1.877   6.770   3.371  0.5591 -0.6270  0.4773
14141TIP3    H263915   1.948   6.710   3.490 -0.1420 -0.9219  0.7562
14142TIP3   OH263916   2.317   2.168  12.641 -0.3552 -0.0152 -0.3086
14142TIP3    H163917   2.379   2.114  12.691  0.7555  1.8296  0.3878
14142TIP3    H263918   2.249   2.191  12.705 -1.1557 -1.0438 -0.7629
14143TIP3   OH263919   2.068   0.424  16.177  0.1245 -0.4883  0.5678
14143TIP3    H163920   2.067   0.333  16.149  1.4009 -0.1381 -0.7646
14143TIP3    H263921   2.000   0.467  16.124  0.9727 -0.2816 -0.3977
14144TIP3   OH263922   6.644   3.677   2.357 -0.3914 -0.1465 -0.0951
14144TIP3    H163923   6.582   3.750   2.349 -0.1987 -0.0887 -1.1448
14144TIP3    H263924   6.617   3.632   2.438 -0.4139  1.1660  0.6487
14145TIP3   OH263925   2.983   3.105   3.059 -0.0538  0.0846 -0.0780
14145TIP3    H163926   2.956   3.124   3.148 -0.2104 -2.4027  0.4712
14145TIP3    H263927   3.078   3.115   3.060 -0.1496  1.1159  0.0502
14146TIP3   OH263928   1.875   3.331   2.187 -0.8423 -0.0619  0.5591
14146TIP3    H163929   1.824   3.403   2.224 -1.1456 -0.1074  0.2333
14146TIP3    H263930   1.964   3.366   2.179 -0.7754 -0.0470  1.3139
14147TIP3   OH263931   6.532   4.775  12.891 -0.5439  0.0521  0.7982
14147TIP3    H163932   6.589   4.699  12.900 -0.0349  0.4880  1.3522
14147TIP3    H263933   6.449   4.748  12.932  0.2564  0.4233  2.7835
14148TIP3   OH263934   5.801   3.181  15.743 -0.3854  0.0422 -0.1775
14148TIP3    H163935   5.710   3.206  15.762 -0.6685 -1.6878  0.9945
14148TIP3    H263936   5.794   3.091  15.712  0.9443 -0.1977  0.1879
14149TIP3   OH263937   3.351   0.439  12.301  0.0067  0.1972 -0.6812
14149TIP3    H163938   3.310   0.368  12.351  1.9453 -1.0763 -0.7540
14149TIP3    H263939   3.407   0.484  12.365  2.2392 -1.2297 -1.5065
14150TIP3   OH263940   6.546   5.062   4.448  0.8493  0.0881 -0.0818
14150TIP3    H163941   6.473   5.121   4.468  1.1946  1.4636 -2.4671
14150TIP3    H263942   6.503   4.981   4.419  0.3668 -0.6141  2.4065
14151TIP3   OH263943   4.170   0.160   3.527 -0.0986  0.4930 -0.3330
14151TIP3    H163944   4.240   0.103   3.557 -1.2802 -0.3518  1.0044
14151TIP3    H263945   4.156   0.221   3.600 -1.9323 -0.5281  0.2288
14152TIP3   OH263946   0.910   2.130   0.884  0.3217 -0.3791  0.4577
14152TIP3    H163947   0.992   2.110   0.930  0.7754  0.7890  0.1893
14152TIP3    H263948   0.869   2.198   0.937  1.6581  2.2313 -1.6245
14153TIP3   OH263949   5.931   2.138  11.295  0.2671 -0.7185  0.1798
14153TIP3    H163950   5.933   2.076  11.223  0.1628 -0.2097 -0.2674
14153TIP3    H263951   5.879   2.212  11.262  1.2876  0.0723  0.3145
14154TIP3   OH263952   0.082   6.305  16.933  0.4184 -0.0822  0.3471
14154TIP3    H163953   0.140   6.348  16.870 -0.1399  0.2978  0.0861
14154TIP3    H263954   0.111   6.213  16.934 -1.3689 -0.7925 -2.6230
14155TIP3   OH263955   6.158   0.319   5.409 -0.3757  0.1147  0.3965
14155TIP3    H163956   6.170   0.251   5.475  0.3042  0.7787  0.9829
14155TIP3    H263957   6.076   0.363   5.434  0.7861  1.5544  1.9487
14156TIP3   OH263958   5.327   5.016  14.250  0.3926 -0.7755 -0.8045
14156TIP3    H163959   5.313   5.078  14.179  0.0941 -1.9701 -1.8194
14156TIP3    H263960   5.246   5.019  14.301  0.7826  0.4197 -0.2104
14157TIP3   OH263961   3.250   2.925  16.681 -0.4369 -0.3753 -0.4723
14157TIP3    H163962   3.286   2.851  16.632 -1.5655 -1.8455  0.8192
14157TIP3    H263963   3.260   3.000  16.623  2.4180 -1.1489 -1.1320
14158TIP3   OH263964   5.636   1.261   3.297  0.3845  0.0481  0.0243
14158TIP3    H163965   5.724   1.227   3.316 -0.3938 -0.7622  2.5296
14158TIP3    H263966   5.619   1.232   3.207  1.9481 -1.4485  0.1465
14159TIP3   OH263967   6.553   4.067  12.500 -0.0195 -0.2354 -0.0072
14159TIP3    H163968   6.477   4.012  12.479 -0.1546 -0.2438  0.4923
14159TIP3    H263969   6.531   4.153  12.465 -0.0144 -0.3762 -0.3640
14160TIP3   OH263970   0.103   4.505   1.170 -0.0138  0.2411  0.3568
14160TIP3    H163971   0.041   4.547   1.229 -1.1866 -0.2037 -0.5327
14160TIP3    H263972   0.111   4.565   1.096  0.1331  0.0051  0.1784
14161TIP3   OH263973   0.057   4.298  11.158 -0.1405 -0.4867 -0.8248
14161TIP3    H163974   0.098   4.376  11.197 -0.4582 -1.5992  1.9655
14161TIP3    H263975  -0.032   4.325  11.138 -0.0914  0.0159 -0.3932
14162TIP3   OH263976   5.840   0.498  15.614 -0.0744  0.0637  0.5021
14162TIP3    H163977   5.748   0.504  15.640 -0.2946 -0.0570 -0.2113
14162TIP3    H263978   5.858   0.404  15.609 -0.4466  0.0398 -1.0901
14163TIP3   OH263979   5.179   2.301   6.233  0.2688  0.2549  0.3831
14163TIP3    H163980   5.172   2.255   6.149 -0.6563 -0.1839  0.6805
14163TIP3    H263981   5.101   2.272   6.282  0.4959  0.9484  1.1689
14164TIP3   OH263982   0.209   5.019   0.157 -0.5642  0.9029 -0.1291
14164TIP3    H163983   0.296   5.051   0.134  0.2662  0.5104  2.2507
14164TIP3    H263984   0.155   5.098   0.160  0.2320  1.4382  0.5053
14165TIP3   OH263985   2.571   1.407  13.305  0.0025 -0.1689  0.1450
14165TIP3    H163986   2.663   1.423  13.288  0.0466  0.0141  0.5431
14165TIP3    H263987   2.570   1.330  13.361 -0.1888 -1.3839 -1.4505
14166TIP3   OH263988   0.707   2.761   5.430  0.4848  0.2831  0.0344
14166TIP3    H163989   0.627   2.710   5.442  1.7303 -1.7699  0.0837
14166TIP3    H263990   0.689   2.815   5.353 -1.4041  0.8662  0.8366
14167TIP3   OH263991   5.807   1.156   5.853  0.1767  0.3242 -0.0136
14167TIP3    H163992   5.845   1.117   5.932  2.8854  3.9927  0.7385
14167TIP3    H263993   5.749   1.225   5.886 -0.7123  0.2139 -1.2808
14168TIP3   OH263994   1.089   6.100  12.287  0.2637 -0.3397  0.4299
14168TIP3    H163995   1.042   6.064  12.363  0.2633 -1.6235 -0.1398
14168TIP3    H263996   1.181   6.094  12.311  0.4783 -3.4127 -0.6551
14169TIP3   OH263997   1.652   1.875   5.990  0.2258  1.1456  0.2803
14169TIP3    H163998   1.610   1.845   6.070  1.7394 -0.4222  0.5568
14169TIP3    H263999   1.580   1.901   5.933 -1.1836 -1.5041  0.6707
14170TIP3   OH264000   2.405   6.480  12.222 -0.4015 -0.0710 -0.0016
14170TIP3    H164001   2.364   6.444  12.143  0.6039 -1.6359  0.1383
14170TIP3    H264002   2.495   6.446  12.220 -0.0444  0.7197  1.2820
14171TIP3   OH264003   3.542   1.781  14.496  0.2536  0.4627 -1.1373
14171TIP3    H164004   3.514   1.869  14.472  1.3340  0.5535 -2.1394
14171TIP3    H264005   3.585   1.792  14.581 -1.7838  0.4606 -0.0192
14172TIP3   OH264006   0.058   3.930  16.890  0.2825 -0.2878  0.7507
14172TIP3    H164007   0.106   3.968  16.816 -1.9087 -2.4219 -2.0201
14172TIP3    H264008   0.086   3.838  16.891 -1.3164 -0.8014  1.1293
14173TIP3   OH264009   6.650   4.920   1.459  0.6178  0.1670 -0.6025
14173TIP3    H164010   6.698   4.901   1.539  0.5129 -0.1485 -0.6144
14173TIP3    H264011   6.684   5.005   1.431 -0.2621  0.9052  0.4755
14174TIP3   OH264012   2.526   3.930  12.003 -0.1241 -0.0188 -0.5530
14174TIP3    H164013   2.454   3.957  12.060  0.2302  0.2665 -0.2345
14174TIP3    H264014   2.605   3.946  12.055  0.2499  0.8923 -1.3695
14175TIP3   OH264015   4.241   4.016   3.279  0.0838  0.6409 -0.5986
14175TIP3    H164016   4.170   4.078   3.293 -1.2779 -0.3921 -2.5322
14175TIP3    H264017   4.220   3.973   3.197  1.8789 -1.1888 -0.1840
14176TIP3   OH264018   4.055   1.110   2.181 -0.0164 -0.5007 -0.6931
14176TIP3    H164019   3.986   1.083   2.120 -1.1833 -0.0003  0.3704
14176TIP3    H264020   4.110   1.169   2.130 -1.2673  0.3206 -1.1355
14177TIP3   OH264021   1.056   2.960  12.468 -0.5004  0.1104 -0.1661
14177TIP3    H164022   1.137   2.993  12.506 -1.5418 -0.4818  2.8478
14177TIP3    H264023   1.084   2.907  12.394  1.6880  1.5750 -0.4745
14178TIP3   OH264024   3.827   2.260  11.957  0.1085  0.5011  0.2409
14178TIP3    H164025   3.856   2.171  11.975  0.0946  0.1463 -1.2884
14178TIP3    H264026   3.855   2.311  12.033  1.3709 -0.5382  0.5072
14179TIP3   OH264027   2.200   6.434  11.756  0.2431 -0.1320 -0.2286
14179TIP3    H164028   2.120   6.385  11.736  0.0285 -0.2574  0.9130
14179TIP3    H264029   2.192   6.515  11.704 -1.2366  0.4435  0.8271
14180TIP3   OH264030   1.549   0.886  10.733  0.1608 -0.2093  0.4854
14180TIP3    H164031   1.617   0.953  10.721  1.4286 -1.0080  2.5339
14180TIP3    H264032   1.490   0.898  10.659 -0.9119  4.5539  1.7313
14181TIP3   OH264033   1.919   0.754  15.239 -0.0308  0.7451 -0.1516
14181TIP3    H164034   1.981   0.797  15.297  1.0243  1.1375 -1.5298
14181TIP3    H264035   1.969   0.733  15.160 -0.8360 -1.8139 -0.0789
14182TIP3   OH264036   1.681   4.647   4.446  0.1535  0.5162  0.3571
14182TIP3    H164037   1.743   4.595   4.497 -0.9119 -1.2840 -0.1149
14182TIP3    H264038   1.604   4.591   4.437 -0.1545  1.2294 -2.2230
14183TIP3   OH264039   2.110   3.887  11.893 -0.0076  0.1889  0.2072
14183TIP3    H164040   2.037   3.836  11.857 -0.3704  0.9291 -0.1390
14183TIP3    H264041   2.067   3.957  11.943  0.4158  1.4307 -1.0987
14184TIP3   OH264042   1.492   2.021  13.127  0.1194 -0.2112  0.4133
14184TIP3    H164043   1.489   1.930  13.098 -1.1070  0.5477 -2.1453
14184TIP3    H264044   1.419   2.030  13.188 -1.2602 -0.4737 -1.1162
14185TIP3   OH264045   6.634   1.027  14.912 -0.1117  0.0689  0.6151
14185TIP3    H164046   6.599   1.115  14.897  0.6680  0.2494 -0.2479
14185TIP3    H264047   6.689   1.036  14.989 -0.8171  0.1069  1.1226
14186TIP3   OH264048   1.005   4.660   1.471 -0.0272  0.0346  0.1450
14186TIP3    H164049   0.917   4.651   1.507  1.4723  0.5578  4.5023
14186TIP3    H264050   1.020   4.579   1.422 -2.7438 -0.2056 -0.4243
14187TIP3   OH264051   1.757   2.725   4.394  0.3857 -0.3144  0.1894
14187TIP3    H164052   1.810   2.732   4.315 -0.0349 -1.1508 -0.1779
14187TIP3    H264053   1.812   2.678   4.457  0.0950 -1.1918 -0.1947
14188TIP3   OH264054   4.851   3.388  16.653 -0.2579  0.7014  0.1039
14188TIP3    H164055   4.817   3.445  16.583  1.7605 -1.1855 -2.6523
14188TIP3    H264056   4.923   3.439  16.691  0.4436  0.7267 -1.1753
14189TIP3   OH264057   0.587   5.384   2.418  0.2577  0.0706  0.5376
14189TIP3    H164058   0.665   5.395   2.362  0.6854  0.1735  1.1467
14189TIP3    H264059   0.542   5.468   2.413 -0.9584 -0.6076 -1.4728
14190TIP3   OH264060   5.645   4.650   2.664 -0.7788  0.0921 -0.2594
14190TIP3    H164061   5.550   4.638   2.658 -0.9258  0.7932  0.4614
14190TIP3    H264062   5.660   4.738   2.629  0.0937 -1.3327 -4.0162
14191TIP3   OH264063   1.632   5.113   3.893  0.2369 -0.2439  0.6244
14191TIP3    H164064   1.558   5.171   3.913  0.2318  0.3169 -0.9528
14191TIP3    H264065   1.656   5.076   3.978 -1.8128 -0.3936  1.1983
14192TIP3   OH264066   5.394   6.220  16.020  0.0088 -0.1365  0.2641
14192TIP3    H164067   5.377   6.303  16.065  0.0115  0.3337 -0.5838
14192TIP3    H264068   5.357   6.232  15.932 -1.9709 -1.8265  0.7801
14193TIP3   OH264069   5.118   2.262  10.799  0.0581 -0.0019 -0.2706
14193TIP3    H164070   5.158   2.328  10.743  0.6391 -0.4198 -0.3482
14193TIP3    H264071   5.140   2.178  10.758  0.5529 -0.3181  0.6106
14194TIP3   OH264072   5.973   4.716   4.678  0.1903 -0.0908  0.3152
14194TIP3    H164073   6.012   4.799   4.707  1.7187 -0.7134  0.0805
14194TIP3    H264074   5.879   4.734   4.677  0.3743  1.1446  1.8526
14195TIP3   OH264075   6.744   5.092   1.227 -0.5222  0.3724 -0.4679
14195TIP3    H164076   6.801   5.155   1.271 -1.3320  0.2928  0.7264
14195TIP3    H264077   6.660   5.137   1.220 -0.8351 -0.2159 -0.4989
14196TIP3   OH264078   1.094   5.786   2.280  0.2194 -0.6458  0.2545
14196TIP3    H164079   1.183   5.772   2.312  0.5753  0.7941 -0.0526
14196TIP3    H264080   1.042   5.720   2.326  1.4662 -1.6666  0.2618
14197TIP3   OH264081   0.353   1.406   1.526  0.0807 -0.0762  0.2437
14197TIP3    H164082   0.436   1.358   1.538 -0.8756 -1.7216  0.6106
14197TIP3    H264083   0.375   1.475   1.463  1.4684 -1.2203 -0.6119
14198TIP3   OH264084   0.430   4.064   2.998  0.0838 -0.0356 -0.2236
14198TIP3    H164085   0.522   4.068   3.025  0.0245  1.7485 -0.1533
14198TIP3    H264086   0.389   4.139   3.041 -1.5576 -1.1163  0.1881
14199TIP3   OH264087   6.820   0.596  16.521 -0.2456  0.3961 -0.8709
14199TIP3    H164088   6.777   0.601  16.436 -0.3178 -1.0871 -0.9478
14199TIP3    H264089   6.782   0.518  16.562  1.4611 -0.2374 -0.4291
14200TIP3   OH264090   2.685   3.558  13.218  0.0471 -0.3826  0.2024
14200TIP3    H164091   2.658   3.638  13.265 -0.8530  0.5928 -1.8692
14200TIP3    H264092   2.752   3.519  13.275 -0.2335  1.2830  1.7756
14201TIP3   OH264093   6.175   4.161  15.886  0.4550 -0.4866 -0.6774
14201TIP3    H164094   6.125   4.243  15.892  1.3195  0.2188 -2.3583
14201TIP3    H264095   6.123   4.105  15.828  1.6598  0.3600 -2.6744
14202TIP3   OH264096   6.357   3.286  11.097 -0.1667  0.7607  0.2516
14202TIP3    H164097   6.372   3.195  11.071  1.1408  0.1015  2.9453
14202TIP3    H264098   6.430   3.335  11.058  0.5617  0.1782  0.8548
14203TIP3   OH264099   6.408   5.283  17.063  0.5585 -0.2303 -0.1657
14203TIP3    H164100   6.454   5.309  17.142 -0.9807 -0.5196  0.8882
14203TIP3    H264101   6.412   5.187  17.064  0.2350 -0.2468 -0.2304
14204TIP3   OH264102   3.208   2.761  11.553  0.3386  0.3052  0.3525
14204TIP3    H164103   3.171   2.720  11.630 -2.1513 -0.5628 -1.1892
14204TIP3    H264104   3.168   2.848  11.550  1.1312  0.6881  0.4979
14205TIP3   OH264105   3.504   2.393   4.271 -0.8576  0.5230 -0.0160
14205TIP3    H164106   3.465   2.306   4.280 -2.0437  1.1027  0.5754
14205TIP3    H264107   3.594   2.382   4.301 -1.2867 -0.2811  1.0380
14206TIP3   OH264108   2.044   1.436   1.071  0.5487  0.3477  0.1597
14206TIP3    H164109   1.980   1.366   1.083 -0.7388  1.3298 -0.7045
14206TIP3    H264110   2.103   1.403   1.003 -0.2741  0.2453 -0.5159
14207TIP3   OH264111   2.533   3.520  14.167 -0.0631  0.2295  0.3794
14207TIP3    H164112   2.492   3.587  14.222 -2.4091  1.3740 -2.4258
14207TIP3    H264113   2.478   3.442  14.179 -1.7507  1.0291 -1.5332
14208TIP3   OH264114   5.884   2.212  12.306 -0.2070 -0.0381  0.0377
14208TIP3    H164115   5.847   2.297  12.331  1.7801  1.1532 -0.8984
14208TIP3    H264116   5.823   2.179  12.240  0.5710  2.1985 -1.9789
14209TIP3   OH264117   0.857   2.144  16.691  0.5284  0.3995 -0.3735
14209TIP3    H164118   0.780   2.199  16.680  1.1568  1.5132  0.5548
14209TIP3    H264119   0.920   2.178  16.628  1.0785  1.0887  0.5123
14210TIP3   OH264120   2.195   2.299  16.696 -0.1214  0.0867 -0.7374
14210TIP3    H164121   2.159   2.378  16.737 -1.8605 -0.7670 -0.5227
14210TIP3    H264122   2.251   2.262  16.764  0.8820  1.2116 -0.9135
14211TIP3   OH264123   5.673   2.171   2.533 -0.4537 -0.3702  0.2206
14211TIP3    H164124   5.606   2.128   2.480  0.0435 -2.1046  0.9341
14211TIP3    H264125   5.658   2.264   2.519 -1.0643 -0.7421 -2.0388
14212TIP3   OH264126   2.354   5.411   2.201  0.1112 -0.3776  0.1404
14212TIP3    H164127   2.261   5.390   2.206 -0.5678  2.2738  0.2784
14212TIP3    H264128   2.394   5.361   2.272 -1.1783 -1.6022  0.0501
14213TIP3   OH264129   1.025   0.621   5.037 -0.1333 -0.3314 -0.1634
14213TIP3    H164130   1.071   0.602   5.118 -0.2324  0.4923  0.0938
14213TIP3    H264131   0.933   0.609   5.058 -0.1493 -0.2803 -0.2041
14214TIP3   OH264132   5.160   6.298   1.786  0.3749  0.1157  0.2087
14214TIP3    H164133   5.136   6.370   1.845 -3.0462 -0.2311 -0.5646
14214TIP3    H264134   5.156   6.220   1.841 -0.0886  0.0804  0.1259
14215TIP3   OH264135   6.302   0.434   5.951  0.7371 -0.3272  0.0388
14215TIP3    H164136   6.240   0.440   6.024 -0.6529 -2.6357 -0.8243
14215TIP3    H264137   6.388   0.452   5.991 -0.0941 -0.4421  2.0051
14216TIP3   OH264138   0.953   5.796   1.666 -0.6123  0.4685  0.1595
14216TIP3    H164139   1.031   5.741   1.676 -0.6305  0.4648  0.2847
14216TIP3    H264140   0.945   5.809   1.572 -0.2517  0.7642  0.1670
14217TIP3   OH264141   5.681   1.530  14.257  0.1695 -0.2482  0.0428
14217TIP3    H164142   5.617   1.570  14.199  1.6268 -0.4870 -1.8031
14217TIP3    H264143   5.632   1.460  14.302 -1.5767  1.4786  0.9629
14218TIP3   OH264144   5.042   1.338   1.764 -0.1940 -0.3253 -1.0452
14218TIP3    H164145   5.023   1.297   1.679  1.2104 -0.3915 -1.3485
14218TIP3    H264146   4.993   1.421   1.761  0.0649 -0.1895 -2.0476
14219TIP3   OH264147   4.660   6.035   2.298  0.3344 -0.1342 -0.3351
14219TIP3    H164148   4.676   5.976   2.224  2.2717 -0.9932  0.6955
14219TIP3    H264149   4.688   6.121   2.267 -0.6956 -0.0760 -1.1979
14220TIP3   OH264150   2.221   4.385   5.201 -0.2443 -0.1836 -0.2377
14220TIP3    H164151   2.178   4.470   5.190 -0.8133 -0.1085  2.0374
14220TIP3    H264152   2.208   4.363   5.293 -0.3561 -2.8806 -0.7913
14221TIP3   OH264153   1.431   5.994   0.407 -0.2096  0.1432 -0.0503
14221TIP3    H164154   1.424   5.921   0.346  0.0303  0.4243 -0.4146
14221TIP3    H264155   1.364   6.056   0.379  0.6515  0.7765 -0.7255
14222TIP3   OH264156   3.502   4.226   4.950  0.1398 -1.1314 -0.4044
14222TIP3    H164157   3.460   4.278   4.882  0.0152 -1.4174 -0.5499
14222TIP3    H264158   3.551   4.289   5.002  0.7781 -0.9959 -1.1546
14223TIP3   OH264159   4.106   6.521  14.473  0.0297  0.1039  0.1151
14223TIP3    H164160   4.021   6.505  14.515 -0.1368  3.2462  1.1617
14223TIP3    H264161   4.103   6.465  14.394 -1.2838 -2.9049  2.0865
14224TIP3   OH264162   0.234   5.368   2.379  0.1056 -1.0606 -0.1850
14224TIP3    H164163   0.255   5.400   2.467  0.3244 -1.2482 -0.1678
14224TIP3    H264164   0.282   5.286   2.372  1.2782 -0.3302 -1.0157
14225TIP3   OH264165   4.709   1.219  12.481 -0.7354  0.0898 -0.3869
14225TIP3    H164166   4.762   1.140  12.469 -0.8527 -0.1794  0.7914
14225TIP3    H264167   4.711   1.262  12.395  0.9774 -0.1611 -0.5105
14226TIP3   OH264168   1.402   1.381   3.725  0.0125 -0.2091 -0.0911
14226TIP3    H164169   1.386   1.398   3.818 -1.1704 -0.2994 -0.2667
14226TIP3    H264170   1.493   1.408   3.711 -0.6338  2.5291  0.4662
14227TIP3   OH264171   0.809   0.958   4.261 -0.4840 -0.5228  0.2756
14227TIP3    H164172   0.775   1.047   4.267  0.5800 -0.0334 -0.5423
14227TIP3    H264173   0.827   0.932   4.351 -0.6707  0.1439  0.5073
14228TIP3   OH264174   4.371   6.158   2.556  0.3784 -0.0012  0.2786
14228TIP3    H164175   4.334   6.072   2.576 -0.8615  0.3909 -0.1775
14228TIP3    H264176   4.427   6.179   2.630  0.6607 -1.1844  0.4089
14229TIP3   OH264177   0.916   3.051  13.685  0.1556  0.1357 -0.0824
14229TIP3    H164178   1.001   3.023  13.720  2.1891  2.7863 -2.4079
14229TIP3    H264179   0.907   3.142  13.714 -0.2442  0.9444 -2.5067
14230TIP3   OH264180   6.515   6.587  15.037  0.1090  0.5902 -0.5097
14230TIP3    H164181   6.502   6.664  14.981 -0.2999  1.1927  0.4052
14230TIP3    H264182   6.427   6.564  15.067  0.1276 -0.6795 -1.3251
14231TIP3   OH264183   3.245   4.039   1.575  0.5845  0.3234 -0.3281
14231TIP3    H164184   3.289   4.113   1.616  1.7059 -0.0324 -0.8470
14231TIP3    H264185   3.218   3.983   1.648 -0.5009  1.3516  0.0764
14232TIP3   OH264186   5.776   5.121   4.167 -0.1572  0.3387  0.0360
14232TIP3    H164187   5.851   5.063   4.153 -0.1899  0.5063 -0.8899
14232TIP3    H264188   5.716   5.101   4.095 -0.3043  1.3063 -0.1276
14233TIP3   OH264189   2.414   3.211   4.474 -0.0219 -0.3537  0.1993
14233TIP3    H164190   2.500   3.171   4.457  1.1063  2.1400 -0.5072
14233TIP3    H264191   2.383   3.238   4.387 -0.6102  0.4324  0.6447
14234TIP3   OH264192   4.980   1.551  12.306 -0.2207 -0.0597  0.0168
14234TIP3    H164193   5.066   1.546  12.348 -0.1496 -0.2016 -0.1455
14234TIP3    H264194   4.918   1.559  12.379 -0.0214  0.6940  0.1141
14235TIP3   OH264195   5.254   6.539   2.449  0.2192  0.4301 -0.1909
14235TIP3    H164196   5.249   6.631   2.477  1.5644  0.3182  0.4977
14235TIP3    H264197   5.286   6.492   2.526  0.8238 -0.4114 -0.9329
14236TIP3   OH264198   5.418   3.682   1.060 -0.2181 -0.1897 -0.1407
14236TIP3    H164199   5.448   3.664   0.971 -1.5212 -1.6226 -0.3323
14236TIP3    H264200   5.347   3.620   1.074 -0.2898  0.2712  1.7765
14237TIP3   OH264201   4.141   4.197   2.470 -0.3598 -0.6363  0.0894
14237TIP3    H164202   4.052   4.228   2.454  0.5480  1.8422 -0.6288
14237TIP3    H264203   4.152   4.122   2.412 -1.7590 -0.5482 -0.3106
14238TIP3   OH264204   3.524   6.178  15.261  0.0136 -0.5877 -0.5207
14238TIP3    H164205   3.469   6.126  15.320  1.2788  0.0319  1.2800
14238TIP3    H264206   3.612   6.172  15.298  0.5242  1.3086 -1.3073
14239TIP3   OH264207   2.427   5.283   0.012 -0.8834 -0.1103  0.2571
14239TIP3    H164208   2.425   5.360  -0.045 -1.7550 -0.2318  0.0998
14239TIP3    H264209   2.399   5.211  -0.045  2.2501 -1.0424 -0.2760
14240TIP3   OH264210   2.638   6.640   1.144 -0.2527  0.0999 -0.4897
14240TIP3    H164211   2.725   6.670   1.169 -0.7465  1.4218 -0.2665
14240TIP3    H264212   2.578   6.706   1.180 -1.3126 -0.5360 -1.0237
14241TIP3   OH264213   4.676   3.888   5.528 -0.1166  0.4266  0.7746
14241TIP3    H164214   4.739   3.957   5.550  1.1490 -0.2921 -0.4523
14241TIP3    H264215   4.730   3.813   5.503 -1.4396 -0.1034 -0.6736
14242TIP3   OH264216   3.566   6.509  16.527  0.4083  0.1240  0.0167
14242TIP3    H164217   3.627   6.442  16.555 -1.1118 -1.9553 -1.3319
14242TIP3    H264218   3.505   6.518  16.600  0.0904 -0.6581 -0.1454
14243TIP3   OH264219   5.906   4.881   5.772 -0.0607  0.1537 -0.1274
14243TIP3    H164220   5.852   4.847   5.843 -1.2826 -1.1816 -1.6287
14243TIP3    H264221   5.995   4.851   5.792 -0.5949 -1.2469  0.2059
14244TIP3   OH264222   3.628   1.736   5.833 -0.7002  0.2916  0.1340
14244TIP3    H164223   3.548   1.683   5.839 -1.3784  1.2750 -0.0063
14244TIP3    H264224   3.637   1.776   5.919 -0.7813  0.7807 -0.0839
14245TIP3   OH264225   0.486   1.867   2.662 -0.8056  0.0266  0.2963
14245TIP3    H164226   0.406   1.820   2.638 -0.1139 -1.5503  0.9064
14245TIP3    H264227   0.490   1.860   2.757 -0.4409  0.9585  0.3584
14246TIP3   OH264228   6.110   4.730  12.137 -0.4674  0.2047  0.3851
14246TIP3    H164229   6.095   4.636  12.135  0.5206 -0.0128  1.5955
14246TIP3    H264230   6.100   4.759  12.047 -1.7924 -0.8873  0.1586
14247TIP3   OH264231   1.227   3.395   2.445 -0.6675 -0.1212  0.1775
14247TIP3    H164232   1.208   3.484   2.415 -1.8026 -0.0466  1.0709
14247TIP3    H264233   1.196   3.339   2.374 -0.3075  0.1663 -0.2159
14248TIP3   OH264234   3.376   0.386  13.560  0.2892  0.2295 -0.6041
14248TIP3    H164235   3.327   0.432  13.491 -0.4223 -2.7832 -2.2549
14248TIP3    H264236   3.316   0.319  13.591  1.4112  0.1071  1.4541
14249TIP3   OH264237   5.397   4.050   4.958  0.1397  0.1427 -0.2344
14249TIP3    H164238   5.379   4.103   5.036  1.4412  1.6818 -0.9348
14249TIP3    H264239   5.357   4.097   4.886  2.5080  1.0232 -1.0803
14250TIP3   OH264240   6.052   3.096   4.465  0.5035  0.0259  0.0445
14250TIP3    H164241   6.122   3.104   4.400  1.8615 -1.7460  1.1669
14250TIP3    H264242   6.074   3.160   4.532  0.3960  0.2660 -0.1480
14251TIP3   OH264243   4.290   2.613   1.513  0.1517  0.6467 -0.4082
14251TIP3    H164244   4.254   2.543   1.567 -0.8656  0.2615 -1.5296
14251TIP3    H264245   4.230   2.686   1.525  1.6132  1.6276  1.3321
14252TIP3   OH264246   5.190   4.875  15.293  0.1941  0.0233 -0.1314
14252TIP3    H164247   5.158   4.931  15.363  3.7460  1.3323  0.6466
14252TIP3    H264248   5.212   4.936  15.222  0.5157 -0.8313 -0.7855
14253TIP3   OH264249   6.386   1.445  13.772 -0.0527 -0.8270  0.3592
14253TIP3    H164250   6.386   1.388  13.849  0.9568 -1.0761  0.1883
14253TIP3    H264251   6.426   1.392  13.703  1.1731  0.1463  0.2733
14254TIP3   OH264252   2.270   4.224   0.806  0.5549 -0.1174  0.2848
14254TIP3    H164253   2.204   4.273   0.756 -0.5291 -0.2190  1.5423
14254TIP3    H264254   2.253   4.132   0.785  1.1185 -0.0816 -0.3457
14255TIP3   OH264255   1.260   0.137   1.699 -0.7186 -0.1579  0.1468
14255TIP3    H164256   1.172   0.173   1.692 -0.4245  1.0471  1.9140
14255TIP3    H264257   1.248   0.047   1.730 -1.3182  0.0672  0.5696
14256TIP3   OH264258   0.688   5.147  15.317  0.6768  0.0016  0.5185
14256TIP3    H164259   0.739   5.070  15.292  1.9594  1.4279 -1.6141
14256TIP3    H264260   0.647   5.175  15.236 -0.6992  0.9356  1.4992
14257TIP3   OH264261   3.118   2.762   4.422 -0.0260  0.0548  0.3508
14257TIP3    H164262   3.182   2.795   4.486 -0.3095  0.5869  0.3625
14257TIP3    H264263   3.136   2.668   4.418  0.0373  0.0204  1.1653
14258TIP3   OH264264   2.370   6.004  15.602  0.0521 -0.3131 -0.5371
14258TIP3    H164265   2.351   6.080  15.657 -0.8341 -0.7291 -0.2408
14258TIP3    H264266   2.404   5.938  15.662  1.4988  0.0708 -0.9054
14259TIP3   OH264267   4.860   6.454   2.712 -0.1386  0.1649  0.8079
14259TIP3    H164268   4.804   6.458   2.635  0.5182  3.9302  0.3236
14259TIP3    H264269   4.802   6.425   2.782 -1.3444 -0.9862 -0.5873
14260TIP3   OH264270   4.786   5.562   3.057  0.3030  0.0752  0.3157
14260TIP3    H164271   4.855   5.612   3.101 -0.7753  2.7802 -0.8865
14260TIP3    H264272   4.778   5.602   2.971 -1.0668 -1.8441 -0.5200
14261TIP3   OH264273   0.843   3.603   2.056  0.2263 -0.1398 -0.5413
14261TIP3    H164274   0.788   3.645   1.989 -1.8344 -0.5674  0.7861
14261TIP3    H264275   0.785   3.537   2.096  1.1383  0.5686  2.1126
14262TIP3   OH264276   1.132   5.720  17.041  0.4045 -0.0701 -0.1296
14262TIP3    H164277   1.048   5.683  17.068  0.0814  0.7326 -0.0350
14262TIP3    H264278   1.111   5.772  16.963  0.5392  1.3896  0.7899
14263TIP3   OH264279   4.880   0.878   5.891 -0.0979 -0.4134 -0.5168
14263TIP3    H164280   4.801   0.830   5.863 -0.7640  0.5992 -0.4341
14263TIP3    H264281   4.908   0.833   5.970  0.1507 -1.5632 -1.2355
14264TIP3   OH264282   4.183   3.234  16.129 -0.0045 -0.0154 -0.1743
14264TIP3    H164283   4.164   3.309  16.186 -0.2644  1.1527 -1.7096
14264TIP3    H264284   4.098   3.190  16.120  0.3360 -1.1247  1.4988
14265TIP3   OH264285   1.647   4.289   6.508 -0.4890 -0.5721 -0.1267
14265TIP3    H164286   1.567   4.337   6.527 -0.9912 -1.8313  1.0960
14265TIP3    H264287   1.628   4.199   6.534  1.5538 -0.7722  0.9022
14266TIP3   OH264288   6.426   0.494  17.170  0.4024  0.2576  0.1210
14266TIP3    H164289   6.409   0.584  17.195  1.0770 -0.4302  3.5596
14266TIP3    H264290   6.349   0.446  17.201 -0.4043 -0.3263 -2.5276
14267TIP3   OH264291   3.898   4.045  16.356  0.2448  0.5108  0.1620
14267TIP3    H164292   3.873   3.953  16.347 -2.5062  1.3223 -2.2830
14267TIP3    H264293   3.964   4.058  16.288  0.6387  0.3543  0.5116
14268TIP3   OH264294   5.131   6.812  10.581 -0.0547 -0.0868  0.7746
14268TIP3    H164295   5.118   6.843  10.492 -1.8107  1.7610  1.5869
14268TIP3    H264296   5.183   6.732  10.572 -0.0292  0.1556 -1.8589
14269TIP3   OH264297   6.646   1.420  11.166  0.2535 -0.1573 -0.6638
14269TIP3    H164298   6.635   1.362  11.091  3.3166 -0.1749 -1.2020
14269TIP3    H264299   6.634   1.364  11.242  3.0572 -1.6274 -1.1677
14270TIP3   OH264300   6.368   3.567   4.442  0.3474 -0.3361  0.4661
14270TIP3    H164301   6.328   3.522   4.368  0.6765 -1.2217  0.8123
14270TIP3    H264302   6.407   3.646   4.404 -2.1103  0.8274  0.2000
14271TIP3   OH264303   3.691   6.341  12.263 -0.5213 -0.1626  0.3161
14271TIP3    H164304   3.726   6.252  12.266  0.7084  0.2877 -0.1439
14271TIP3    H264305   3.729   6.385  12.339  1.1379  0.7439 -0.9773
14272TIP3   OH264306   5.800   1.527   3.560  0.1270  0.1256  0.3759
14272TIP3    H164307   5.804   1.539   3.465 -0.2638  0.9765  0.4621
14272TIP3    H264308   5.890   1.503   3.584  0.4838  0.9495 -0.0798
14273TIP3   OH264309   6.083   3.570  15.825  0.0806 -0.2124  0.3339
14273TIP3    H164310   6.115   3.575  15.735  0.5202 -1.0669  0.4304
14273TIP3    H264311   6.103   3.480  15.852 -0.9714 -0.2698  0.9423
14274TIP3   OH264312   1.858   6.411  15.005 -0.2160 -0.2888 -0.3581
14274TIP3    H164313   1.931   6.434  14.947 -1.0679  0.4371 -1.1867
14274TIP3    H264314   1.894   6.345  15.064  1.8578  1.8778  0.9635
14275TIP3   OH264315   1.885   5.988  11.520 -0.2314 -0.0620 -0.4531
14275TIP3    H164316   1.963   5.987  11.576 -0.7307 -0.0552  0.2549
14275TIP3    H264317   1.811   5.985  11.582 -0.8082  0.9585 -1.0659
14276TIP3   OH264318   2.526   6.175  16.275  0.1485  0.0200  0.3474
14276TIP3    H164319   2.609   6.178  16.323 -0.0970 -0.1651  0.7921
14276TIP3    H264320   2.479   6.102  16.315 -0.6279  0.7320  0.7476
14277TIP3   OH264321   6.672   6.775  14.173 -0.0756 -0.5624 -0.3842
14277TIP3    H164322   6.579   6.790  14.192 -0.0563  0.4414 -0.9660
14277TIP3    H264323   6.672   6.707  14.106 -0.4219 -0.2452 -0.7118
14278TIP3   OH264324   3.051   1.439   2.886 -0.0082  0.0413  0.2550
14278TIP3    H164325   2.972   1.424   2.938 -0.0257 -0.2287  0.1550
14278TIP3    H264326   3.050   1.368   2.821  0.7476 -0.4472  0.7662
14279TIP3   OH264327   4.694   0.182   5.211 -0.6785 -0.5298  0.3071
14279TIP3    H164328   4.755   0.158   5.281  2.7903  0.4109 -2.1576
14279TIP3    H264329   4.664   0.270   5.234  0.6225 -0.1269  0.5317
14280TIP3   OH264330   2.435   5.109   2.943 -0.0387  0.7492 -0.3956
14280TIP3    H164331   2.412   5.018   2.925  1.2131  0.4492 -0.6148
14280TIP3    H264332   2.353   5.158   2.932 -0.4068 -0.1306 -1.9297
14281TIP3   OH264333   4.312   0.269   0.658  0.4482  0.1228 -0.1940
14281TIP3    H164334   4.282   0.360   0.655  1.1906  0.3859 -0.0602
14281TIP3    H264335   4.309   0.240   0.567 -1.0442 -0.1599 -0.0770
14282TIP3   OH264336   3.304   5.864   1.970  0.4828 -0.0887  0.4935
14282TIP3    H164337   3.379   5.823   1.927 -0.0353 -0.1777 -0.3420
14282TIP3    H264338   3.339   5.944   2.010  1.0715 -0.2656  0.3329
14283TIP3   OH264339   2.194   2.671  14.698 -0.0923  0.1466  0.4254
14283TIP3    H164340   2.144   2.605  14.747 -1.3157  0.5224 -0.2709
14283TIP3    H264341   2.127   2.727  14.659  0.9116  1.3035  0.3060
14284TIP3   OH264342   5.157   4.889  16.692  0.0887 -0.8672  0.2717
14284TIP3    H164343   5.225   4.888  16.759  0.4197 -2.2821 -0.0573
14284TIP3    H264344   5.078   4.861  16.738  0.5044 -2.7216 -0.0854
14285TIP3   OH264345   2.316   6.291  14.293  0.4124  0.2924  0.0532
14285TIP3    H164346   2.261   6.368  14.285  0.3393  0.1076 -1.4133
14285TIP3    H264347   2.301   6.242  14.212  0.7622 -1.0606  0.7768
14286TIP3   OH264348   2.427   3.852  15.455 -0.4466 -0.0719 -0.0153
14286TIP3    H164349   2.463   3.847  15.366 -1.8099 -1.6468 -0.5152
14286TIP3    H264350   2.504   3.866  15.510  0.4433  0.8987 -1.4131
14287TIP3   OH264351   2.488   3.095   4.883  0.6155 -0.1569 -0.3735
14287TIP3    H164352   2.565   3.046   4.912  1.5614  1.1217 -0.6541
14287TIP3    H264353   2.440   3.115   4.963  1.0581 -0.1755 -0.1018
14288TIP3   OH264354   3.944   5.348  10.553  0.7511  0.6583  0.2143
14288TIP3    H164355   4.025   5.372  10.599  0.8287  1.0790 -0.1278
14288TIP3    H264356   3.967   5.355  10.460  0.9659 -1.3945  0.0642
14289TIP3   OH264357   1.184   0.351   5.717  0.5954 -0.0675  0.4891
14289TIP3    H164358   1.185   0.348   5.622 -1.2367 -0.5907  0.4460
14289TIP3    H264359   1.264   0.305   5.744  0.6795 -0.6970 -0.7840
14290TIP3   OH264360   0.734   1.782   2.195 -0.1516 -0.1272  0.2971
14290TIP3    H164361   0.639   1.780   2.209 -0.3330 -1.5781 -0.9497
14290TIP3    H264362   0.749   1.863   2.146 -0.7218  0.1424  0.5527
14291TIP3   OH264363   0.211   5.940  14.281 -0.1753  0.3695 -0.5477
14291TIP3    H164364   0.171   6.005  14.224  0.9100  1.9499  0.4115
14291TIP3    H264365   0.305   5.949  14.266  0.0156 -0.7477 -0.1362
14292TIP3   OH264366   4.821   5.897   1.449  0.1604  0.1742  0.0912
14292TIP3    H164367   4.882   5.953   1.400  1.0500 -0.5371  0.3470
14292TIP3    H264368   4.844   5.808   1.422 -0.7125 -0.1150  0.2701
14293TIP3   OH264369   3.330   4.572   4.249  0.2260 -0.4626 -1.0230
14293TIP3    H164370   3.330   4.668   4.243 -0.4439 -0.4589 -1.0320
14293TIP3    H264371   3.248   4.546   4.208 -1.2280 -0.8504  1.8792
14294TIP3   OH264372   3.839   1.680  15.949 -0.4702 -0.0959  0.2449
14294TIP3    H164373   3.824   1.707  16.039 -0.6285  0.6209  0.0109
14294TIP3    H264374   3.848   1.762  15.900 -3.8431 -0.2866 -0.9774
14295TIP3   OH264375   3.056   2.537  15.498  0.3070  0.3818 -0.4724
14295TIP3    H164376   3.151   2.526  15.496  0.3276 -0.0585  1.3602
14295TIP3    H264377   3.044   2.630  15.520  0.3420  0.1551  0.5355
14296TIP3   OH264378   0.127   4.879  11.741 -0.6347 -0.4078 -0.0783
14296TIP3    H164379   0.147   4.805  11.798 -0.2016  1.1864  1.9786
14296TIP3    H264380   0.052   4.851  11.690 -1.3062 -1.8018  1.5780
14297TIP3   OH264381   3.671   6.638   4.985 -0.4834  0.0237  0.1624
14297TIP3    H164382   3.640   6.691   4.911 -0.2278  0.3536  0.2869
14297TIP3    H264383   3.763   6.620   4.963 -0.4889 -0.1202  0.2622
14298TIP3   OH264384   2.190   3.136   4.016  0.2012 -0.2221 -0.3627
14298TIP3    H164385   2.253   3.106   3.950  0.8570 -1.7488  0.8763
14298TIP3    H264386   2.107   3.145   3.969  1.1632  1.2024 -1.9005
14299TIP3   OH264387   0.200   6.441  16.721  0.2136  0.7538 -0.2104
14299TIP3    H164388   0.200   6.402  16.634  0.5462  0.0861  0.0824
14299TIP3    H264389   0.200   6.535  16.705  0.7455  0.6387 -0.9345
14300TIP3   OH264390   3.021   6.194  16.290  0.0553  0.0068  0.0394
14300TIP3    H164391   3.007   6.189  16.384 -0.2272 -2.4646 -0.0520
14300TIP3    H264392   2.945   6.240  16.256 -1.0683 -1.1945  0.8334
14301TIP3   OH264393   3.773   6.377  16.722 -0.3156 -0.3233  0.1984
14301TIP3    H164394   3.773   6.407  16.813 -1.6687 -2.2741  0.9061
14301TIP3    H264395   3.842   6.428  16.679 -0.4573  1.4887  2.0152
14302TIP3   OH264396   3.496   0.002  11.642  0.4158 -0.4995 -0.1614
14302TIP3    H164397   3.517  -0.079  11.595  1.3716 -0.3235 -0.0404
14302TIP3    H264398   3.406  -0.010  11.671  0.4390 -1.3786 -0.4387
14303TIP3   OH264399   4.031   1.428  16.481 -0.2532 -0.0102  0.5970
14303TIP3    H164400   3.986   1.344  16.478  1.9681 -1.2782  0.0537
14303TIP3    H264401   4.091   1.425  16.407  0.5468  1.6458  1.1319
14304TIP3   OH264402   4.720   6.170  15.685  0.2757  0.0437  0.1106
14304TIP3    H164403   4.653   6.239  15.687  0.4024  0.1676  0.1512
14304TIP3    H264404   4.678   6.098  15.639  0.4048  0.4353 -0.6432
14305TIP3   OH264405   1.405   2.816   3.301  0.6040 -0.6125  0.2719
14305TIP3    H164406   1.310   2.828   3.309  0.4785 -0.7887 -0.8456
14305TIP3    H264407   1.438   2.832   3.389 -0.2431  1.4357  0.2609
14306TIP3   OH264408   1.699   0.396   0.647  0.4901 -0.1306  0.5102
14306TIP3    H164409   1.640   0.327   0.677  0.1905  0.7328  2.0050
14306TIP3    H264410   1.786   0.359   0.655  0.3807 -0.1150  1.9956
14307TIP3   OH264411   5.633   5.167   5.948 -0.0973  0.3789  0.2000
14307TIP3    H164412   5.538   5.176   5.957 -0.0333  2.0214 -0.4118
14307TIP3    H264413   5.657   5.101   6.013 -1.7126 -0.4624 -0.0011
14308TIP3   OH264414   6.690   1.714   0.269  0.8588  1.1577 -0.0970
14308TIP3    H164415   6.668   1.622   0.252  1.7754  0.8376  0.3916
14308TIP3    H264416   6.678   1.757   0.184  0.7441  0.5217 -0.4143
14309TIP3   OH264417   4.487   3.093   2.544  0.6314  0.8621  0.0576
14309TIP3    H164418   4.424   3.161   2.570  0.1128 -0.0401  1.2857
14309TIP3    H264419   4.568   3.118   2.587 -0.0298 -0.2109  2.0695
14310TIP3   OH264420   3.263   2.240  14.595 -0.4899 -0.3701 -0.2121
14310TIP3    H164421   3.179   2.219  14.636  0.7926 -1.9773  1.7608
14310TIP3    H264422   3.310   2.157  14.591  0.8695  0.4227 -1.6378
14311TIP3   OH264423   5.906   0.653   3.109  0.3910  0.2170 -0.6622
14311TIP3    H164424   5.913   0.579   3.049  2.9858 -0.5300  0.4604
14311TIP3    H264425   5.982   0.707   3.089  0.1035  1.0798  0.5081
14312TIP3   OH264426   4.147   5.582   4.861  0.0144  0.3912  0.6166
14312TIP3    H164427   4.068   5.533   4.884  1.4517 -2.5000 -0.1494
14312TIP3    H264428   4.187   5.603   4.946  0.9273 -2.6350  1.0546
14313TIP3   OH264429   0.365   1.266  13.987 -0.2589 -0.5400  0.5214
14313TIP3    H164430   0.395   1.178  13.963 -2.4903 -1.8763  2.2800
14313TIP3    H264431   0.369   1.268  14.082 -2.5919  0.3250  0.6578
14314TIP3   OH264432   3.028   0.226   4.151  0.0934 -0.3420  0.3183
14314TIP3    H164433   2.969   0.285   4.197 -0.0339 -0.6828  0.6030
14314TIP3    H264434   3.008   0.139   4.187 -0.0634 -0.6283 -0.4381
14315TIP3   OH264435   4.843   2.395  12.108 -0.1466 -0.0477  0.5755
14315TIP3    H164436   4.824   2.429  12.020  0.1528 -1.1274  0.0839
14315TIP3    H264437   4.885   2.311  12.092 -0.2944 -0.3519  1.7695
14316TIP3   OH264438   2.532   4.742  12.270  0.2359 -0.0472  0.2567
14316TIP3    H164439   2.624   4.730  12.246  0.1801  1.8295 -1.1728
14316TIP3    H264440   2.488   4.760  12.187 -1.0945  0.8935  1.1293
14317TIP3   OH264441   2.728   0.705   5.763 -0.4199 -0.2733 -0.1299
14317TIP3    H164442   2.720   0.800   5.754 -0.7943 -0.3039 -0.1547
14317TIP3    H264443   2.701   0.670   5.678  2.6610 -0.3044 -1.2126
14318TIP3   OH264444   3.911   4.408   5.387 -0.4307 -0.4089  0.3904
14318TIP3    H164445   3.916   4.363   5.472 -0.2235 -1.1103  0.0136
14318TIP3    H264446   3.836   4.368   5.344  1.2048 -2.2220 -0.9576
14319TIP3   OH264447   5.681   5.965   2.951  0.0377 -0.4322  0.7402
14319TIP3    H164448   5.604   6.018   2.934 -0.1617 -0.9325  0.0189
14319TIP3    H264449   5.687   5.906   2.875  1.0211 -0.5210  0.8678
14320TIP3   OH264450   3.664   3.547   4.596  0.0592  0.0444  0.1922
14320TIP3    H164451   3.594   3.612   4.598  0.6775  0.7532 -0.4756
14320TIP3    H264452   3.620   3.463   4.611 -1.1957  0.2630 -1.9695
14321TIP3   OH264453   3.882   5.675  13.963  0.3087 -0.1302  0.1337
14321TIP3    H164454   3.970   5.700  13.990  0.3119 -0.9558  0.9601
14321TIP3    H264455   3.887   5.666  13.868  1.0814 -0.0419  0.1645
14322TIP3   OH264456   3.005   2.402   1.468  0.3209 -0.1844  0.0295
14322TIP3    H164457   3.081   2.416   1.525 -0.3621  0.6319  0.7606
14322TIP3    H264458   2.979   2.490   1.440 -1.0646 -0.3286  0.7532
14323TIP3   OH264459   1.271   2.316  10.922  0.2604  0.4900 -0.2259
14323TIP3    H164460   1.340   2.257  10.952 -0.2911  0.6848  1.5347
14323TIP3    H264461   1.236   2.274  10.844  3.2738  1.0819 -2.1070
14324TIP3   OH264462   5.845   2.694  11.879  0.0106  0.6643 -0.0020
14324TIP3    H164463   5.899   2.644  11.818  0.2956  0.1501  0.6566
14324TIP3    H264464   5.803   2.760  11.825 -0.0462 -0.0250 -0.8199
14325TIP3   OH264465   1.148   4.213  14.907 -0.2485  0.5786  0.5567
14325TIP3    H164466   1.173   4.173  14.824 -1.7505  0.1386  0.3009
14325TIP3    H264467   1.057   4.238  14.895 -0.8528 -0.5601  2.4725
14326TIP3   OH264468   5.032   1.905  13.369  0.8754 -0.1374 -0.5650
14326TIP3    H164469   5.013   1.938  13.457  0.6921 -1.1094 -0.2312
14326TIP3    H264470   5.060   1.814  13.382  0.9325 -0.2682 -1.5019
14327TIP3   OH264471   1.079   6.180   1.543 -0.2603  0.2070 -0.4118
14327TIP3    H164472   1.161   6.226   1.525 -1.1807  1.5997 -1.1794
14327TIP3    H264473   1.012   6.248   1.544 -1.3628 -0.8371  0.7145
14328TIP3   OH264474   4.682   4.864   1.844  0.5574  0.0776 -0.2505
14328TIP3    H164475   4.723   4.872   1.758  1.0969 -2.4679 -0.3023
14328TIP3    H264476   4.593   4.833   1.825  0.6119 -0.2993  0.1126
14329TIP3   OH264477   1.735   2.174   5.795 -0.0683  0.0646 -0.3783
14329TIP3    H164478   1.671   2.111   5.761 -0.8253  0.9191 -0.5961
14329TIP3    H264479   1.685   2.227   5.857 -0.1195  1.9755 -1.9371
14330TIP3   OH264480   5.763   1.796   1.977 -0.0243  0.8875  0.6009
14330TIP3    H164481   5.748   1.881   1.937 -0.7092  0.5284  0.0744
14330TIP3    H264482   5.719   1.801   2.062  1.0024  1.4759  1.1167
14331TIP3   OH264483   2.516   6.084   2.823 -0.2968 -0.0218  1.0112
14331TIP3    H164484   2.578   6.021   2.785 -0.5849 -1.5726  2.9405
14331TIP3    H264485   2.459   6.031   2.879 -0.6238  1.9358  2.6745
14332TIP3   OH264486   0.806   6.828   1.024  0.1483 -0.2639  0.2612
14332TIP3    H164487   0.859   6.888   0.971 -0.8580 -1.3435 -2.1472
14332TIP3    H264488   0.720   6.871   1.029  0.0409 -0.4941  0.4001
14333TIP3   OH264489   3.134   2.080   2.505 -0.0702 -0.7679  0.7462
14333TIP3    H164490   3.153   1.999   2.458  2.2756  0.9779 -1.6216
14333TIP3    H264491   3.126   2.146   2.436 -1.8005  1.1033  2.5775
14334TIP3   OH264492   3.330   3.192   0.057  0.1777  0.3708 -0.0705
14334TIP3    H164493   3.420   3.166   0.040 -0.2156 -0.8204 -0.5187
14334TIP3    H264494   3.303   3.138   0.131 -1.2558 -2.1110 -2.2021
14335TIP3   OH264495   5.708   0.047   1.539 -0.5695 -0.1354 -0.3451
14335TIP3    H164496   5.687   0.015   1.452  0.6045 -0.0287 -0.6846
14335TIP3    H264497   5.637   0.015   1.594  0.2176 -2.8753 -0.7754
14336TIP3   OH264498   5.386   1.742  11.600  0.2720  0.5878 -0.7772
14336TIP3    H164499   5.293   1.745  11.623  0.3361  2.0238 -0.6421
14336TIP3    H264500   5.432   1.759  11.682  0.5911  1.7041 -1.1666
14337TIP3   OH264501   2.762   0.175   4.417  0.1096  0.3695 -1.3259
14337TIP3    H164502   2.805   0.256   4.389  0.5038 -0.0801 -2.0498
14337TIP3    H264503   2.755   0.122   4.338  2.2968 -1.4075 -0.4647
14338TIP3   OH264504   5.648   0.090   3.470 -0.0146  0.5241  0.0936
14338TIP3    H164505   5.676   0.044   3.391 -1.2946 -0.2865  0.0798
14338TIP3    H264506   5.711   0.064   3.537 -0.3155 -0.7312 -0.0852
14339TIP3   OH264507   1.066   1.244  15.255 -0.2029  0.7584  0.1885
14339TIP3    H164508   1.121   1.302  15.309 -1.3704  1.8707  0.2289
14339TIP3    H264509   1.009   1.304  15.207 -0.2398 -0.3026 -1.1299
14340TIP3   OH264510   4.218   0.633   4.055 -0.5035 -0.1547 -0.4623
14340TIP3    H164511   4.145   0.690   4.080  0.0009 -0.1767  1.1343
14340TIP3    H264512   4.281   0.692   4.014 -1.4786 -0.1733 -2.1008
14341TIP3   OH264513   5.134   0.080   3.408  0.4459 -0.3064  0.2904
14341TIP3    H164514   5.199   0.081   3.478 -0.7756 -1.1451  1.4839
14341TIP3    H264515   5.121  -0.012   3.387 -0.5393 -0.1728  0.2507
14342TIP3   OH264516   6.606   3.176   3.710  0.4352  0.2142 -0.0481
14342TIP3    H164517   6.656   3.230   3.771 -0.4694 -0.8496  1.7376
14342TIP3    H264518   6.515   3.190   3.735 -0.0755  0.8346 -2.1387
14343TIP3   OH264519   3.514   6.433   6.297  0.4370  0.3057 -0.0105
14343TIP3    H164520   3.471   6.431   6.383  1.7278 -2.2573  0.6938
14343TIP3    H264521   3.599   6.475   6.313  0.1141  1.1149 -0.3722
14344TIP3   OH264522   3.446   3.797  13.209  0.0382 -0.0875  0.1042
14344TIP3    H164523   3.392   3.780  13.286 -0.4620 -1.7317 -0.5781
14344TIP3    H264524   3.528   3.830  13.245 -0.4873 -0.0112  1.2938
14345TIP3   OH264525   4.552   0.981  11.748 -0.4500  0.0435  0.5611
14345TIP3    H164526   4.644   0.958  11.764 -0.1560 -0.7230 -1.8372
14345TIP3    H264527   4.546   1.073  11.773  1.3433  0.4845 -0.4467
14346TIP3   OH264528   5.911   1.082   4.730  0.5283 -0.5067 -0.4542
14346TIP3    H164529   5.979   1.144   4.756  0.5254 -0.7397  0.1330
14346TIP3    H264530   5.844   1.089   4.799 -0.6951  0.6962 -1.7040
14347TIP3   OH264531   2.199   5.759   6.107  0.4826  0.2038 -0.0298
14347TIP3    H164532   2.191   5.842   6.155  0.9549 -0.3495  1.0403
14347TIP3    H264533   2.241   5.699   6.169 -0.4513 -1.0349 -0.5560
14348TIP3   OH264534   6.422   2.820  16.871 -0.7549  0.5618  0.3549
14348TIP3    H164535   6.364   2.866  16.931  0.3828  3.5060 -0.5844
14348TIP3    H264536   6.482   2.771  16.927 -1.3737  1.0933  1.4949
14349TIP3   OH264537   2.866   2.324  11.552  0.4612  0.2083  0.0485
14349TIP3    H164538   2.780   2.324  11.510  1.0400  0.7226 -1.2063
14349TIP3    H264539   2.914   2.254  11.507  0.3368 -0.9044  1.5792
14350TIP3   OH264540   1.767   3.063   3.147 -0.2281  0.6657  0.4020
14350TIP3    H164541   1.673   3.079   3.142 -0.2905  0.1555 -0.4171
14350TIP3    H264542   1.779   2.979   3.103  0.7433  1.2725 -0.5505
14351TIP3   OH264543   5.148   5.564  16.596 -0.2303 -0.4205  0.2543
14351TIP3    H164544   5.087   5.578  16.524  1.1808  0.0709 -0.9205
14351TIP3    H264545   5.143   5.471  16.615 -2.4877 -0.1483  1.3230
14352TIP3   OH264546   3.418   0.788   1.849  0.0024 -0.9861 -0.1984
14352TIP3    H164547   3.487   0.723   1.854 -0.4048 -1.3341  1.1160
14352TIP3    H264548   3.391   0.803   1.939  0.7120  1.7109 -0.3362
14353TIP3   OH264549   2.131   2.933   5.487 -0.0950 -0.7833 -0.6807
14353TIP3    H164550   2.086   2.883   5.555  0.5544 -0.6237 -0.1310
14353TIP3    H264551   2.200   2.980   5.533 -1.0951  1.1580 -1.0809
14354TIP3   OH264552   4.345   5.779   1.680 -0.5925  0.4042 -0.4178
14354TIP3    H164553   4.428   5.731   1.673 -0.2030  1.1059 -0.7759
14354TIP3    H264554   4.365   5.850   1.741 -0.8538  0.7283 -0.7089
14355TIP3   OH264555   4.215   0.213   5.235  0.1219  0.1522 -0.6937
14355TIP3    H164556   4.164   0.258   5.303  2.6234  0.9178  0.8177
14355TIP3    H264557   4.266   0.283   5.194  4.5207 -1.0478  2.0734
14356TIP3   OH264558   3.110   5.696   0.624 -0.7496 -0.1605 -0.3973
14356TIP3    H164559   3.174   5.635   0.586 -1.3106  0.0424 -1.7219
14356TIP3    H264560   3.028   5.646   0.626 -1.4219  0.7606 -2.2915
14357TIP3   OH264561   6.749   1.971   1.665 -0.0841  0.0851  0.1787
14357TIP3    H164562   6.752   1.988   1.760 -0.2551 -0.7543  0.3412
14357TIP3    H264563   6.779   2.053   1.626 -1.5222  1.0098  0.9060
14358TIP3   OH264564   2.825   3.488   0.179 -0.0569  0.1912  0.2040
14358TIP3    H164565   2.750   3.544   0.201  0.5917  1.6651 -1.1782
14358TIP3    H264566   2.845   3.442   0.261 -1.8370  0.4843  0.8619
14359TIP3   OH264567   4.780   4.807   2.300 -0.4834 -0.1200 -0.0400
14359TIP3    H164568   4.685   4.795   2.305 -0.6007  0.9787  0.6234
14359TIP3    H264569   4.801   4.866   2.372  0.5428  0.5853 -0.8915
14360TIP3   OH264570   0.646   2.661   1.844 -0.0280  0.0389  0.0148
14360TIP3    H164571   0.711   2.721   1.807 -2.0030  0.7905 -2.5293
14360TIP3    H264572   0.685   2.574   1.834  0.1594  0.3436 -2.7199
14361TIP3   OH264573   2.218   5.368  14.008  0.2731 -0.2118 -1.0940
14361TIP3    H164574   2.240   5.450  13.964 -0.1850  0.4538 -0.1318
14361TIP3    H264575   2.238   5.385  14.100 -3.7172  0.3218 -0.1600
14362TIP3   OH264576   4.867   4.482  13.353 -1.1862  0.1706  0.0040
14362TIP3    H164577   4.858   4.547  13.284  0.7477 -0.2800 -0.7425
14362TIP3    H264578   4.882   4.532  13.433 -1.4640  0.6592 -0.2505
14363TIP3   OH264579   6.438   6.781   4.745 -0.4270 -0.0499  0.6782
14363TIP3    H164580   6.363   6.788   4.686 -0.6655  0.0361  0.9907
14363TIP3    H264581   6.456   6.871   4.772  2.3066  0.5359 -2.4856
14364TIP3   OH264582   2.317   4.763  16.488 -0.2048  0.2143  0.0080
14364TIP3    H164583   2.409   4.782  16.506 -0.0536 -1.5961  1.3605
14364TIP3    H264584   2.284   4.722  16.568 -1.0290 -3.1127 -1.8399
14365TIP3   OH264585   6.263   0.008  14.716  0.1699 -0.4108 -0.3871
14365TIP3    H164586   6.244   0.052  14.798  1.6583  0.3355 -0.4148
14365TIP3    H264587   6.182   0.017  14.665 -0.0884  0.9045  0.2145
14366TIP3   OH264588   5.115   1.394  13.387  0.0790 -0.3222  0.5343
14366TIP3    H164589   5.119   1.343  13.468  0.2052  0.1054  0.7982
14366TIP3    H264590   5.205   1.396  13.355  0.1563  0.1363  0.7759
14367TIP3   OH264591   1.318   2.480   4.858  0.0598 -0.0126 -0.2054
14367TIP3    H164592   1.411   2.482   4.840 -0.1143 -1.0902 -1.3542
14367TIP3    H264593   1.309   2.522   4.944  1.7002 -0.7308  0.3537
14368TIP3   OH264594   4.041   2.506   4.816  0.2850  0.2557 -0.4676
14368TIP3    H164595   4.079   2.442   4.876 -0.7535 -0.8462 -0.9621
14368TIP3    H264596   4.116   2.556   4.784  1.0717 -0.4781  0.1808
14369TIP3   OH264597   1.563   5.817   3.967  0.8426 -0.2274 -0.5731
14369TIP3    H164598   1.558   5.877   3.892  0.1098 -0.8947 -1.0612
14369TIP3    H264599   1.623   5.748   3.938 -1.5594 -1.9845 -1.6490
14370TIP3   OH264600   0.026   2.518  16.493  0.0958 -0.0937  0.2796
14370TIP3    H164601   0.078   2.488  16.418 -0.5713  3.2374 -1.7148
14370TIP3    H264602   0.090   2.527  16.564  0.9483 -2.3109 -0.1256
14371TIP3   OH264603   6.249   2.814  13.800  0.2565 -0.2614  0.1229
14371TIP3    H164604   6.291   2.808  13.714  0.8426 -1.4802  0.4633
14371TIP3    H264605   6.224   2.906  13.808 -0.5978 -0.2822 -1.7085
14372TIP3   OH264606   6.611   1.541   5.942  0.3038 -0.9838 -0.6275
14372TIP3    H164607   6.697   1.532   5.984 -0.0257  0.0823  0.3344
14372TIP3    H264608   6.585   1.632   5.960 -0.8032 -1.1419 -1.3355
14373TIP3   OH264609   1.601   1.272  13.500 -0.0393  0.1331 -0.1519
14373TIP3    H164610   1.673   1.299  13.445  1.3698 -0.5376  1.2654
14373TIP3    H264611   1.534   1.339  13.488  1.7229  2.0654  0.2156
14374TIP3   OH264612   4.731   4.890  14.428  0.3264 -0.0493  0.4852
14374TIP3    H164613   4.798   4.955  14.404  0.5118 -0.6099 -0.5955
14374TIP3    H264614   4.743   4.820  14.364 -1.7837  0.1535 -0.1999
14375TIP3   OH264615   1.470   2.653   1.096  0.3437  0.3587  0.1361
14375TIP3    H164616   1.537   2.701   1.144  0.2175 -0.8119  1.5620
14375TIP3    H264617   1.404   2.631   1.162 -0.4005 -0.3429 -0.8044
14376TIP3   OH264618   4.827   4.855  12.841 -0.6045 -0.3765  0.2309
14376TIP3    H164619   4.790   4.841  12.754  1.5712 -0.6448 -0.7101
14376TIP3    H264620   4.792   4.784  12.894 -4.4766  1.5123  0.5315
14377TIP3   OH264621   1.486   6.468   3.598  0.3370 -0.1068 -0.2620
14377TIP3    H164622   1.481   6.376   3.621  2.4380 -0.2596 -0.2740
14377TIP3    H264623   1.444   6.474   3.512 -0.8945 -0.8139  0.2762
14378TIP3   OH264624   3.567   0.556   6.042 -0.2923  0.2600 -0.0173
14378TIP3    H164625   3.624   0.515   5.977 -1.0920 -0.8167 -0.0569
14378TIP3    H264626   3.627   0.585   6.111  0.5288  1.0953 -1.0320
14379TIP3   OH264627   6.037   0.250  15.212 -0.6246 -0.8798 -0.3065
14379TIP3    H164628   5.986   0.280  15.287  0.6036 -2.3587  1.2056
14379TIP3    H264629   6.127   0.246  15.245 -0.0775 -1.7633 -1.8123
14380TIP3   OH264630   2.573   2.598   2.223  0.0292 -0.2717 -0.9708
14380TIP3    H164631   2.482   2.567   2.223  0.1654 -0.9080  2.0533
14380TIP3    H264632   2.624   2.521   2.246  1.1828  0.5098 -0.8581
14381TIP3   OH264633   6.196   1.484  16.433  0.1994 -0.0192 -0.0881
14381TIP3    H164634   6.212   1.553  16.498 -0.4965 -0.7560  0.9146
14381TIP3    H264635   6.112   1.446  16.460 -0.0430 -0.4385 -1.3649
14382TIP3   OH264636   0.512   6.570  11.423  0.1442  0.2472 -0.2653
14382TIP3    H164637   0.438   6.611  11.468 -1.9021 -0.7868 -2.4444
14382TIP3    H264638   0.522   6.485  11.465 -0.6345 -0.0264 -0.6024
14383TIP3   OH264639   5.874   5.671  15.159 -0.1229  0.6311 -0.3708
14383TIP3    H164640   5.819   5.711  15.091  1.5055  1.2916 -1.3584
14383TIP3    H264641   5.952   5.726  15.161 -0.1326  0.6491  2.1015
14384TIP3   OH264642   4.233   1.640   1.056  0.2833  0.1282 -0.4635
14384TIP3    H164643   4.217   1.564   1.113  3.1763 -0.9359 -0.8956
14384TIP3    H264644   4.251   1.712   1.116  2.5703 -0.8089  0.0697
14385TIP3   OH264645   6.084   0.201  11.006  0.5361  0.2756 -0.1597
14385TIP3    H164646   6.120   0.234  10.923 -0.7046 -0.7953 -1.1679
14385TIP3    H264647   6.108   0.109  11.008 -0.8393 -0.1038 -0.1455
14386TIP3   OH264648   6.475   5.349  15.186  0.2175 -0.3002 -0.2364
14386TIP3    H164649   6.434   5.429  15.220 -0.9254  0.1251 -2.4416
14386TIP3    H264650   6.569   5.368  15.185  0.4047 -0.4937  2.8839
14387TIP3   OH264651   4.499   5.802  11.328  0.3153 -0.4022  0.0066
14387TIP3    H164652   4.449   5.721  11.337  1.4780 -1.1823 -0.3440
14387TIP3    H264653   4.503   5.817  11.233  2.4266 -1.4877 -0.1488
14388TIP3   OH264654   3.845   5.460   4.578 -0.2328 -0.1589 -0.6443
14388TIP3    H164655   3.897   5.383   4.555  0.0072  0.8446 -4.0230
14388TIP3    H264656   3.907   5.533   4.576 -0.9377  0.4757 -0.1106
14389TIP3   OH264657   3.226   2.672   0.099  0.3083  0.0744 -0.0943
14389TIP3    H164658   3.274   2.603   0.144  0.0572 -1.5775 -2.1729
14389TIP3    H264659   3.291   2.741   0.084  0.6648  0.1640  1.6594
14390TIP3   OH264660   5.785   5.156  11.346  0.1869 -0.1514 -0.2135
14390TIP3    H164661   5.772   5.085  11.409 -0.5788  0.6745  0.5917
14390TIP3    H264662   5.788   5.235  11.400  2.4527  0.3290 -0.9518
14391TIP3   OH264663   1.956   0.411  15.688  0.3556  0.3352  0.2377
14391TIP3    H164664   1.946   0.346  15.618 -0.1594 -1.3992  1.8547
14391TIP3    H264665   1.915   0.371  15.764  2.1465  1.5508  1.9303
14392TIP3   OH264666   4.258   1.839  12.112  0.1481  0.4393 -0.0648
14392TIP3    H164667   4.196   1.880  12.172 -1.1457 -0.1388 -0.9628
14392TIP3    H264668   4.217   1.756  12.088  1.1584  0.1520 -0.8796
14393TIP3   OH264669   4.960   6.796   1.150 -0.0308 -0.4126  0.6111
14393TIP3    H164670   4.953   6.889   1.126  0.6654 -0.7457 -0.9884
14393TIP3    H264671   5.054   6.780   1.158 -0.0822 -1.2055 -0.1578
14394TIP3   OH264672   4.116   0.645   1.511  0.1165 -0.5496  0.1215
14394TIP3    H164673   4.067   0.593   1.576  0.4046 -0.6681  0.2450
14394TIP3    H264674   4.048   0.691   1.462 -0.0668  1.5375  2.1459
14395TIP3   OH264675   2.323   6.067   0.076  0.1866 -0.1672 -0.0601
14395TIP3    H164676   2.300   5.999   0.140 -0.8504  0.1824 -0.0513
14395TIP3    H264677   2.418   6.074   0.083  0.6301 -3.0822 -1.5292
14396TIP3   OH264678   5.037   5.851  11.859  0.0350  0.3274  0.1452
14396TIP3    H164679   5.027   5.781  11.794 -0.6050 -0.1212  0.7228
14396TIP3    H264680   5.039   5.806  11.943 -0.7943  1.0320  0.5576
14397TIP3   OH264681   6.281   4.348  17.077 -0.3138  0.2650 -0.0687
14397TIP3    H164682   6.201   4.365  17.026  0.1926 -0.7487 -1.2653
14397TIP3    H264683   6.320   4.271  17.035  0.4218 -0.2830  1.5472
14398TIP3   OH264684   0.614   5.140   6.007  0.0581 -0.1756  0.1239
14398TIP3    H164685   0.573   5.175   6.086  0.6548  0.6824  0.0623
14398TIP3    H264686   0.589   5.047   6.006 -2.0032  0.3473 -0.0215
14399TIP3   OH264687   5.991   5.389  14.911 -0.6758  0.0644  0.2506
14399TIP3    H164688   6.016   5.352  14.826 -1.3441 -1.3424  0.6285
14399TIP3    H264689   5.925   5.327  14.945  0.5735 -0.1754  2.4040
14400TIP3   OH264690   0.269   1.382   0.333  0.6394 -0.5142  0.2376
14400TIP3    H164691   0.316   1.464   0.319  1.5456 -1.1069 -0.3231
14400TIP3    H264692   0.279   1.365   0.427 -0.3699  0.4755  0.5460
14401TIP3   OH264693   1.851   4.219   2.259  0.1607 -0.4829  0.1824
14401TIP3    H164694   1.763   4.249   2.237  1.3519  3.0120 -0.3704
14401TIP3    H264695   1.880   4.171   2.181 -1.4451 -2.4227  0.6899
14402TIP3   OH264696   6.115   3.476  15.005  0.1324 -0.1463  0.2707
14402TIP3    H164697   6.139   3.550  15.060  1.5512 -0.8935  0.7104
14402TIP3    H264698   6.019   3.479  15.001  0.1282  1.3176  0.7974
14403TIP3   OH264699   3.589   0.511  14.600  0.3093 -0.1244  0.1277
14403TIP3    H164700   3.643   0.581  14.562 -0.0591 -0.0145 -0.1990
14403TIP3    H264701   3.643   0.433  14.594  0.3722 -0.0483 -0.3494
14404TIP3   OH264702   5.953   0.608  12.484  0.1015  0.2500 -0.0586
14404TIP3    H164703   5.955   0.526  12.435  2.0010  1.0139 -1.3611
14404TIP3    H264704   5.887   0.661  12.439  0.2142  0.1145 -0.3889
14405TIP3   OH264705   3.644   1.083   4.362 -0.4732 -0.2032 -0.1976
14405TIP3    H164706   3.618   1.004   4.408 -1.3953 -0.9592 -1.9104
14405TIP3    H264707   3.598   1.154   4.406  0.8677 -0.4772  1.7623
14406TIP3   OH264708   6.468   2.773   3.167  0.2065  0.0534  0.4470
14406TIP3    H164709   6.469   2.825   3.087 -0.4677  0.2254  0.5483
14406TIP3    H264710   6.446   2.684   3.138  2.0127 -0.3545  0.1866
14407TIP3   OH264711   4.424   2.250   2.842  0.3442  0.4503  0.3270
14407TIP3    H164712   4.428   2.282   2.932  0.1783 -0.3426  0.6239
14407TIP3    H264713   4.353   2.299   2.802  1.2140  1.7045  0.2504
14408TIP3   OH264714   3.971   0.086  12.020 -0.0784  0.4148  0.3609
14408TIP3    H164715   3.947   0.162  12.072  0.4016 -0.0394  1.2857
14408TIP3    H264716   3.901   0.022  12.037  0.6760 -0.1669  1.4368
14409TIP3   OH264717   5.983   5.222   2.273  0.2341  0.2200 -0.4025
14409TIP3    H164718   5.963   5.281   2.346  1.3589 -1.4280  1.3695
14409TIP3    H264719   5.945   5.138   2.300  2.0660 -0.8347 -0.8865
14410TIP3   OH264720   1.115   1.030   6.188  0.1535 -0.2346 -0.6638
14410TIP3    H164721   1.115   0.948   6.238  0.3135 -0.3163 -0.7969
14410TIP3    H264722   1.024   1.059   6.191  0.3475  0.3125  0.5671
14411TIP3   OH264723   3.795   3.542   3.631  0.5156 -0.0239  0.8476
14411TIP3    H164724   3.808   3.555   3.538  0.0077 -0.9144  0.6371
14411TIP3    H264725   3.737   3.613   3.658  1.0367  0.5077  0.5926
14412TIP3   OH264726   4.117   3.169   4.648  0.2767 -0.6165 -0.0010
14412TIP3    H164727   4.039   3.159   4.595  0.2098 -0.1342  0.0020
14412TIP3    H264728   4.095   3.238   4.710  0.8451 -0.1903 -0.2665
14413TIP3   OH264729   4.079   6.672   6.338 -0.0908 -0.1451 -0.2986
14413TIP3    H164730   4.091   6.584   6.373  2.2856 -1.6304 -4.2102
14413TIP3    H264731   4.139   6.726   6.389  0.7401 -1.4626  0.1777
14414TIP3   OH264732   6.398   2.439   4.473  0.0472 -0.4016 -0.0065
14414TIP3    H164733   6.399   2.363   4.415  0.9508  0.5888 -1.3722
14414TIP3    H264734   6.487   2.473   4.469 -0.4857  1.0883  0.0567
14415TIP3   OH264735   4.825   3.345  13.242 -1.1476  0.0116 -0.1170
14415TIP3    H164736   4.860   3.281  13.303  0.8271 -0.7280 -1.8874
14415TIP3    H264737   4.769   3.401  13.295 -1.0013 -1.6936  1.9644
14416TIP3   OH264738   0.001   0.311  11.403 -0.2955  0.1074 -0.4438
14416TIP3    H164739   0.053   0.278  11.330  0.1903  2.9277 -1.4887
14416TIP3    H264740  -0.079   0.345  11.363 -0.6041  0.5452  0.5159
14417TIP3   OH264741   0.472   1.199   1.033 -0.6254  0.2742 -0.2758
14417TIP3    H164742   0.547   1.224   1.087 -0.0183 -0.9070 -0.5455
14417TIP3    H264743   0.396   1.220   1.087 -0.0947  0.9654  0.2281
14418TIP3   OH264744   3.663   1.355  11.067 -0.4166  0.0789 -0.0708
14418TIP3    H164745   3.601   1.283  11.060  1.0948 -1.1329 -2.0608
14418TIP3    H264746   3.625   1.425  11.014  0.6873 -1.3355 -2.9136
14419TIP3   OH264747   0.447   6.692  12.805  0.1424  0.8288  0.1605
14419TIP3    H164748   0.447   6.707  12.899 -1.1139  0.0510  0.3028
14419TIP3    H264749   0.392   6.614  12.793  1.5719 -0.0448 -1.0674
14420TIP3   OH264750   1.166   1.020  16.011  0.2596  0.5582 -0.7633
14420TIP3    H164751   1.108   0.948  16.037  0.0737  0.7273 -0.7149
14420TIP3    H264752   1.235   0.977  15.959  0.5553  0.2349 -0.1188
14421TIP3   OH264753   3.719   3.059  15.465  0.3217  0.0098 -0.6038
14421TIP3    H164754   3.777   3.077  15.391 -0.1888  1.6412 -0.6326
14421TIP3    H264755   3.641   3.113  15.450 -0.5062 -0.8730  0.2877
14422TIP3   OH264756   0.561   5.805  13.785 -0.0370 -0.3705  0.3332
14422TIP3    H164757   0.644   5.815  13.739 -0.2726  2.1220  0.3214
14422TIP3    H264758   0.501   5.771  13.719  0.1624  1.1012 -0.6534
14423TIP3   OH264759   4.071   3.529   3.672  0.4494 -0.2166 -0.2943
14423TIP3    H164760   3.980   3.511   3.697 -0.2725  0.3120 -2.3035
14423TIP3    H264761   4.083   3.479   3.592  1.9750 -0.3193 -0.0152
14424TIP3   OH264762   3.613   3.887  15.426 -0.4373  0.0797  0.0360
14424TIP3    H164763   3.653   3.832  15.358  0.0560  0.8335 -0.3000
14424TIP3    H264764   3.670   3.877  15.502  0.1416  0.7880 -0.2959
14425TIP3   OH264765   4.977   6.043   2.030  0.6610 -0.0676  0.2586
14425TIP3    H164766   5.064   6.081   2.022  0.6370 -0.0632  0.0092
14425TIP3    H264767   4.987   5.953   2.000  0.2892  0.3357 -1.1597
14426TIP3   OH264768   1.900   1.340  14.605  0.1395 -0.8125  0.2167
14426TIP3    H164769   1.823   1.356  14.550 -1.1577  1.1197  2.4386
14426TIP3    H264770   1.974   1.348  14.544 -1.2783 -0.6815 -1.5869
14427TIP3   OH264771   1.402   3.455  16.917 -0.1542  0.0146 -0.1879
14427TIP3    H164772   1.468   3.423  16.855  0.9697 -1.4675  1.6566
14427TIP3    H264773   1.386   3.381  16.976 -3.0831  0.5165 -0.1952
14428TIP3   OH264774   3.372   6.553   5.588  0.1707  0.1056 -0.2284
14428TIP3    H164775   3.332   6.475   5.549  0.1874 -0.0167 -0.0019
14428TIP3    H264776   3.332   6.626   5.542  0.6352 -0.0574 -0.8971
14429TIP3   OH264777   2.025   4.242   4.778 -0.0426  0.2894 -0.2754
14429TIP3    H164778   2.115   4.231   4.809  0.2561  1.4159 -0.6907
14429TIP3    H264779   1.977   4.168   4.816  0.4730  1.1301  2.1844
14430TIP3   OH264780   0.257   5.753   2.678 -0.1084  0.0664  0.0961
14430TIP3    H164781   0.331   5.779   2.732  0.8652  1.4979 -1.8238
14430TIP3    H264782   0.188   5.733   2.741  1.3826  0.2591  1.8955
14431TIP3   OH264783   5.780   0.002  11.898  0.0653  0.5416  0.6631
14431TIP3    H164784   5.767   0.024  11.806  2.8582  0.8324  0.2470
14431TIP3    H264785   5.823  -0.084  11.896 -2.6340 -0.9535  1.8890
14432TIP3   OH264786   2.243   5.466   0.798 -0.4989  0.2030  0.2286
14432TIP3    H164787   2.226   5.535   0.864  0.6919  0.2459  0.5135
14432TIP3    H264788   2.288   5.398   0.847  1.3981  0.7060 -0.7482
14433TIP3   OH264789   5.315   5.624  14.834 -0.4590  0.7150 -0.4249
14433TIP3    H164790   5.408   5.623  14.853 -0.6039  1.4227  0.3734
14433TIP3    H264791   5.272   5.618  14.920 -1.1812 -1.9240 -0.8943
14434TIP3   OH264792   2.155   1.043   0.993 -0.1105  0.3027 -0.5444
14434TIP3    H164793   2.082   1.081   1.042  0.0378 -0.6144  0.4166
14434TIP3    H264794   2.177   1.110   0.928 -0.7495  1.2693  0.2049
14435TIP3   OH264795   3.073   6.026   2.279  0.0673 -0.6289  0.5551
14435TIP3    H164796   3.133   5.964   2.320  0.4364 -1.1485 -0.7117
14435TIP3    H264797   3.087   6.014   2.185  1.3148  2.4816  0.2179
14436TIP3   OH264798   4.683   1.737  14.886  0.3037 -0.2402 -0.0532
14436TIP3    H164799   4.591   1.735  14.860 -0.2852  2.9369  1.3156
14436TIP3    H264800   4.714   1.649  14.868 -2.6675 -1.1199 -1.6792
14437TIP3   OH264801   5.061   1.197   0.056  0.4881  0.2286  0.1505
14437TIP3    H164802   5.071   1.288   0.084  1.1489  0.4358 -0.7110
14437TIP3    H264803   5.149   1.169   0.032  0.0091  0.0532 -1.6022
14438TIP3   OH264804   5.369   2.600  13.731  0.3559  0.2697 -0.0743
14438TIP3    H164805   5.287   2.631  13.769  0.1041 -1.2292  0.6965
14438TIP3    H264806   5.346   2.517  13.690  1.6519 -0.6526  0.9877
14439TIP3   OH264807   1.340   3.593   5.829  0.2955 -0.6309 -0.5283
14439TIP3    H164808   1.393   3.620   5.904  0.7113  1.1646 -1.4068
14439TIP3    H264809   1.402   3.552   5.769  0.2542 -0.6832 -0.5353
14440TIP3   OH264810   2.810   2.224   1.412 -0.2863 -0.1944 -0.4173
14440TIP3    H164811   2.848   2.307   1.441 -0.4305 -0.3888  0.3726
14440TIP3    H264812   2.840   2.213   1.322  2.2798 -0.7528  0.4261
14441TIP3   OH264813   3.232   3.641   1.380  0.0033 -0.5710  0.3485
14441TIP3    H164814   3.270   3.555   1.366  1.0693  0.0481 -0.7512
14441TIP3    H264815   3.271   3.672   1.462 -0.1042 -0.9856  0.5560
14442TIP3   OH264816   3.518   1.392   2.583  0.3109 -0.3872 -0.0671
14442TIP3    H164817   3.568   1.470   2.606 -0.0241 -0.5129  1.1648
14442TIP3    H264818   3.575   1.342   2.525  0.1682  1.1971 -1.6333
14443TIP3   OH264819   1.708   3.217   1.434 -0.1438  0.2607 -0.5000
14443TIP3    H164820   1.624   3.178   1.459  0.1587 -0.1786 -0.1598
14443TIP3    H264821   1.684   3.290   1.377 -0.6703 -1.1239 -2.1439
14444TIP3   OH264822   0.547   2.649  16.812 -0.1152 -0.1543 -0.3458
14444TIP3    H164823   0.632   2.694  16.815 -0.1337 -0.1639  0.2940
14444TIP3    H264824   0.490   2.710  16.764  0.8839 -1.2164 -3.1275
14445TIP3   OH264825   3.757   0.546  16.838 -0.4109  0.8630 -0.4859
14445TIP3    H164826   3.776   0.627  16.789  0.9361  2.1623  1.9643
14445TIP3    H264827   3.702   0.575  16.911  1.2796 -0.0789  1.2726
14446TIP3   OH264828   3.629   5.912  14.525 -0.0361  0.3183 -0.3031
14446TIP3    H164829   3.570   5.915  14.600 -1.0066  1.1248 -1.0772
14446TIP3    H264830   3.717   5.912  14.563 -0.4343  3.1612  0.8232
14447TIP3   OH264831   6.459   3.603   6.196  0.2360 -0.1101  0.0401
14447TIP3    H164832   6.538   3.657   6.191 -0.5768  1.0019 -1.3486
14447TIP3    H264833   6.390   3.657   6.158 -0.6056 -2.1575 -1.4985
14448TIP3   OH264834   1.165   1.200   2.327  0.1132 -0.5790 -0.3991
14448TIP3    H164835   1.213   1.184   2.246  0.6459  0.5590 -0.3225
14448TIP3    H264836   1.190   1.288   2.353 -1.3466 -0.2996  0.1245
14449TIP3   OH264837   1.315   2.277   1.193 -0.3929 -0.1924 -0.1873
14449TIP3    H164838   1.368   2.198   1.177  0.4015  0.8524 -3.4988
14449TIP3    H264839   1.379   2.343   1.219 -0.6539  0.0615 -0.1867
14450TIP3   OH264840   3.700   5.598   5.014 -0.0051  0.3611 -0.5806
14450TIP3    H164841   3.759   5.572   4.943 -0.2303 -1.3885 -0.1561
14450TIP3    H264842   3.727   5.545   5.089 -3.5977 -2.4368 -0.9949
14451TIP3   OH264843   1.002   1.601   5.361  0.1345 -0.2759 -0.1428
14451TIP3    H164844   0.966   1.524   5.318 -0.1056  1.1032 -2.5854
14451TIP3    H264845   0.934   1.627   5.424 -0.9650 -0.5797 -1.1698
14452TIP3   OH264846   5.548   1.010  14.185 -0.2740 -0.0182 -0.4806
14452TIP3    H164847   5.575   0.920  14.200 -1.5422 -0.4585 -0.7759
14452TIP3    H264848   5.525   1.015  14.093 -2.4965 -0.0548  0.0089
14453TIP3   OH264849   6.812   5.276  11.953 -0.6121 -0.1248  0.1403
14453TIP3    H164850   6.863   5.197  11.967  0.6495  0.3665 -1.4658
14453TIP3    H264851   6.747   5.253  11.887 -0.7498 -0.0263  0.2389
14454TIP3   OH264852   1.442   3.674  15.735  0.0406 -0.3908 -0.0498
14454TIP3    H164853   1.508   3.604  15.740  2.4895  1.7072 -0.7461
14454TIP3    H264854   1.420   3.679  15.642  0.5011  0.2538 -0.1333
14455TIP3   OH264855   6.213   5.969  16.046  0.2626  0.2546 -0.1846
14455TIP3    H164856   6.198   6.060  16.019  2.3326  0.6619 -0.0730
14455TIP3    H264857   6.307   5.962  16.059  0.0321 -1.6329  0.8871
14456TIP3   OH264858   5.589   3.123   0.970 -0.0164  0.0768  0.5344
14456TIP3    H164859   5.652   3.190   0.943 -1.5598  1.0110 -0.9488
14456TIP3    H264860   5.632   3.040   0.949  0.8228  0.6863 -0.2520
14457TIP3   OH264861   2.051   6.548   2.681  0.2363 -0.1351 -0.3174
14457TIP3    H164862   2.065   6.546   2.586  0.2216  1.3975 -0.3621
14457TIP3    H264863   2.116   6.487   2.715  1.6852  0.8855 -1.1502
14458TIP3   OH264864   0.424   6.649  14.666 -0.0466  0.3388 -0.1117
14458TIP3    H164865   0.336   6.648  14.627 -0.2587 -0.6590  0.3733
14458TIP3    H264866   0.411   6.689  14.752 -0.1566 -0.4305  0.2373
14459TIP3   OH264867   3.742   0.060  13.594 -0.4812 -0.3035 -0.3400
14459TIP3    H164868   3.664   0.072  13.539 -1.5927 -0.3378  1.1425
14459TIP3    H264869   3.777   0.148  13.605 -1.0420 -0.1083 -0.0364
14460TIP3   OH264870   1.120   0.218   1.234 -0.3059  0.2863  0.1232
14460TIP3    H164871   1.176   0.256   1.302 -0.4798  0.7882 -0.0133
14460TIP3    H264872   1.091   0.135   1.271  1.9357 -0.8534 -0.4643
14461TIP3   OH264873   3.451   3.137  11.168 -0.3721 -0.5093  0.5588
14461TIP3    H164874   3.405   3.197  11.227 -1.8335 -0.6411 -0.3891
14461TIP3    H264875   3.422   3.050  11.197 -1.0911 -0.5756 -0.2978
14462TIP3   OH264876   5.308   2.462   4.436  0.3250 -0.2061  0.1188
14462TIP3    H164877   5.301   2.545   4.482 -2.2240  0.8658 -1.9373
14462TIP3    H264878   5.387   2.470   4.382 -0.2304  1.1401 -0.5121
14463TIP3   OH264879   3.712   2.379   0.657 -0.3931  0.1261 -0.1719
14463TIP3    H164880   3.656   2.441   0.703 -0.7622 -0.3047 -0.0344
14463TIP3    H264881   3.756   2.330   0.726 -0.2774  0.0814 -0.2781
14464TIP3   OH264882   3.995   2.858   3.382  0.2425  0.1058 -0.0664
14464TIP3    H164883   3.992   2.944   3.423  0.5859  0.4950 -0.8214
14464TIP3    H264884   4.002   2.796   3.454 -0.9676  0.6471  0.5306
14465TIP3   OH264885   4.617   4.657   4.227 -0.0640 -0.4788  0.0516
14465TIP3    H164886   4.536   4.683   4.183 -0.8572 -0.4335  1.4667
14465TIP3    H264887   4.599   4.569   4.259  1.0026 -1.0544 -0.8841
14466TIP3   OH264888   1.621   1.702   0.432 -0.5170  0.0960  0.0144
14466TIP3    H164889   1.705   1.669   0.399 -0.0975  1.5877 -0.5009
14466TIP3    H264890   1.565   1.625   0.436  0.4864 -0.7162 -0.8985
14467TIP3   OH264891   6.554   1.781   6.450 -0.0341  0.0942 -0.1686
14467TIP3    H164892   6.630   1.774   6.392  1.0473  3.1892  0.6788
14467TIP3    H264893   6.483   1.810   6.392  0.6099  1.4987 -0.3041
14468TIP3   OH264894   0.496   0.509   1.886 -0.2144  0.2778 -0.6963
14468TIP3    H164895   0.441   0.430   1.881 -0.4418  0.4879 -2.0356
14468TIP3    H264896   0.575   0.485   1.838 -0.0423  0.6741 -0.6076
14469TIP3   OH264897   1.053   3.427  14.536 -0.2616  0.4461 -0.1154
14469TIP3    H164898   1.055   3.404  14.444  0.8679 -0.4649  0.1160
14469TIP3    H264899   1.013   3.351  14.579  0.1770  0.4224  0.2578
14470TIP3   OH264900   3.638   6.579   3.489  0.4526  0.5194 -0.0925
14470TIP3    H164901   3.643   6.646   3.557  1.2699 -0.6077  1.0053
14470TIP3    H264902   3.728   6.569   3.459  0.5596 -0.9516  0.6502
14471TIP3   OH264903   2.618   4.119   2.925  0.1760 -0.6372 -0.4106
14471TIP3    H164904   2.553   4.052   2.947 -0.1004 -0.6446 -1.2205
14471TIP3    H264905   2.688   4.070   2.880  0.4566 -0.5360 -0.0868
14472TIP3   OH264906   5.860   0.796   4.784 -0.6791 -0.2303  0.1410
14472TIP3    H164907   5.862   0.845   4.866 -0.8416 -0.8073  0.4950
14472TIP3    H264908   5.793   0.729   4.797 -0.8706 -0.1873 -0.5488
14473TIP3   OH264909   2.550   3.802   1.479 -0.1784 -0.1205 -0.0317
14473TIP3    H164910   2.580   3.872   1.420  0.9965 -1.1263 -0.6758
14473TIP3    H264911   2.564   3.722   1.429 -0.9839 -0.8674  0.9129
14474TIP3   OH264912   5.038   5.363  11.289 -0.3668 -0.2193  0.0572
14474TIP3    H164913   5.090   5.291  11.254 -0.6530 -0.3336 -0.1479
14474TIP3    H264914   5.041   5.430  11.221  2.5883  1.3532  1.5433
14475TIP3   OH264915   1.010   5.722   6.028  0.0874  0.1628 -0.0284
14475TIP3    H164916   0.990   5.650   6.088 -0.8702  0.5070  0.0818
14475TIP3    H264917   1.034   5.795   6.085 -1.3956  0.6672 -0.0054
14476TIP3   OH264918   3.608   4.252  11.634 -0.0614  0.0881  0.4202
14476TIP3    H164919   3.670   4.290  11.696  0.4170  0.6570 -0.3773
14476TIP3    H264920   3.664   4.209  11.569 -0.5828 -1.7681  1.1457
14477TIP3   OH264921   2.390   3.660   5.697 -0.0918  0.0054  0.0625
14477TIP3    H164922   2.484   3.664   5.683 -0.1694 -0.1935 -0.5396
14477TIP3    H264923   2.369   3.741   5.744  0.5005 -0.3589  0.9728
14478TIP3   OH264924   4.315   6.237   5.118 -0.1921 -0.1821 -0.3541
14478TIP3    H164925   4.350   6.153   5.087  1.4801 -0.1576  1.3116
14478TIP3    H264926   4.353   6.248   5.205 -0.7091  2.1281 -0.3733
14479TIP3   OH264927   1.510   1.610   4.144 -0.3952 -0.4145  0.2630
14479TIP3    H164928   1.546   1.698   4.156  0.3568 -0.8003  0.9176
14479TIP3    H264929   1.587   1.554   4.137 -0.8710 -1.0017 -0.3761
14480TIP3   OH264930   3.251   2.810  12.844 -0.0535  0.7382  0.2151
14480TIP3    H164931   3.321   2.839  12.785  1.0815 -0.8468  0.7091
14480TIP3    H264932   3.279   2.841  12.931  0.1364 -0.0413  0.4381
14481TIP3   OH264933   1.745   0.403   2.523  0.5504  0.3066 -0.2925
14481TIP3    H164934   1.676   0.469   2.520  0.2594 -0.0207 -1.2090
14481TIP3    H264935   1.826   0.453   2.518  0.3183  0.5631 -1.7680
14482TIP3   OH264936   2.290   2.206  14.278  0.0071 -0.3700 -0.5669
14482TIP3    H164937   2.307   2.136  14.214  1.1209 -1.5870  1.0037
14482TIP3    H264938   2.288   2.286  14.225  0.5950 -1.3610 -2.1729
14483TIP3   OH264939   3.143   2.113   0.585  0.0100 -0.7992  0.2882
14483TIP3    H164940   3.135   2.168   0.507  0.5278 -0.8524  0.1886
14483TIP3    H264941   3.193   2.037   0.554  0.9686 -0.4232  0.8655
14484TIP3   OH264942   6.532   4.195   2.163 -1.0772  0.2989 -0.6945
14484TIP3    H164943   6.516   4.256   2.091  0.9154 -2.2801 -3.5901
14484TIP3    H264944   6.448   4.153   2.178 -1.6320  1.1757 -1.2260
14485TIP3   OH264945   6.115   3.162  13.210  0.0300  0.3994  0.6667
14485TIP3    H164946   6.139   3.082  13.162 -0.4583  0.0352  1.0086
14485TIP3    H264947   6.038   3.195  13.162  0.5921  1.0023  0.1681
14486TIP3   OH264948   6.465   1.132  10.417  0.0975 -0.3114 -0.0115
14486TIP3    H164949   6.414   1.204  10.453  0.4472  0.1746 -0.4659
14486TIP3    H264950   6.435   1.125  10.326 -0.3812 -1.1522  0.2096
14487TIP3   OH264951   3.982   4.702  16.477 -0.0973  0.2673  0.2297
14487TIP3    H164952   3.925   4.778  16.486  0.2519  0.5262  0.3032
14487TIP3    H264953   3.999   4.673  16.566  0.8650  0.9450  0.2955
14488TIP3   OH264954   4.437   0.177  12.677 -0.0736  0.0096  0.2220
14488TIP3    H164955   4.425   0.222  12.761 -0.9786 -1.4746  0.9180
14488TIP3    H264956   4.351   0.182  12.634  0.6583  1.8010 -1.2217
14489TIP3   OH264957   5.256   5.544  13.948  0.1905  0.4272 -0.6524
14489TIP3    H164958   5.271   5.630  13.987 -0.3415  0.4779 -0.5430
14489TIP3    H264959   5.244   5.562  13.855  2.8757  0.1501 -1.1143
14490TIP3   OH264960   0.506   3.935  15.111 -0.3552 -0.4803 -0.2798
14490TIP3    H164961   0.556   4.001  15.064 -0.1307  0.2870  0.9964
14490TIP3    H264962   0.487   3.975  15.196  0.9144 -2.5360  1.0440
14491TIP3   OH264963   5.759   4.449   6.182  0.2210  0.0014  0.3646
14491TIP3    H164964   5.689   4.514   6.191 -2.0358 -2.3533  0.9985
14491TIP3    H264965   5.735   4.400   6.103 -0.6280 -2.7407  2.1925
14492TIP3   OH264966   5.603   0.608   0.221  0.0249 -0.8573 -0.8865
14492TIP3    H164967   5.566   0.524   0.246 -1.8742 -0.0241 -0.6609
14492TIP3    H264968   5.526   0.664   0.206  1.1403  1.5629  1.4897
14493TIP3   OH264969   0.904   4.779   2.673 -0.1885  0.4128  0.3028
14493TIP3    H164970   0.927   4.793   2.765  0.6436 -4.5598  1.0905
14493TIP3    H264971   0.981   4.811   2.625  1.9558 -2.0239  1.8564
14494TIP3   OH264972   4.059   5.310  11.843  0.2686  0.0862  0.1575
14494TIP3    H164973   3.963   5.307  11.834  0.3778 -0.4046 -1.0335
14494TIP3    H264974   4.091   5.309  11.753  1.4120 -0.3842  0.5555
14495TIP3   OH264975   6.003   6.534  13.851  0.2348 -0.3845  0.3114
14495TIP3    H164976   5.933   6.565  13.794  0.2830 -1.2846 -0.2666
14495TIP3    H264977   6.083   6.547  13.800  0.5690  1.1029  1.1611
14496TIP3   OH264978   6.192   0.463   5.110  0.0089 -0.1690  0.7001
14496TIP3    H164979   6.203   0.394   5.044 -0.1511  0.3887  0.0762
14496TIP3    H264980   6.271   0.459   5.163  0.9228  0.4809 -0.5842
14497TIP3   OH264981   6.477   4.906   5.894 -0.5855  0.3927  0.1034
14497TIP3    H164982   6.429   4.988   5.883 -1.8007 -0.3084 -0.0451
14497TIP3    H264983   6.434   4.864   5.969  0.1958  0.0171  0.3426
14498TIP3   OH264984   4.119   2.277   3.511 -0.0600  0.0979  0.6701
14498TIP3    H164985   4.040   2.321   3.480 -0.9736 -0.0548  2.6362
14498TIP3    H264986   4.094   2.185   3.520  1.3060 -0.5848 -1.6646
14499TIP3   OH264987   1.026   4.095  11.993  0.6018  0.0143  0.6414
14499TIP3    H164988   0.933   4.073  12.001  0.5072 -0.2108 -0.8447
14499TIP3    H264989   1.067   4.018  11.955  1.6382 -0.3228  2.3427
14500TIP3   OH264990   3.235   1.582  15.434 -0.4263 -0.1478  0.2066
14500TIP3    H164991   3.141   1.573  15.421 -0.8209  2.8065  0.3067
14500TIP3    H264992   3.245   1.601  15.528  0.0875  0.8507 -0.0297
14501TIP3   OH264993   4.761   6.579  13.677  0.2843 -0.0329 -0.3271
14501TIP3    H164994   4.739   6.511  13.614 -0.4075 -1.3182  1.2442
14501TIP3    H264995   4.855   6.593  13.666  0.2574 -0.5711 -1.3090
14502TIP3   OH264996   3.280   6.759   0.019 -0.4067 -0.5031 -0.2041
14502TIP3    H164997   3.241   6.847   0.016  1.1815  0.2334 -0.2267
14502TIP3    H264998   3.353   6.768   0.080  0.6535 -1.4305 -1.3024
14503TIP3   OH264999   1.398   4.072  14.439  0.4749  0.3379 -0.1413
14503TIP3    H165000   1.340   4.017  14.386 -1.5069  0.0990  2.1045
14503TIP3    H265001   1.483   4.064  14.397 -0.8598 -0.1191 -3.0076
14504TIP3   OH265002   1.095   0.922   5.599 -0.3267  0.5734 -0.4437
14504TIP3    H165003   1.098   1.005   5.553  0.4370  0.3829 -0.7587
14504TIP3    H265004   1.140   0.938   5.682 -1.1521  0.7551 -0.0245
14505TIP3   OH265005   0.519   3.459   4.240  0.1288  0.0937 -0.6590
14505TIP3    H165006   0.565   3.539   4.213  0.2828 -0.1374 -1.0972
14505TIP3    H265007   0.580   3.388   4.218  0.0083 -0.1416 -0.2374
14506TIP3   OH265008   3.914   3.412   2.436 -0.0000 -0.2743  0.0137
14506TIP3    H165009   3.917   3.318   2.454 -0.1795 -0.3690 -0.4335
14506TIP3    H265010   3.984   3.450   2.489  0.6843 -0.7770 -0.5290
14507TIP3   OH265011   2.216   2.683  15.392  0.0864 -0.4246  0.0220
14507TIP3    H165012   2.134   2.714  15.354 -0.9278 -0.6946  1.8366
14507TIP3    H265013   2.189   2.642  15.475  2.0669 -0.4730  0.6913
14508TIP3   OH265014   2.247   3.198   5.354 -0.0010  0.4645 -0.0233
14508TIP3    H165015   2.294   3.114   5.358 -0.9572 -0.1486 -1.1989
14508TIP3    H265016   2.164   3.180   5.398  0.5048  1.3401  1.3743
14509TIP3   OH265017   0.221   0.306  13.306  0.2600 -0.4584 -0.0719
14509TIP3    H165018   0.250   0.252  13.380 -0.8160 -0.2254  0.5421
14509TIP3    H265019   0.188   0.386  13.346 -0.0943 -0.2173 -0.8305
14510TIP3   OH265020   6.607   4.004   4.743 -0.3822  0.3673 -0.3894
14510TIP3    H165021   6.633   3.914   4.764 -0.4027  0.6115  0.7806
14510TIP3    H265022   6.593   4.045   4.829  0.5265  1.7529 -0.8630
14511TIP3   OH265023   1.278   3.083   5.441  0.0255  0.4547  0.4480
14511TIP3    H165024   1.186   3.060   5.434  0.4199 -0.6443 -2.7551
14511TIP3    H265025   1.283   3.175   5.415  0.0036 -0.0982 -1.6838
14512TIP3   OH265026   0.355   3.829   3.667  0.5506 -0.2481  0.0777
14512TIP3    H165027   0.336   3.812   3.575 -0.0628 -0.1267  0.1776
14512TIP3    H265028   0.285   3.887   3.696 -0.8745 -2.3939  1.3017
14513TIP3   OH265029   6.022   0.393  13.318 -0.2653 -0.1911 -0.5783
14513TIP3    H165030   5.973   0.376  13.398  0.2512  0.1937 -0.1730
14513TIP3    H265031   6.033   0.488  13.314 -2.2998  0.0412 -2.3429
14514TIP3   OH265032   3.461   3.306  15.130 -0.1468 -0.0284 -0.4472
14514TIP3    H165033   3.506   3.314  15.045  2.7409 -3.2146  0.5496
14514TIP3    H265034   3.394   3.240  15.115  0.0441 -0.2396 -0.3789
14515TIP3   OH265035   0.695   6.685  15.084 -0.2956  0.1018 -0.2911
14515TIP3    H165036   0.629   6.623  15.113 -0.1153 -0.5045 -1.1513
14515TIP3    H265037   0.718   6.734  15.163  0.6309 -1.9002  0.7550
14516TIP3   OH265038   5.904   4.429   5.350  0.1298 -0.0940 -0.1266
14516TIP3    H165039   5.896   4.508   5.403  1.2635 -1.0048  1.5093
14516TIP3    H265040   5.931   4.361   5.412 -1.5593 -1.9769 -1.3267
14517TIP3   OH265041   5.475   3.114   5.885 -0.3192 -0.1881  0.0274
14517TIP3    H165042   5.419   3.183   5.850  1.9540  1.1215 -1.3132
14517TIP3    H265043   5.563   3.152   5.883  0.6694 -2.1918  1.8224
14518TIP3   OH265044   2.344   5.564   5.771  0.3839  0.0996 -0.2778
14518TIP3    H165045   2.370   5.532   5.684 -0.2867  0.5820 -0.6679
14518TIP3    H265046   2.424   5.604   5.806  0.9871 -1.1610 -0.1564
14519TIP3   OH265047   1.382   5.762  11.192 -0.3556 -0.2344 -0.6258
14519TIP3    H165048   1.288   5.754  11.205 -0.4287 -0.2991 -1.1545
14519TIP3    H265049   1.391   5.834  11.129 -0.0951 -0.6178 -1.0370
14520TIP3   OH265050   1.011   4.068   1.783  0.1765  0.2418 -0.6498
14520TIP3    H165051   0.969   4.152   1.799  1.6160  1.9068 -4.3443
14520TIP3    H265052   1.053   4.045   1.865 -0.5339  2.9733  0.5778
14521TIP3   OH265053   5.682   6.519  15.722  0.0751 -0.0542 -0.3644
14521TIP3    H165054   5.694   6.457  15.794  2.4819 -1.0850 -1.5423
14521TIP3    H265055   5.711   6.603  15.758 -1.7383  0.1376  0.7693
14522TIP3   OH265056   1.511   4.499  11.320 -0.5233 -0.4731 -0.3441
14522TIP3    H165057   1.568   4.436  11.275 -1.0422 -0.5622 -0.8842
14522TIP3    H265058   1.430   4.498  11.269 -1.0436 -0.4143  0.4725
14523TIP3   OH265059   2.789   0.094   0.996 -0.4599  0.6215  0.0982
14523TIP3    H165060   2.721   0.157   0.970 -0.4307  1.0364  0.9784
14523TIP3    H265061   2.804   0.112   1.089 -0.8302 -1.0621  0.5101
14524TIP3   OH265062   0.099   6.779   0.959  0.8466 -0.1454  0.8146
14524TIP3    H165063   0.088   6.690   0.925  0.5590  0.3319 -0.3669
14524TIP3    H265064   0.023   6.827   0.926  0.8507  0.4770  1.6829
14525TIP3   OH265065   2.290   4.189   4.914 -0.1424  0.1026 -0.1217
14525TIP3    H165066   2.377   4.150   4.926  0.0410  0.3091 -0.7663
14525TIP3    H265067   2.284   4.255   4.983  0.3260  0.2837 -0.2543
14526TIP3   OH265068   4.789   4.657  14.657 -0.3798 -0.0934 -0.3889
14526TIP3    H165069   4.786   4.565  14.684  0.1827  0.4832  1.8226
14526TIP3    H265070   4.881   4.682  14.666 -0.7159  0.9941  0.1808
14527TIP3   OH265071   3.398   0.335  15.507 -0.2039 -0.2215  0.2190
14527TIP3    H165072   3.377   0.428  15.512  1.3449  0.1004  2.6685
14527TIP3    H265073   3.316   0.290  15.523 -0.3462  0.8477  2.9454
14528TIP3   OH265074   5.603   1.293   3.019 -0.6217  0.2225 -0.1314
14528TIP3    H165075   5.516   1.331   3.016 -1.1198 -0.5198  2.5235
14528TIP3    H265076   5.662   1.365   2.999 -1.7612  1.1702 -0.1668
14529TIP3   OH265077   6.281   3.767   3.446 -0.0895 -0.1983  0.2189
14529TIP3    H165078   6.209   3.819   3.411  2.1861  3.8413  0.9505
14529TIP3    H265079   6.255   3.748   3.536 -0.0350  1.8503  0.7147
14530TIP3   OH265080   1.720   2.639   0.631 -0.7227 -0.1235  1.3463
14530TIP3    H165081   1.741   2.674   0.718  1.7299  0.3423  0.6489
14530TIP3    H265082   1.706   2.717   0.577  0.1140 -0.3053  0.8401
14531TIP3   OH265083   1.215   3.109  10.830  0.2876  0.1128  0.4912
14531TIP3    H165084   1.257   3.126  10.746 -0.0625  0.2829  0.3453
14531TIP3    H265085   1.121   3.103  10.809 -0.0038  1.9346  1.1052
14532TIP3   OH265086   4.402   1.549  12.440 -0.3339 -0.6215 -0.1696
14532TIP3    H165087   4.331   1.489  12.462 -0.1558 -0.1405  1.9524
14532TIP3    H265088   4.363   1.636  12.446  0.1298 -0.4054 -0.2319
14533TIP3   OH265089   6.220   3.229   6.543 -0.2954 -0.4326 -0.2456
14533TIP3    H165090   6.159   3.191   6.480 -0.5759 -0.6412  0.1429
14533TIP3    H265091   6.276   3.287   6.492  0.1713 -1.4014 -0.8739
14534TIP3   OH265092   3.814   0.713   2.421 -0.0946  0.5038  0.8000
14534TIP3    H165093   3.826   0.644   2.355  0.5638 -0.5119  1.9311
14534TIP3    H265094   3.807   0.794   2.371 -3.3043 -0.5923 -0.7338
14535TIP3   OH265095   3.722   4.771   2.448 -0.4406 -0.6114 -0.4202
14535TIP3    H165096   3.713   4.774   2.543  0.1527  0.9745 -0.3860
14535TIP3    H265097   3.639   4.735   2.417 -1.7708  1.4301  0.5610
14536TIP3   OH265098   4.234   0.964  14.603 -0.1712 -0.4111  0.1881
14536TIP3    H165099   4.298   0.994  14.538 -0.2547 -0.7282 -0.0470
14536TIP3    H265100   4.226   1.036  14.665  0.0727 -0.1896 -0.0384
14537TIP3   OH265101   4.796   2.839   1.654  0.0169  0.1234  0.4495
14537TIP3    H165102   4.874   2.822   1.707 -0.5197  1.1815  1.6123
14537TIP3    H265103   4.792   2.765   1.594  0.7227 -1.0339  1.7766
14538TIP3   OH265104   3.782   2.566  14.251 -0.1785 -0.4474 -0.3480
14538TIP3    H165105   3.708   2.539  14.305 -0.2790 -0.6808 -0.6039
14538TIP3    H265106   3.857   2.565  14.311 -0.0772 -1.8037 -0.4749
14539TIP3   OH265107   2.632   6.114   1.527 -0.1447  0.2293 -0.0774
14539TIP3    H165108   2.637   6.170   1.605 -1.2766  1.0479 -0.5690
14539TIP3    H265109   2.659   6.171   1.455 -0.7826 -0.0208 -0.5161
14540TIP3   OH265110   2.721   0.017   4.199 -0.2144  0.4305 -0.3330
14540TIP3    H165111   2.749  -0.060   4.150  0.2104 -0.9603  1.9499
14540TIP3    H265112   2.651  -0.015   4.257  1.4758  1.1328  2.2757
14541TIP3   OH265113   5.620   1.006   0.754  0.3080  0.1209 -0.4502
14541TIP3    H165114   5.613   1.099   0.729  2.2048 -0.1868 -2.4375
14541TIP3    H265115   5.712   0.985   0.741  0.3473 -1.5776  1.9523
14542TIP3   OH265116   0.224   2.154   5.369 -0.4485 -0.0808 -0.0750
14542TIP3    H165117   0.134   2.185   5.358 -0.8808 -1.3114 -0.1724
14542TIP3    H265118   0.251   2.128   5.281 -0.7214 -1.5463  0.2433
14543TIP3   OH265119   2.804   1.525  15.736 -0.3944 -0.4820  0.5042
14543TIP3    H165120   2.753   1.446  15.753 -1.1843 -0.4792 -1.5387
14543TIP3    H265121   2.766   1.560  15.655  1.7012  0.5023 -0.1034
14544TIP3   OH265122   6.449   6.165   5.331  0.2237 -0.1885  0.2018
14544TIP3    H165123   6.415   6.077   5.316  0.9903 -0.2434 -1.5177
14544TIP3    H265124   6.394   6.221   5.277  2.5810 -0.2586 -2.5019
14545TIP3   OH265125   6.607   0.333   3.184  0.1557  0.0780 -0.2213
14545TIP3    H165126   6.579   0.401   3.122  0.4328 -1.1629 -1.7570
14545TIP3    H265127   6.527   0.288   3.208 -0.1363  1.3398  1.3697
14546TIP3   OH265128   6.177   0.642   1.323 -0.1896 -0.7364  0.3558
14546TIP3    H165129   6.134   0.624   1.407 -1.2966  1.6386  0.3692
14546TIP3    H265130   6.270   0.630   1.342 -0.3084  0.8144  2.2915
14547TIP3   OH265131   2.078   4.689   1.310 -0.1185 -0.2414 -1.0752
14547TIP3    H165132   2.096   4.615   1.367 -2.4683 -0.1600 -0.1590
14547TIP3    H265133   2.055   4.649   1.226  0.2170 -0.4607 -1.0683
14548TIP3   OH265134   0.725   6.791   0.008 -0.3643 -0.3231  0.0475
14548TIP3    H165135   0.812   6.774   0.044  0.3655  0.7845 -1.0945
14548TIP3    H265136   0.685   6.851   0.071  0.9907  1.7898 -0.9812
14549TIP3   OH265137   3.549   0.545  15.728 -0.1459  0.0491 -0.1242
14549TIP3    H165138   3.616   0.610  15.751  0.3496 -0.8921  1.1546
14549TIP3    H265139   3.598   0.470  15.695 -0.6594 -0.1423 -0.4762
14550TIP3   OH265140   1.550   4.422   6.237 -0.0946 -0.4198  0.3830
14550TIP3    H165141   1.503   4.473   6.171 -0.0079 -1.3234 -0.4027
14550TIP3    H265142   1.503   4.438   6.318 -0.6243  0.1717 -0.0342
14551TIP3   OH265143   3.488   2.811   5.088 -0.9174 -0.5143  0.4786
14551TIP3    H165144   3.420   2.763   5.041 -0.9526 -0.9449  0.9620
14551TIP3    H265145   3.562   2.751   5.093  0.3396  0.6695 -1.9182
14552TIP3   OH265146   6.499   1.413  12.876 -0.4656 -0.3567 -0.1863
14552TIP3    H165147   6.517   1.449  12.963 -0.5071 -2.9822  1.0325
14552TIP3    H265148   6.405   1.425  12.863 -0.5793 -0.5188  0.4525
14553TIP3   OH265149   6.604   5.310  13.824 -0.4771  0.1443 -0.2638
14553TIP3    H165150   6.518   5.314  13.783 -0.9526 -0.0709  0.6819
14553TIP3    H265151   6.631   5.402  13.833 -0.6098  0.2112 -0.5584
14554TIP3   OH265152   1.548   5.784   3.062  0.0469 -0.6981  0.6573
14554TIP3    H165153   1.580   5.870   3.035  0.4946 -0.8682  0.6410
14554TIP3    H265154   1.524   5.742   2.979 -1.0292 -0.2586  0.7315
14555TIP3   OH265155   5.067   2.472   0.503  0.0212  0.0647 -0.0506
14555TIP3    H165156   5.053   2.413   0.577  1.3388 -0.3934 -0.1350
14555TIP3    H265157   4.998   2.449   0.441 -0.4354 -0.3016  0.5772
14556TIP3   OH265158   6.162   0.873  10.984  0.5061 -0.0368  0.0736
14556TIP3    H165159   6.222   0.948  10.990  2.4771 -1.3972 -1.2500
14556TIP3    H265160   6.179   0.836  10.898 -1.1564 -1.4407  0.2904
14557TIP3   OH265161   3.390   3.567   2.752 -0.4909  0.5335 -0.0862
14557TIP3    H165162   3.400   3.482   2.795 -2.7477 -0.0196 -0.4933
14557TIP3    H265163   3.385   3.546   2.659 -0.7346  1.1532 -0.2179
14558TIP3   OH265164   5.993   0.731  11.706  0.0362  0.1514  0.1543
14558TIP3    H165165   5.959   0.642  11.695 -0.5021  0.2552  0.9115
14558TIP3    H265166   5.980   0.773  11.621  1.4621 -0.8633 -0.6178
14559TIP3   OH265167   5.733   6.649  10.851  0.2370  0.4445 -0.7167
14559TIP3    H165168   5.824   6.654  10.880 -0.0606  0.3792  0.2704
14559TIP3    H265169   5.711   6.556  10.857 -0.2024  0.5918  0.0516
14560TIP3   OH265170   0.124   1.776   2.254  0.3526  0.7125 -0.1686
14560TIP3    H165171   0.091   1.758   2.166 -1.6524 -0.8516  0.8373
14560TIP3    H265172   0.102   1.868   2.269  0.3512  0.8829 -1.1247
14561TIP3   OH265173   3.566   5.670   2.389  0.8194  0.1663  0.8334
14561TIP3    H165174   3.606   5.587   2.416 -0.1327 -1.2160 -1.7145
14561TIP3    H265175   3.624   5.704   2.322 -0.4013 -0.0787 -0.3885
14562TIP3   OH265176   0.798   1.081   0.555  0.5152 -0.2657 -0.4596
14562TIP3    H165177   0.857   1.005   0.555 -1.5024 -1.9190  0.1652
14562TIP3    H265178   0.713   1.045   0.528 -0.6896  1.6271  0.6403
14563TIP3   OH265179   2.155   6.779   2.140 -0.0168  0.0771 -0.1361
14563TIP3    H165180   2.142   6.819   2.054 -0.1389 -0.7831 -0.5293
14563TIP3    H265181   2.102   6.832   2.200 -2.8902 -1.3953 -1.1639
14564TIP3   OH265182   0.808   5.953   4.035 -0.1797  0.2292 -0.2100
14564TIP3    H165183   0.847   6.036   4.008  0.5068 -0.0632 -0.1393
14564TIP3    H265184   0.715   5.963   4.015  0.0559  0.6250 -1.1569
14565TIP3   OH265185   2.611   6.439  14.040  0.1414  0.1986  0.1874
14565TIP3    H165186   2.642   6.413  14.126  0.5041 -0.1547 -0.0434
14565TIP3    H265187   2.585   6.531  14.049  2.5119  0.9271  0.0735
14566TIP3   OH265188   1.726   0.432   1.680 -0.4954 -0.2663 -0.0711
14566TIP3    H165189   1.634   0.411   1.692 -0.7056  0.8130  0.3798
14566TIP3    H265190   1.743   0.418   1.587 -1.1122 -0.4850 -0.1496
14567TIP3   OH265191   0.529   4.898  10.981  0.6242  0.0160 -0.6467
14567TIP3    H165192   0.516   4.838  10.908  1.6816 -0.3046 -0.5933
14567TIP3    H265193   0.547   4.982  10.941 -1.7213  0.5432 -0.7211
14568TIP3   OH265194   0.348   0.964  13.431  0.3265 -0.1888 -0.8101
14568TIP3    H165195   0.421   1.015  13.465  0.6241 -0.9730 -0.2458
14568TIP3    H265196   0.388   0.903  13.369 -0.0399  0.3048 -1.5540
14569TIP3   OH265197   1.594   5.035   2.423  0.6192 -0.2256 -0.0821
14569TIP3    H165198   1.586   5.062   2.332  0.4053 -0.2525 -0.0716
14569TIP3    H265199   1.622   5.115   2.470  0.7183 -0.2097 -0.1676
14570TIP3   OH265200   3.719   4.670  12.410  0.4254 -0.2711  0.7419
14570TIP3    H165201   3.755   4.640  12.327  0.0172 -0.2887  0.5648
14570TIP3    H265202   3.710   4.765  12.399  0.8370 -0.2072  0.9522
14571TIP3   OH265203   3.554   0.427  12.567 -0.2982 -0.2163 -0.1984
14571TIP3    H165204   3.506   0.347  12.545  0.0855 -0.5654  0.2255
14571TIP3    H265205   3.492   0.477  12.621 -0.5273 -0.2358 -0.4395
14572TIP3   OH265206   3.735   5.008   5.851  0.4243 -0.1224  0.2779
14572TIP3    H165207   3.692   5.072   5.795 -0.2944 -0.7793  0.0546
14572TIP3    H265208   3.737   4.928   5.799  1.0729 -0.3525  0.6484
14573TIP3   OH265209   2.099   5.943  15.598  0.2268  0.0681 -0.7618
14573TIP3    H165210   2.185   5.985  15.588 -0.7298  2.0453 -1.0540
14573TIP3    H265211   2.052   5.997  15.661 -0.5422 -1.4979  0.0803
14574TIP3   OH265212   6.311   5.676  13.407  0.5116 -0.0076  0.2274
14574TIP3    H165213   6.372   5.606  13.430  0.2359  0.5760  3.1317
14574TIP3    H265214   6.324   5.689  13.313  3.2201 -1.4236  0.3047
14575TIP3   OH265215   3.325   6.602  12.673 -0.0549  0.0299 -0.1675
14575TIP3    H165216   3.419   6.619  12.670 -0.2070  1.5200  1.8023
14575TIP3    H265217   3.311   6.555  12.755 -1.1186  0.5479 -0.0315
14576TIP3   OH265218   4.964   5.995   1.685 -0.9319 -0.1715 -0.3916
14576TIP3    H165219   4.907   6.056   1.732  1.3299  1.5702  0.3398
14576TIP3    H265220   4.916   5.972   1.606 -4.5554 -2.5447  2.1966
14577TIP3   OH265221   4.590   4.572   4.581 -0.2345  0.6623 -0.1198
14577TIP3    H165222   4.629   4.644   4.630  0.0601  1.9425 -2.1113
14577TIP3    H265223   4.522   4.613   4.527 -1.7859 -0.9584  0.5168
14578TIP3   OH265224   0.911   1.296  14.051  0.1493  0.3793  0.4369
14578TIP3    H165225   0.879   1.285  13.962 -1.0284  0.1334  0.8682
14578TIP3    H265226   0.834   1.282  14.106  0.9638 -0.0078  1.5197
14579TIP3   OH265227   6.659   3.596   3.833 -0.6771 -0.0542  0.1605
14579TIP3    H165228   6.644   3.632   3.746 -0.9218 -0.0597  0.1998
14579TIP3    H265229   6.725   3.653   3.872 -2.3367  1.4731  0.8967
14580TIP3   OH265230   1.147   2.438  14.006  0.0692  0.0226 -0.4775
14580TIP3    H165231   1.242   2.433  13.991  0.0408  0.5259 -0.8134
14580TIP3    H265232   1.118   2.515  13.957 -0.4542  0.1025 -0.0522
14581TIP3   OH265233   1.508   0.640  11.896  0.8474  0.5522  0.1108
14581TIP3    H165234   1.437   0.689  11.854  1.7422  0.7173 -1.2668
14581TIP3    H265235   1.520   0.563  11.840  2.4516  1.0589 -0.2850
14582TIP3   OH265236   1.682   3.127  14.917  0.4556  0.0834  0.5463
14582TIP3    H165237   1.590   3.131  14.889  0.6620 -2.5439 -0.8322
14582TIP3    H265238   1.720   3.059  14.862  2.3880 -1.3585  3.4376
14583TIP3   OH265239   5.911   5.707  12.281  0.0463 -0.0165  0.2769
14583TIP3    H165240   5.974   5.705  12.353  2.0768  1.0803 -1.3395
14583TIP3    H265241   5.954   5.760  12.214 -2.0565 -0.3901 -1.4689
14584TIP3   OH265242   3.865   5.009  16.488 -0.4249  0.0675  0.3317
14584TIP3    H165243   3.775   5.005  16.456 -0.9418  0.4307  1.6940
14584TIP3    H265244   3.918   5.020  16.408 -1.6320  0.5753 -0.4315
14585TIP3   OH265245   4.694   4.002   4.082 -0.3425  0.4335  0.4437
14585TIP3    H165246   4.763   3.959   4.032  1.2104  1.0554  1.9645
14585TIP3    H265247   4.645   3.930   4.122  2.0176 -0.0624  2.6969
14586TIP3   OH265248   6.396   6.059  13.309  0.1206 -0.1807 -0.5267
14586TIP3    H165249   6.347   6.028  13.385  1.5816  1.0661  1.0106
14586TIP3    H265250   6.487   6.045  13.332  0.6462  1.2433 -1.5600
14587TIP3   OH265251   4.429   6.058  12.549 -0.6275 -0.5364 -0.5781
14587TIP3    H165252   4.493   6.119  12.585 -1.3616  0.7865 -1.4119
14587TIP3    H265253   4.407   6.000  12.621  0.7906 -0.4137 -0.0186
14588TIP3   OH265254   4.628   6.484   2.878 -0.1838 -0.3995  0.0384
14588TIP3    H165255   4.552   6.543   2.869  1.4398  1.5376 -2.7965
14588TIP3    H265256   4.645   6.481   2.972 -1.3314  2.4712  0.4672
14589TIP3   OH265257   5.541   3.240  13.572  0.5155 -0.3116  0.0988
14589TIP3    H165258   5.478   3.300  13.612  0.9199  0.4267 -0.3339
14589TIP3    H265259   5.505   3.153  13.587 -1.3779  0.1452 -1.3982
14590TIP3   OH265260   3.169   2.822  12.064 -0.0435 -0.2596 -0.2226
14590TIP3    H165261   3.200   2.773  12.140 -1.1787 -0.6840 -0.0173
14590TIP3    H265262   3.085   2.859  12.091  0.4243  1.1639 -0.6417
14591TIP3   OH265263   3.487   1.615   2.273  0.0376 -0.5332  0.4120
14591TIP3    H165264   3.554   1.661   2.323 -0.1249 -0.3928  0.5033
14591TIP3    H265265   3.474   1.533   2.320 -0.3257 -0.2729  0.7718
14592TIP3   OH265266   1.155   6.597   6.362 -0.4414 -0.0616  0.0251
14592TIP3    H165267   1.132   6.538   6.290  0.8768 -0.1547 -0.3614
14592TIP3    H265268   1.250   6.586   6.371 -0.5995 -0.1204  1.8523
14593TIP3   OH265269   0.111   5.682  10.984 -0.3535  0.1978 -0.5651
14593TIP3    H165270   0.103   5.605  10.928 -0.5850  1.1967 -1.9310
14593TIP3    H265271   0.194   5.722  10.958  0.4952 -0.3267  1.1339
14594TIP3   OH265272   6.015   3.724   4.876 -0.2495 -0.1652  0.7441
14594TIP3    H165273   6.015   3.820   4.872 -0.2652 -0.1634  0.7803
14594TIP3    H265274   6.105   3.699   4.857 -0.9236 -0.3262 -2.8408
14595TIP3   OH265275   5.460   4.162  15.863  0.1414 -0.5382 -0.4150
14595TIP3    H165276   5.405   4.225  15.816  0.8121  0.5885  0.2907
14595TIP3    H265277   5.512   4.215  15.923  1.2055 -1.6982 -0.2771
14596TIP3   OH265278   1.272   1.927   5.358  0.2949 -0.0297 -0.5105
14596TIP3    H165279   1.199   1.921   5.296  1.2688  0.8638 -1.7980
14596TIP3    H265280   1.230   1.927   5.444 -1.0919 -1.3946 -1.1311
14597TIP3   OH265281   0.646   2.854  11.594 -0.1796 -0.0054 -0.2683
14597TIP3    H165282   0.728   2.828  11.553 -1.1016 -2.3951 -0.8166
14597TIP3    H265283   0.591   2.885  11.521  0.2591  1.7675  0.1214
14598TIP3   OH265284   0.208   0.392  13.950 -0.1493 -0.3423 -0.0742
14598TIP3    H165285   0.204   0.297  13.953 -0.7441 -0.4340 -2.3295
14598TIP3    H265286   0.147   0.420  14.019  0.3646 -1.5625  0.9070
14599TIP3   OH265287   2.898   4.509  13.147  0.1445 -0.0986  0.1287
14599TIP3    H165288   2.949   4.497  13.227  1.9951  2.2928 -0.5798
14599TIP3    H265289   2.964   4.516  13.078 -0.9558  3.9256 -0.7443
14600TIP3   OH265290   2.144   5.214  16.138 -0.1227 -0.7877 -0.3419
14600TIP3    H165291   2.233   5.224  16.171  0.6019 -2.3278 -1.6794
14600TIP3    H265292   2.115   5.129  16.172 -0.3411 -1.1786 -1.4527
14601TIP3   OH265293   1.699   3.029   1.687 -0.0805 -0.0532  0.4327
14601TIP3    H165294   1.652   2.970   1.747  0.5206  0.2417  1.2111
14601TIP3    H265295   1.636   3.048   1.618 -0.7636 -0.4770  0.9231
14602TIP3   OH265296   6.286   5.665  13.732 -0.1570  0.0524  0.0082
14602TIP3    H165297   6.321   5.617  13.657 -0.2252 -1.5312  0.9405
14602TIP3    H265298   6.194   5.679  13.711  0.0353  0.4805 -0.5996
14603TIP3   OH265299   5.496   3.016  15.583  0.0519 -0.4843 -0.0635
14603TIP3    H165300   5.407   3.012  15.619  0.8015  1.4224  2.1871
14603TIP3    H265301   5.499   3.098  15.535  0.3512 -1.0248 -1.0064
14604TIP3   OH265302   2.520   2.709   2.455 -0.2864 -0.4457  0.1308
14604TIP3    H165303   2.563   2.697   2.370 -1.2567  2.8791 -1.0010
14604TIP3    H265304   2.588   2.750   2.509 -0.4593 -0.0112  0.0259
14605TIP3   OH265305   1.038   2.860   4.797  0.3421 -0.4480 -0.4926
14605TIP3    H165306   1.029   2.940   4.848 -0.9080  0.7248 -2.4018
14605TIP3    H265307   1.133   2.848   4.787  0.5481  0.6807 -0.0072
14606TIP3   OH265308   2.493   0.785  14.284 -0.8623  0.4542 -0.4701
14606TIP3    H165309   2.445   0.851  14.333  0.7201  0.6683  0.8987
14606TIP3    H265310   2.458   0.702  14.315 -0.1092  0.5983  0.8563
14607TIP3   OH265311   3.880   1.314   3.146  0.3002 -0.2490  0.4874
14607TIP3    H165312   3.795   1.301   3.105 -0.0725 -0.7476  1.3981
14607TIP3    H265313   3.903   1.405   3.126  0.4954 -0.6718 -1.4777
14608TIP3   OH265314   4.663   5.522   6.261  0.2037 -0.2852  0.2747
14608TIP3    H165315   4.637   5.604   6.219  0.3340  0.5366  1.7667
14608TIP3    H265316   4.594   5.504   6.325 -0.2452 -1.7834 -0.5640
14609TIP3   OH265317   5.540   4.472  13.691  0.6067 -0.2760  0.1228
14609TIP3    H165318   5.455   4.445  13.656  0.5481 -1.1221  0.8919
14609TIP3    H265319   5.531   4.567  13.705 -0.6403 -0.5325  1.3087
14610TIP3   OH265320   4.423   6.614  13.607  0.3115 -0.6426  0.3186
14610TIP3    H165321   4.446   6.618  13.700 -1.1621 -2.9953  0.8868
14610TIP3    H265322   4.416   6.520  13.589  2.4243 -0.3606 -2.7090
14611TIP3   OH265323   2.788   0.317  14.686  0.0972  0.4343 -0.1123
14611TIP3    H165324   2.839   0.247  14.727  0.4349  0.6527 -0.1513
14611TIP3    H265325   2.840   0.397  14.702 -0.6074  0.7770  0.5000
14612TIP3   OH265326   6.801   3.109  13.415 -0.5006 -0.0147 -0.1497
14612TIP3    H165327   6.892   3.127  13.391 -0.5492 -0.4072 -0.6450
14612TIP3    H265328   6.749   3.145  13.343 -0.7126 -0.1868 -0.0851
14613TIP3   OH265329   2.621   2.993   3.694 -0.1378  0.3908  0.9272
14613TIP3    H165330   2.586   3.002   3.606 -0.0397  1.9447  1.0108
14613TIP3    H265331   2.707   3.034   3.691  0.2157 -0.2646  1.5604
14614TIP3   OH265332   3.455   0.119   4.011 -0.2503  0.4931 -0.2475
14614TIP3    H165333   3.469   0.073   4.094  2.3153 -0.8889 -1.3216
14614TIP3    H265334   3.434   0.049   3.949  1.7307  0.9408 -1.5107
14615TIP3   OH265335   0.369   4.577  13.411 -0.1882  0.2031 -0.9535
14615TIP3    H165336   0.374   4.546  13.321 -0.9859  0.2991 -1.0386
14615TIP3    H265337   0.403   4.505  13.464  0.1531  0.0940 -1.3193
14616TIP3   OH265338   4.904   0.558  15.036  0.7769  0.0737 -0.3310
14616TIP3    H165339   4.897   0.511  14.953  2.1782  0.1153 -0.4944
14616TIP3    H265340   4.985   0.526  15.076 -0.3145 -0.6112  1.4637
14617TIP3   OH265341   2.101   3.351   0.563  0.5731  0.2493  0.1307
14617TIP3    H165342   2.138   3.437   0.577 -0.1719  0.8525 -1.3357
14617TIP3    H265343   2.041   3.363   0.489 -1.6476 -0.9011  1.6399
14618TIP3   OH265344   0.705   0.099  11.418  0.1016 -0.3643  0.0083
14618TIP3    H165345   0.713   0.067  11.328  0.2736 -1.0746  0.2686
14618TIP3    H265346   0.782   0.064  11.463  1.0183  1.5171  0.0099
14619TIP3   OH265347   1.386   2.698  16.634 -0.0408  0.4363  0.5149
14619TIP3    H165348   1.474   2.720  16.604 -0.6542  0.1715 -1.6301
14619TIP3    H265349   1.392   2.606  16.662  0.2022  0.1462 -0.4446
14620TIP3   OH265350   6.648   6.443  13.742 -0.7237  0.5936 -0.0587
14620TIP3    H165351   6.673   6.352  13.724  0.7180  1.1887 -1.1992
14620TIP3    H265352   6.639   6.483  13.656 -0.2062  1.8397  0.4499
14621TIP3   OH265353   3.187   4.387  14.120  0.5084 -0.1273  0.3959
14621TIP3    H165354   3.181   4.316  14.184 -2.2952 -0.4499 -0.1037
14621TIP3    H265355   3.100   4.428  14.121  1.5090  2.2080 -0.5945
14622TIP3   OH265356   1.818   0.027   5.450 -0.0987  0.3130 -0.4323
14622TIP3    H165357   1.748   0.054   5.509  0.9639  1.9184  0.1922
14622TIP3    H265358   1.876   0.103   5.446  0.0830  0.1251 -3.2805
14623TIP3   OH265359   4.238   3.110  16.756  0.1586  0.2798 -0.1272
14623TIP3    H165360   4.266   3.172  16.823 -1.2721  0.2769  0.5043
14623TIP3    H265361   4.319   3.069  16.726  1.1743  2.5002 -0.6547
14624TIP3   OH265362   0.129   3.150   3.685  0.2027  0.0082 -0.5145
14624TIP3    H165363   0.113   3.240   3.714 -0.2913  0.0077 -0.7649
14624TIP3    H265364   0.105   3.096   3.761  1.9507  0.1398  0.1782
14625TIP3   OH265365   5.337   3.417  13.615  0.0121  0.2165  0.8587
14625TIP3    H165366   5.242   3.413  13.627  0.1116  0.4743  1.8050
14625TIP3    H265367   5.348   3.457  13.529 -0.7455 -2.0494 -0.3854
14626TIP3   OH265368   1.082   5.797  16.502 -0.1416  0.2546 -0.0930
14626TIP3    H165369   1.168   5.829  16.477  1.4515 -1.3935  2.7641
14626TIP3    H265370   1.075   5.712  16.457  0.0778  0.0395  0.2732
14627TIP3   OH265371   5.921   2.338   5.192  0.6140  0.4463 -0.1772
14627TIP3    H165372   5.958   2.411   5.242  0.2069 -0.4611  1.4944
14627TIP3    H265373   5.837   2.372   5.160  1.0935  1.1902 -0.7093
14628TIP3   OH265374   6.284   5.960   5.853 -0.0964 -0.1113 -0.1297
14628TIP3    H165375   6.299   6.054   5.848  0.4278 -0.0395  2.0056
14628TIP3    H265376   6.230   5.948   5.931  1.2876 -1.7093  0.6527
14629TIP3   OH265377   0.810   2.218  12.789  0.7095  0.3055  0.0155
14629TIP3    H165378   0.749   2.278  12.832  0.1962  0.3438 -0.7279
14629TIP3    H265379   0.872   2.274  12.743 -1.2512  0.4026 -2.7835
14630TIP3   OH265380   3.230   6.319   6.439 -0.6798 -0.0587  0.3112
14630TIP3    H165381   3.219   6.385   6.371  0.1173  0.8032  0.9890
14630TIP3    H265382   3.262   6.368   6.514  1.3508 -1.4012  0.3904
14631TIP3   OH265383   0.803   0.466  15.074  0.1718  0.1142 -0.1529
14631TIP3    H165384   0.770   0.378  15.058  0.1749  0.1321 -0.2595
14631TIP3    H265385   0.875   0.454  15.137  0.3338  0.0141 -0.3552
14632TIP3   OH265386   2.995   1.779  16.755 -0.2856 -0.3427  0.0099
14632TIP3    H165387   3.053   1.714  16.715 -1.5368 -0.7830 -1.1608
14632TIP3    H265388   2.996   1.853  16.695  0.5670  0.4675  0.9805
14633TIP3   OH265389   1.452   3.427   2.746  0.1151  0.1468  0.3856
14633TIP3    H165390   1.501   3.465   2.674  0.6702  1.3798  1.3859
14633TIP3    H265391   1.361   3.454   2.732 -0.6712 -3.1029 -2.1247
14634TIP3   OH265392   4.271   6.253  16.015 -0.2092 -0.0714 -0.4296
14634TIP3    H165393   4.178   6.250  15.991  0.4299  2.8018 -4.2094
14634TIP3    H265394   4.285   6.173  16.066 -4.3929 -1.4044 -0.9640
14635TIP3   OH265395   4.041   5.567  15.989 -0.3026  0.0747  0.5422
14635TIP3    H165396   3.968   5.627  16.004  0.1746  1.6698 -2.5988
14635TIP3    H265397   4.112   5.601  16.044 -0.6502  1.2015  0.3116
14636TIP3   OH265398   6.282   3.565   2.507 -0.7537  0.6179 -0.5806
14636TIP3    H165399   6.202   3.605   2.540  0.1763  2.7179 -0.7078
14636TIP3    H265400   6.303   3.616   2.429  0.5847 -0.0589 -0.6853
14637TIP3   OH265401   5.514   4.821  14.210 -0.0417  0.2673 -0.4695
14637TIP3    H165402   5.483   4.782  14.292  1.4163 -1.2291 -0.5657
14637TIP3    H265403   5.439   4.868  14.175 -0.8183  0.5663  1.5004
14638TIP3   OH265404   3.659   0.016  13.082  0.3269 -0.0150  0.0921
14638TIP3    H165405   3.744   0.055  13.065  0.7045 -0.1670  1.5148
14638TIP3    H265406   3.617   0.076  13.144  1.1944 -2.0719  2.8871
14639TIP3   OH265407   1.764   5.455   0.937  0.6719 -0.1602 -0.6406
14639TIP3    H165408   1.709   5.492   0.867 -0.0246 -0.9066 -0.4938
14639TIP3    H265409   1.825   5.398   0.891 -0.2771 -1.2426 -0.5840
14640TIP3   OH265410   5.473   6.502  16.013  0.2424 -0.4649  0.1434
14640TIP3    H165411   5.533   6.576  16.009 -1.8610  1.3032 -0.7097
14640TIP3    H265412   5.448   6.497  16.105 -1.0429  1.2021 -0.0597
14641TIP3   OH265413   6.121   0.734  16.796  0.2617  0.0820  0.2390
14641TIP3    H165414   6.129   0.751  16.890 -3.1815  1.5820  0.3881
14641TIP3    H265415   6.175   0.802  16.755 -0.7485  1.4871  1.1453
14642TIP3   OH265416   1.322   5.329   3.451 -0.0006 -0.4399 -0.2505
14642TIP3    H165417   1.325   5.290   3.538  1.4960 -1.7210 -0.8264
14642TIP3    H265418   1.229   5.345   3.435 -0.2884  0.0429  1.6499
14643TIP3   OH265419   3.462   5.567   0.972  0.1341 -0.4206 -0.0597
14643TIP3    H165420   3.479   5.647   0.923 -0.1915  0.5378  1.3184
14643TIP3    H265421   3.545   5.548   1.016  0.0731 -0.5787 -0.0112
14644TIP3   OH265422   2.290   1.303   0.420  0.2095 -0.0419 -0.6012
14644TIP3    H165423   2.208   1.274   0.379  0.1575  0.0485 -0.5611
14644TIP3    H265424   2.347   1.226   0.416 -0.0422 -0.2500 -0.1857
14645TIP3   OH265425   1.501   6.492   5.331 -0.2933 -0.3128 -0.0156
14645TIP3    H165426   1.450   6.498   5.251  0.4865 -0.3644 -0.5314
14645TIP3    H265427   1.552   6.411   5.321 -1.2058 -1.0595  1.1476
14646TIP3   OH265428   2.057   3.651  16.400  0.1958  0.7386  0.0556
14646TIP3    H165429   2.084   3.560  16.390  0.1147  0.8991 -1.8177
14646TIP3    H265430   2.068   3.669  16.494 -1.2922 -1.6556  0.7826
14647TIP3   OH265431   5.006   0.304  16.116 -0.6110 -0.0367  0.1623
14647TIP3    H165432   4.922   0.341  16.088 -1.3041 -1.0112  0.8915
14647TIP3    H265433   4.997   0.294  16.211  0.6151  0.5114  0.3636
14648TIP3   OH265434   2.542   4.680  13.906 -0.3331 -0.4280  0.1229
14648TIP3    H165435   2.583   4.753  13.860 -0.8223  0.5231  1.1694
14648TIP3    H265436   2.467   4.656  13.851 -0.4838  0.2109  0.0496
14649TIP3   OH265437   4.453   6.692   5.507  0.5807  0.0973  0.0749
14649TIP3    H165438   4.400   6.639   5.446 -0.0642 -0.4289  1.0623
14649TIP3    H265439   4.489   6.762   5.452 -1.0384  0.4011 -0.6807
14650TIP3   OH265440   2.250   2.495   2.795 -0.2744  0.7345 -0.2593
14650TIP3    H165441   2.172   2.441   2.808  0.4738 -0.1268  0.7881
14650TIP3    H265442   2.253   2.511   2.701 -1.8071  0.9384 -0.2963
14651TIP3   OH265443   2.055   2.084   5.934 -0.0468  0.2642  0.0258
14651TIP3    H165444   2.123   2.017   5.942 -1.5517 -1.4481 -0.7543
14651TIP3    H265445   2.056   2.130   6.018  0.2423 -1.5552  1.0675
14652TIP3   OH265446   1.946   1.083   4.921  0.5705  0.1503 -0.7949
14652TIP3    H165447   2.015   1.025   4.890  0.2634 -0.2273 -0.7813
14652TIP3    H265448   1.868   1.056   4.873 -0.3157 -1.5656  1.4259
14653TIP3   OH265449   1.839   6.088  13.128  0.2191  0.2420  0.4994
14653TIP3    H165450   1.818   6.164  13.075  0.4495  0.0433  0.1184
14653TIP3    H265451   1.790   6.016  13.088  0.5297  0.0563  0.4498
14654TIP3   OH265452   0.879   1.790  12.893  0.3653 -0.0036 -0.0512
14654TIP3    H165453   0.878   1.827  12.805  2.2161  0.7680  0.2129
14654TIP3    H265454   0.803   1.731  12.895 -1.3662  2.0303 -1.2250
14655TIP3   OH265455   5.364   6.478   6.566 -0.7543  0.2681  0.2837
14655TIP3    H165456   5.411   6.509   6.644 -1.9063  1.0031  0.7202
14655TIP3    H265457   5.409   6.397   6.541 -0.7839 -0.3908  2.1615
14656TIP3   OH265458   2.457   6.667   2.807 -0.3415  0.4229 -0.2491
14656TIP3    H165459   2.430   6.595   2.864 -1.5677  0.4684 -0.7359
14656TIP3    H265460   2.432   6.639   2.719  2.0297  0.1130 -0.8801
14657TIP3   OH265461   1.166   5.945   6.534  0.6422  0.1717  0.2022
14657TIP3    H165462   1.077   5.980   6.535 -0.2134 -1.8303 -0.4859
14657TIP3    H265463   1.176   5.901   6.618  1.0685  0.5363  0.3496
14658TIP3   OH265464   4.075   1.199   4.365  0.2285  0.7133 -0.5334
14658TIP3    H165465   4.102   1.253   4.439 -0.2777 -0.4694  0.5554
14658TIP3    H265466   4.108   1.112   4.385 -0.3744  0.2554 -1.4393
14659TIP3   OH265467   4.328   5.729  12.990 -0.0130 -1.0564 -0.3399
14659TIP3    H165468   4.280   5.649  13.008 -1.2624 -0.0649  0.9782
14659TIP3    H265469   4.296   5.792  13.055 -1.5428  1.4876 -3.2241
14660TIP3   OH265470   2.759   0.764   4.885 -0.2053 -0.1616 -0.2966
14660TIP3    H165471   2.681   0.803   4.922 -1.0102 -0.6053 -1.4513
14660TIP3    H265472   2.781   0.692   4.944  1.3926  2.0036  1.9450
14661TIP3   OH265473   1.642   3.007   5.958  0.3729  0.2693 -0.4789
14661TIP3    H165474   1.618   2.915   5.968 -0.0432  0.5039  1.0454
14661TIP3    H265475   1.677   3.014   5.869  0.3984 -1.3470 -0.6214
14662TIP3   OH265476   4.895   6.470   2.315  0.1503  0.1719  0.5213
14662TIP3    H165477   4.828   6.496   2.378 -0.6607 -0.1524 -0.1796
14662TIP3    H265478   4.879   6.377   2.300  0.6086  0.1435  0.1746
14663TIP3   OH265479   5.489   4.058   5.944  0.0010 -0.8976 -0.0153
14663TIP3    H165480   5.572   4.097   5.973 -0.0453  0.7200 -1.8981
14663TIP3    H265481   5.498   3.965   5.966  1.7611 -0.5360  1.0207
14664TIP3   OH265482   4.193   4.197  16.608  0.1681 -0.1641 -0.0131
14664TIP3    H165483   4.145   4.230  16.532 -0.6070  1.9129  1.2950
14664TIP3    H265484   4.127   4.186  16.676  0.7810 -2.4006  0.3177
14665TIP3   OH265485   1.317   0.335  16.122  0.2671 -0.1627  0.8014
14665TIP3    H165486   1.242   0.351  16.065  0.6428  0.5430  0.4966
14665TIP3    H265487   1.310   0.403  16.190  0.0501 -0.7430  1.3726
14666TIP3   OH265488   3.942   3.814  12.749 -0.4595  0.1692 -0.0710
14666TIP3    H165489   3.907   3.848  12.831  1.5486 -2.4277  2.0724
14666TIP3    H265490   3.891   3.735  12.732  0.8990 -0.8203  0.2732
14667TIP3   OH265491   3.306   2.343   3.369 -0.0712  0.4098 -0.0634
14667TIP3    H165492   3.249   2.291   3.313 -2.2653 -0.5571  2.7755
14667TIP3    H265493   3.379   2.284   3.391 -0.9910 -0.4570  0.7485
14668TIP3   OH265494   4.881   5.735  12.641 -0.4765 -0.3578 -0.3655
14668TIP3    H165495   4.883   5.653  12.592 -0.1050 -0.3150 -0.4228
14668TIP3    H265496   4.973   5.763  12.645 -0.5936  0.0172 -0.2838
14669TIP3   OH265497   3.492   6.298  16.865 -0.9910  0.3273  0.1448
14669TIP3    H165498   3.559   6.263  16.805  0.4655  1.6460  0.9111
14669TIP3    H265499   3.541   6.322  16.944 -1.8552  3.7348 -0.1936
14670TIP3   OH265500   6.524   3.845   4.481 -0.3095  0.5118  0.0238
14670TIP3    H165501   6.530   3.891   4.397 -1.2969 -0.8285 -0.8380
14670TIP3    H265502   6.579   3.896   4.541 -1.5643  2.9672 -0.7646
14671TIP3   OH265503   4.402   4.014  12.980 -0.1374  0.1935 -0.4380
14671TIP3    H165504   4.308   4.009  12.965  0.0060  2.6904 -3.2802
14671TIP3    H265505   4.439   3.938  12.934 -0.7032 -0.3718  0.0381
14672TIP3   OH265506   2.681   4.956  14.550  0.5206  0.2929  0.1382
14672TIP3    H165507   2.645   4.876  14.512 -0.3132  1.0125 -0.6398
14672TIP3    H265508   2.769   4.962  14.514  0.0161  0.5583 -1.1103
14673TIP3   OH265509   2.503   1.788  12.513  0.1388  0.2258  0.3802
14673TIP3    H165510   2.411   1.776  12.535  0.0441 -0.9695 -0.5885
14673TIP3    H265511   2.506   1.788  12.418  1.1554  0.0855  0.3936
14674TIP3   OH265512   2.984   4.450   2.859 -0.1553  0.1080  0.1491
14674TIP3    H165513   3.027   4.367   2.879  0.7465  0.5641  0.1525
14674TIP3    H265514   2.893   4.436   2.885  0.1593 -0.6035  0.9301
14675TIP3   OH265515   5.868   1.382  15.532 -0.8729  0.6340  0.3213
14675TIP3    H165516   5.912   1.410  15.612  0.9006 -0.1885 -0.3233
14675TIP3    H265517   5.799   1.323  15.561 -0.1911  0.2804  1.2491
14676TIP3   OH265518   4.652   6.750   1.274 -0.3106  0.2005 -0.1947
14676TIP3    H165519   4.668   6.669   1.225  0.3785 -0.3343  0.8754
14676TIP3    H265520   4.737   6.792   1.280 -0.7794  1.3604 -1.3044
14677TIP3   OH265521   0.604   1.865   4.148  0.1993 -0.2786 -1.0059
14677TIP3    H165522   0.697   1.865   4.123  0.3372 -0.2721 -0.4973
14677TIP3    H265523   0.572   1.780   4.117 -0.0725  0.4240 -2.7895
14678TIP3   OH265524   2.865   4.366  13.896 -0.2565  0.2619 -0.2035
14678TIP3    H165525   2.921   4.442  13.883  1.1087 -0.5019  0.8800
14678TIP3    H265526   2.903   4.322  13.972 -1.8983 -0.7040  0.0965
14679TIP3   OH265527   0.346   3.649   5.882 -0.3814  0.0977  0.1180
14679TIP3    H165528   0.368   3.556   5.892 -1.2326 -0.1164  0.1149
14679TIP3    H265529   0.399   3.694   5.948  0.0134 -0.3981  0.1400
14680TIP3   OH265530   4.309   5.587   1.986  0.2781  0.1001  0.2187
14680TIP3    H165531   4.239   5.600   1.923  0.9125 -1.0407 -0.7651
14680TIP3    H265532   4.297   5.497   2.018 -0.6912  1.0036  2.5952
14681TIP3   OH265533   2.892   6.543  16.111  0.0748 -0.2525  0.3930
14681TIP3    H165534   2.972   6.521  16.063  0.1940 -0.1137  0.5262
14681TIP3    H265535   2.848   6.607  16.056  0.1838 -0.1361  0.4388
14682TIP3   OH265536   3.158   0.179  14.985 -0.1257  0.4084 -0.1611
14682TIP3    H165537   3.217   0.112  14.950  0.5935 -0.0805  1.8646
14682TIP3    H265538   3.214   0.254  15.003 -0.6798  1.0549 -1.0091
14683TIP3   OH265539   3.629   3.152   1.463  0.2942  0.0106  0.3083
14683TIP3    H165540   3.547   3.107   1.442 -1.7653  2.7239  1.9608
14683TIP3    H265541   3.615   3.191   1.549  2.2494  2.8959 -0.5195
14684TIP3   OH265542   6.667   2.616   2.596 -0.5755 -0.2362  0.2089
14684TIP3    H165543   6.735   2.649   2.538  0.1296  0.0746  1.1841
14684TIP3    H265544   6.711   2.605   2.680 -1.9180  0.7344  1.0769
14685TIP3   OH265545   2.419   5.753   3.847 -0.0661 -0.3524  0.1756
14685TIP3    H165546   2.388   5.724   3.762  0.9153  0.3561 -0.4427
14685TIP3    H265547   2.369   5.833   3.866 -0.5541 -0.7166  0.4510
14686TIP3   OH265548   3.719   4.801  16.635  0.2294 -0.2481  0.0515
14686TIP3    H165549   3.662   4.726  16.654 -0.9698  0.4802 -0.5537
14686TIP3    H265550   3.690   4.832  16.549  0.2725  1.2777  0.5491
14687TIP3   OH265551   3.901   0.976  12.971 -0.2234 -0.2317  0.0951
14687TIP3    H165552   3.805   0.982  12.962 -0.5595  0.5980  3.1441
14687TIP3    H265553   3.932   0.967  12.881 -3.2013 -1.4630 -0.9535
14688TIP3   OH265554   0.103   3.510   6.590 -0.1939 -0.1524 -0.2810
14688TIP3    H165555   0.072   3.452   6.520 -1.3945  3.3941 -3.0316
14688TIP3    H265556   0.026   3.525   6.644  0.3403 -1.6650  0.9713
14689TIP3   OH265557   5.607   3.146   1.835 -0.3380  0.1112  0.2002
14689TIP3    H165558   5.578   3.236   1.846 -3.1775 -0.5567 -1.0364
14689TIP3    H265559   5.555   3.095   1.897  1.8342 -0.6613  1.5072
14690TIP3   OH265560   1.251   3.258   4.067 -0.3159 -0.0501  0.4129
14690TIP3    H165561   1.335   3.216   4.047 -0.6267 -0.8965  0.8027
14690TIP3    H265562   1.187   3.186   4.064 -1.1312  0.6789 -0.4674
14691TIP3   OH265563   1.831   4.391   0.813 -0.5422  0.0352  0.3444
14691TIP3    H165564   1.758   4.435   0.857 -0.0580 -1.2284  2.5801
14691TIP3    H265565   1.790   4.322   0.761 -1.0456  0.7230 -0.1990
14692TIP3   OH265566   2.838   5.123  11.621 -0.0043 -0.4570  0.1204
14692TIP3    H165567   2.913   5.112  11.562  0.6407 -1.1195  1.0493
14692TIP3    H265568   2.875   5.119  11.709 -0.7670  1.8675  0.6097
14693TIP3   OH265569   2.393   4.290   2.873 -0.3064 -0.5446 -0.2533
14693TIP3    H165570   2.432   4.346   2.940  0.0618  0.0498 -0.9397
14693TIP3    H265571   2.467   4.265   2.817 -0.3837 -2.1048  0.2915
14694TIP3   OH265572   1.446   2.694  15.701  0.1130  0.2825  0.3643
14694TIP3    H165573   1.446   2.727  15.611  0.4973 -1.8909 -0.4771
14694TIP3    H265574   1.509   2.751  15.746 -0.3072  1.5949 -0.6395
14695TIP3   OH265575   4.736   1.962  14.179  0.7976  0.0290 -0.0285
14695TIP3    H165576   4.730   1.881  14.127  0.8536 -1.0022  1.5127
14695TIP3    H265577   4.831   1.976  14.189  0.8591  1.3779 -1.8426
14696TIP3   OH265578   4.341   4.553   0.470 -0.9418 -0.1993  0.2218
14696TIP3    H165579   4.266   4.493   0.468 -1.6992  0.7221 -0.9598
14696TIP3    H265580   4.341   4.589   0.559 -1.3015 -0.9223  0.5243
14697TIP3   OH265581   4.584   0.824   5.712  0.0602 -0.2541 -0.0069
14697TIP3    H165582   4.660   0.862   5.668  0.5206  0.6793  1.5030
14697TIP3    H265583   4.541   0.772   5.645  0.0329  2.0483 -1.9065
14698TIP3   OH265584   3.398   1.363  15.367  0.1536  0.1605  0.4481
14698TIP3    H165585   3.369   1.452  15.386 -1.6618 -0.2446 -0.2115
14698TIP3    H265586   3.399   1.319  15.452 -1.4666  0.1417  0.4881
14699TIP3   OH265587   2.322   2.271  11.993 -0.0181  0.9544 -0.0008
14699TIP3    H165588   2.370   2.212  11.934  0.2322  0.6631  0.4887
14699TIP3    H265589   2.388   2.332  12.026 -0.2369  1.3806 -0.3373
14700TIP3   OH265590   3.545   4.044   6.336 -0.1703 -0.4442  0.0506
14700TIP3    H165591   3.539   4.085   6.423  0.9899  0.9384 -0.4747
14700TIP3    H265592   3.510   3.956   6.349 -0.5192 -0.1008  1.7965
14701TIP3   OH265593   4.002   5.860  15.730  0.5398  0.2127  0.0195
14701TIP3    H165594   3.921   5.901  15.760  0.1759  0.2149 -0.9215
14701TIP3    H265595   4.055   5.851  15.808 -0.1935  0.6263  0.5756
14702TIP3   OH265596   0.620   5.415   4.945  0.4487  0.2554  0.7596
14702TIP3    H165597   0.576   5.370   4.873  0.4850 -0.8185  1.3907
14702TIP3    H265598   0.713   5.406   4.925  0.4781 -0.5201  1.2025
14703TIP3   OH265599   3.160   2.989  12.501 -1.1387  0.7054 -0.1506
14703TIP3    H165600   3.105   2.913  12.481  0.0720 -0.2444 -0.0318
14703TIP3    H265601   3.231   2.953  12.553  0.5638  1.5394 -1.7724
14704TIP3   OH265602   6.197   0.951  14.007  0.1510 -0.0954 -0.0936
14704TIP3    H165603   6.138   0.924  14.077 -0.1462 -0.2280 -0.3910
14704TIP3    H265604   6.209   1.045  14.021 -0.5856  0.0467 -0.3631
14705TIP3   OH265605   0.382   5.322   0.920  0.5283  0.0328  0.0157
14705TIP3    H165606   0.416   5.248   0.870 -2.0619 -0.7874 -0.6939
14705TIP3    H265607   0.396   5.297   1.012  1.2547 -0.5218 -0.2329
14706TIP3   OH265608   6.345   2.887  12.783  0.7832 -0.6106 -0.3914
14706TIP3    H165609   6.439   2.870  12.793  1.0352  0.9328  0.0909
14706TIP3    H265610   6.335   2.917  12.692  0.7261 -0.8596 -0.4703
14707TIP3   OH265611   6.238   5.705  12.133  0.4929  0.2563  0.2977
14707TIP3    H165612   6.149   5.678  12.113  0.2213  3.4595 -4.7324
14707TIP3    H265613   6.293   5.633  12.102 -0.3301 -0.0957 -0.3759
14708TIP3   OH265614   6.148   1.613  16.686  0.3109 -0.6978 -0.9393
14708TIP3    H165615   6.061   1.581  16.709  0.4265  0.8189  2.0085
14708TIP3    H265616   6.133   1.700  16.650  0.4411 -1.6971 -3.6378
14709TIP3   OH265617   1.282   4.621  17.106 -0.0883 -0.0167 -0.3359
14709TIP3    H165618   1.365   4.573  17.106  0.0899  0.2855 -0.5169
14709TIP3    H265619   1.236   4.590  17.184  0.1821 -0.2108 -0.2529
14710TIP3   OH265620   0.937   3.096   4.207 -0.1431  0.2155 -0.2852
14710TIP3    H165621   0.904   3.015   4.167  0.6953  0.4490 -1.4788
14710TIP3    H265622   1.008   3.067   4.264 -0.9058 -0.0429  0.5698
14711TIP3   OH265623   0.782   2.395   1.582 -0.4404 -0.0042 -0.4156
14711TIP3    H165624   0.730   2.384   1.662 -0.2851 -0.8205 -0.4259
14711TIP3    H265625   0.717   2.404   1.512 -0.5871  1.1602 -0.1620
14712TIP3   OH265626   3.761   4.405  14.139  0.5448  0.3843 -0.0950
14712TIP3    H165627   3.669   4.405  14.168  0.4439 -0.5249 -0.3847
14712TIP3    H265628   3.802   4.472  14.193 -0.6451  1.9913 -1.1122
14713TIP3   OH265629   6.279   3.221   1.188 -0.4845 -0.4498 -0.2378
14713TIP3    H165630   6.200   3.270   1.166  0.4344  0.5461 -1.4964
14713TIP3    H265631   6.339   3.286   1.223 -0.2853 -1.2362  0.9263
14714TIP3   OH265632   4.726   3.030  15.765  0.1881  0.1539  0.0026
14714TIP3    H165633   4.651   2.995  15.812 -0.3959  0.1718 -0.8945
14714TIP3    H265634   4.802   2.991  15.809 -0.3194  0.3919  1.1243
14715TIP3   OH265635   3.792   3.742  12.243  0.2849 -0.0440  0.0661
14715TIP3    H165636   3.861   3.731  12.309 -0.0893 -1.7511  0.2120
14715TIP3    H265637   3.710   3.733  12.293 -0.0635  1.5582 -0.1716
14716TIP3   OH265638   5.772   3.405  14.058  0.2092 -0.7293 -0.0135
14716TIP3    H165639   5.720   3.468  14.109  0.8463 -1.9855  2.3347
14716TIP3    H265640   5.708   3.353  14.011 -0.7818 -1.9646  2.4917
14717TIP3   OH265641   6.210   0.484   3.187  0.1014  0.1171 -0.3711
14717TIP3    H165642   6.196   0.554   3.250  0.1127 -2.0374  2.2384
14717TIP3    H265643   6.123   0.457   3.160  0.1065  1.4808 -1.9331
14718TIP3   OH265644   6.337   1.915   3.215  0.1252 -0.3447  0.3183
14718TIP3    H165645   6.383   1.868   3.284  0.1223 -0.3263  0.3326
14718TIP3    H265646   6.258   1.949   3.258 -0.1550 -0.7998  0.1783
14719TIP3   OH265647   6.603   2.214  11.858  0.8366 -0.2172 -0.2885
14719TIP3    H165648   6.590   2.281  11.925  1.5553 -2.2521  2.0304
14719TIP3    H265649   6.697   2.211  11.844  0.7730 -0.4727 -0.6859
14720TIP3   OH265650   6.487   1.269   2.283 -0.1669  0.0451  0.1994
14720TIP3    H165651   6.566   1.216   2.283  2.0008  2.8670  2.7986
14720TIP3    H265652   6.494   1.323   2.204  1.1610  0.9973  0.9211
14721TIP3   OH265653   5.122   4.223  15.865 -0.0306 -0.3985 -0.6078
14721TIP3    H165654   5.089   4.146  15.819 -0.6049 -0.6220  0.1504
14721TIP3    H265655   5.070   4.226  15.946  0.4331  0.4116 -0.3333
14722TIP3   OH265656   4.150   3.828  16.392 -0.1175  0.2498 -0.2029
14722TIP3    H165657   4.222   3.765  16.386 -2.4864 -2.5099 -1.9763
14722TIP3    H265658   4.176   3.900  16.334  1.1830 -0.6873 -0.8352
14723TIP3   OH265659   6.515   6.499   0.669  0.0923 -0.0285 -0.2688
14723TIP3    H165660   6.587   6.472   0.613 -0.7520 -2.1402 -0.4326
14723TIP3    H265661   6.486   6.419   0.711 -1.0897  1.0538  1.0804
14724TIP3   OH265662   5.124   5.202   4.512 -0.1155  0.0016 -0.3078
14724TIP3    H165663   5.168   5.285   4.531  0.2761 -0.6538  1.8712
14724TIP3    H265664   5.187   5.152   4.462  0.2014  0.4672 -0.3818
14725TIP3   OH265665   6.061   6.260  11.871 -0.0057  0.3364  0.1203
14725TIP3    H165666   6.064   6.239  11.777 -0.2409  0.5790  0.0560
14725TIP3    H265667   6.058   6.356  11.873 -0.3976  0.3186  0.3661
14726TIP3   OH265668   5.378   6.028  14.526  0.4810  0.1112 -0.0460
14726TIP3    H165669   5.305   5.990  14.575 -0.2271  0.4570 -0.8131
14726TIP3    H265670   5.384   5.975  14.447  0.2429  0.8629 -0.5747
14727TIP3   OH265671   2.789   1.174  13.966  0.2011  0.2712 -0.3156
14727TIP3    H165672   2.772   1.081  13.978  0.0216  0.1292 -1.5524
14727TIP3    H265673   2.718   1.218  14.013 -0.6065 -0.2491 -1.0227
14728TIP3   OH265674   3.932   2.254  11.217 -0.0649 -0.0632  0.3405
14728TIP3    H165675   4.021   2.273  11.189  1.0098 -2.7678  1.6077
14728TIP3    H265676   3.897   2.196  11.148 -1.6787  2.5394 -1.1980
14729TIP3   OH265677   5.908   2.901  15.087 -0.2597  0.2486 -0.7876
14729TIP3    H165678   5.901   2.842  15.162 -0.9681  0.7279 -0.4632
14729TIP3    H265679   5.990   2.949  15.102  0.3242 -0.6335 -1.0568
14730TIP3   OH265680   6.277   6.364   0.838  0.2893 -0.6992  0.0114
14730TIP3    H165681   6.243   6.416   0.910  1.3738  0.9576 -0.6289
14730TIP3    H265682   6.364   6.337   0.867 -0.0591 -1.7646  0.1214
14731TIP3   OH265683   4.268   4.265   0.143 -0.0161  0.6251  0.3818
14731TIP3    H165684   4.349   4.310   0.165  0.3580  0.3176 -0.3443
14731TIP3    H265685   4.235   4.311   0.066  0.2008 -0.1335 -0.1686
14732TIP3   OH265686   5.909   5.678   2.311 -0.1059  0.3152  0.1038
14732TIP3    H165687   5.820   5.715   2.315  0.2494  1.3834 -0.8899
14732TIP3    H265688   5.966   5.755   2.312  0.6919 -0.1855 -1.6685
14733TIP3   OH265689   3.637   6.438  14.736  0.0452 -0.7256 -0.5520
14733TIP3    H165690   3.572   6.375  14.767  1.3670 -1.6925  0.3431
14733TIP3    H265691   3.592   6.523  14.742 -0.5757 -1.1320  1.7973
14734TIP3   OH265692   2.025   5.210   1.056 -0.2851  0.1813  0.0233
14734TIP3    H165693   2.070   5.184   0.975 -2.0025  1.2267 -1.3447
14734TIP3    H265694   1.942   5.164   1.053 -1.3131  1.9422  0.0229
14735TIP3   OH265695   5.648   4.917   0.111 -0.3349 -0.1447  0.2072
14735TIP3    H165696   5.573   4.937   0.055 -0.1711 -0.0166  0.0306
14735TIP3    H265697   5.664   4.998   0.160 -2.1839 -1.0407  2.4861
14736TIP3   OH265698   5.616   3.110  14.338  0.0174  0.1896 -0.6646
14736TIP3    H165699   5.638   3.019  14.322 -1.5386 -0.6240  1.4324
14736TIP3    H265700   5.689   3.143  14.392  0.2021 -0.0333 -0.7769
14737TIP3   OH265701   4.512   2.809  11.657 -0.1807  0.4861 -0.8675
14737TIP3    H165702   4.503   2.856  11.575  1.3121  2.7212  0.1669
14737TIP3    H265703   4.422   2.805  11.692 -1.0734 -1.6784 -3.0993
14738TIP3   OH265704   6.277   0.237  15.331  0.2330 -0.6433 -0.1749
14738TIP3    H165705   6.328   0.273  15.258  0.8026 -0.3725  0.3466
14738TIP3    H265706   6.298   0.294  15.405 -1.1456 -0.2823 -0.0333
14739TIP3   OH265707   5.827   6.512   5.415  0.0003  0.2880  0.1445
14739TIP3    H165708   5.802   6.531   5.324 -0.0356  2.3243  0.5206
14739TIP3    H265709   5.908   6.461   5.407  0.4920  1.1777 -1.0556
14740TIP3   OH265710   1.846   2.650   5.927  0.1716  0.8564  0.3523
14740TIP3    H165711   1.889   2.567   5.907 -0.8947  0.5500 -0.8103
14740TIP3    H265712   1.907   2.695   5.986  1.0691 -0.4573  0.4760
14741TIP3   OH265713   4.550   5.376  16.630 -0.3974 -0.4751  0.2255
14741TIP3    H165714   4.610   5.328  16.687  2.3027  1.2561 -0.9503
14741TIP3    H265715   4.559   5.334  16.544  1.8132  1.7661 -0.7566
14742TIP3   OH265716   3.966   3.885  13.201 -0.1006 -0.3622 -0.7234
14742TIP3    H165717   4.024   3.938  13.146  1.6848 -0.7829  0.6641
14742TIP3    H265718   4.020   3.811  13.229 -1.2706 -0.7118  0.7205
14743TIP3   OH265719   5.782   6.352   5.968 -0.0841  0.3573  0.3856
14743TIP3    H165720   5.840   6.282   5.998 -0.0357 -0.7537 -2.0213
14743TIP3    H265721   5.705   6.346   6.025 -0.3440 -2.1165 -0.1101
14744TIP3   OH265722   1.749   1.107  16.273 -0.3699  0.2054 -0.1247
14744TIP3    H165723   1.755   1.193  16.315  0.2145 -1.6313  3.9933
14744TIP3    H265724   1.837   1.092  16.238 -0.1394  0.7584  0.2009
14745TIP3   OH265725   0.618   6.098   5.002 -0.5667  0.1642  0.3449
14745TIP3    H165726   0.545   6.047   5.037 -0.5438 -0.8182 -0.9492
14745TIP3    H265727   0.590   6.189   5.008 -1.6597 -0.1697  0.3779
14746TIP3   OH265728   5.990   5.005  11.243  0.1167 -0.3347 -0.6471
14746TIP3    H165729   5.898   5.010  11.216 -0.1126 -1.6893 -0.2088
14746TIP3    H265730   6.003   5.083  11.297 -1.5182 -1.3338  1.3418
14747TIP3   OH265731   6.608   2.722   1.476  0.2227 -0.4643  0.0192
14747TIP3    H165732   6.541   2.654   1.477 -2.7648  2.1874 -0.8762
14747TIP3    H265733   6.593   2.770   1.558  1.9078 -0.5208  0.3830
14748TIP3   OH265734   6.114   4.166   0.889 -0.0225 -0.0931  0.5133
14748TIP3    H165735   6.071   4.185   0.806 -2.2677  0.2319  1.6678
14748TIP3    H265736   6.112   4.071   0.896 -0.4050 -0.0885  0.4715
14749TIP3   OH265737   4.367   5.259  11.128  0.1021 -0.7450 -0.0305
14749TIP3    H165738   4.328   5.341  11.098  0.1857 -0.3090  1.0013
14749TIP3    H265739   4.291   5.205  11.152  0.0547 -0.8810 -0.4819
14750TIP3   OH265740   6.292   5.983  17.149 -0.2269 -0.0403 -0.3154
14750TIP3    H165741   6.306   6.048  17.079 -0.7068 -0.0957 -0.4702
14750TIP3    H265742   6.339   5.905  17.119 -1.9768 -0.7021 -1.5241
14751TIP3   OH265743   0.535   4.842   1.555  0.1730 -0.4074  0.4868
14751TIP3    H165744   0.588   4.821   1.478 -0.1781  1.5290 -0.3595
14751TIP3    H265745   0.445   4.843   1.522 -0.0322 -0.1148  1.0533
14752TIP3   OH265746   0.999   1.043  13.234  0.2478  0.2575 -0.1060
14752TIP3    H165747   1.066   1.001  13.180 -0.6319 -2.0478  0.5008
14752TIP3    H265748   0.972   0.976  13.297 -0.1945  2.2111  1.9312
14753TIP3   OH265749   5.400   0.044  12.844  0.0626  0.4321  0.4086
14753TIP3    H165750   5.361   0.088  12.768  2.2459  1.4358 -0.2022
14753TIP3    H265751   5.330   0.043  12.909 -1.5181  0.5785 -1.1945
14754TIP3   OH265752   6.222   5.927   4.365 -0.2095 -0.0410 -0.2592
14754TIP3    H165753   6.132   5.951   4.344 -0.0318  2.4227  1.3427
14754TIP3    H265754   6.216   5.877   4.446 -0.2596 -1.8593 -1.3514
14755TIP3   OH265755   2.283   5.921  10.362 -0.8915  0.6749 -0.4574
14755TIP3    H165756   2.365   5.891  10.401 -1.1619  2.2043  1.4453
14755TIP3    H265757   2.215   5.874  10.410 -1.1754  0.1668 -1.3338
14756TIP3   OH265758   0.272   6.639  16.381 -0.0465  0.0573 -0.3353
14756TIP3    H165759   0.342   6.700  16.356 -0.3087  0.3425 -0.3685
14756TIP3    H265760   0.249   6.663  16.470  0.7947 -0.8761  0.1517
14757TIP3   OH265761   4.049   3.583   6.212 -0.1920  0.3565 -0.1936
14757TIP3    H165762   4.093   3.534   6.282 -1.0199 -1.6016 -0.9813
14757TIP3    H265763   3.961   3.545   6.208 -0.4785  1.1090 -1.6370
14758TIP3   OH265764   5.311   4.431  14.584  0.3005 -0.4878 -0.2181
14758TIP3    H165765   5.346   4.514  14.618 -0.0237 -0.2511 -0.4588
14758TIP3    H265766   5.236   4.412  14.640 -2.5587  1.7888 -2.9350
14759TIP3   OH265767   6.834   1.760  15.373 -0.1247  0.2727  0.1533
14759TIP3    H165768   6.846   1.848  15.339  1.4319  0.5360  1.3068
14759TIP3    H265769   6.848   1.768  15.467 -0.8385 -1.0624  0.4029
14760TIP3   OH265770   2.102   5.791  11.840 -0.5739  0.1609 -0.1447
14760TIP3    H165771   2.178   5.806  11.895  1.6902 -3.0570 -2.0399
14760TIP3    H265772   2.052   5.723  11.886 -0.0105 -0.7464 -0.8557
14761TIP3   OH265773   4.297   4.045  16.982  0.5381  0.2532 -0.1862
14761TIP3    H165774   4.251   4.024  16.901  0.5927  0.0328 -0.1606
14761TIP3    H265775   4.373   4.096  16.954 -0.0829  1.1895 -0.1696
14762TIP3   OH265776   1.026   4.277  13.876  0.1829  0.2872  0.2710
14762TIP3    H165777   0.946   4.298  13.925 -0.2881  1.7335 -1.0245
14762TIP3    H265778   0.994   4.240  13.794  0.8210  0.9520 -0.2947
14763TIP3   OH265779   5.507   3.401   2.374  0.2609 -0.4247 -0.6116
14763TIP3    H165780   5.602   3.416   2.372  0.4551 -1.3958  0.0881
14763TIP3    H265781   5.499   3.306   2.389 -0.7988 -0.1166  1.0753
14764TIP3   OH265782   1.777   1.678  16.546  0.6468  0.0381  0.3385
14764TIP3    H165783   1.681   1.680  16.549  0.6460  2.2590  0.5211
14764TIP3    H265784   1.804   1.709  16.632  1.5684 -1.0542  0.4643
14765TIP3   OH265785   2.250   1.525  11.644 -0.6527  0.7318 -0.4036
14765TIP3    H165786   2.272   1.596  11.704 -0.2167  0.2679 -0.0056
14765TIP3    H265787   2.295   1.448  11.679  0.6060  0.7015 -1.9618
14766TIP3   OH265788   0.886   5.264   4.409 -0.3177 -0.1915 -0.1114
14766TIP3    H165789   0.882   5.301   4.321  1.6779 -0.8310 -0.5183
14766TIP3    H265790   0.968   5.215   4.411 -0.8399 -1.0932  1.7675
14767TIP3   OH265791   0.032   3.223  12.460  0.3185 -0.5153 -0.5984
14767TIP3    H165792  -0.032   3.274  12.411  0.8257  0.0708 -0.6714
14767TIP3    H265793   0.084   3.178  12.392  0.3957 -0.4768 -0.5655
14768TIP3   OH265794   4.023   5.458   1.353 -0.0693  0.4953  0.7962
14768TIP3    H165795   3.949   5.517   1.367  0.1824  0.8757  0.5423
14768TIP3    H265796   4.071   5.496   1.280 -0.7667 -0.8636 -0.4355
14769TIP3   OH265797   4.548   1.743  11.436  0.2096 -0.1117 -0.1714
14769TIP3    H165798   4.616   1.749  11.503  0.2405  0.6698 -0.2659
14769TIP3    H265799   4.518   1.833  11.424 -0.9436 -0.4677 -0.0320
14770TIP3   OH265800   6.163   6.457  11.350  0.2626  0.3737  0.6345
14770TIP3    H165801   6.165   6.525  11.417  0.4732 -0.0365  1.0514
14770TIP3    H265802   6.119   6.383  11.393 -0.2490  0.3484  0.0861
14771TIP3   OH265803   4.026   1.691  15.449  0.1538 -0.0243 -0.2797
14771TIP3    H165804   3.985   1.757  15.503  1.0458 -1.1111  1.8524
14771TIP3    H265805   4.002   1.714  15.359  0.1002  2.8960  0.4048
14772TIP3   OH265806   1.351   2.379  12.402 -0.1374  0.6034 -0.0862
14772TIP3    H165807   1.413   2.319  12.444 -2.1271  0.2725  2.6062
14772TIP3    H265808   1.339   2.342  12.314  0.3885 -1.6802  0.7226
14773TIP3   OH265809   0.225   4.870   0.452 -0.4049 -0.0011 -0.2735
14773TIP3    H165810   0.229   4.874   0.356 -1.4606 -1.9901 -0.4367
14773TIP3    H265811   0.241   4.779   0.473  0.4407  0.5271  1.5189
14774TIP3   OH265812   2.749   0.415  14.252  0.4647 -0.0416 -0.8701
14774TIP3    H165813   2.801   0.337  14.270 -0.2276 -0.1692  0.7195
14774TIP3    H265814   2.669   0.403  14.303  0.2262  1.5719 -0.8133
14775TIP3   OH265815   4.927   0.985  15.400  0.1883 -0.0633 -0.0961
14775TIP3    H165816   4.847   1.009  15.448 -0.3822 -0.9392 -0.5859
14775TIP3    H265817   4.903   0.906  15.351  1.6234 -0.9052  0.4813
14776TIP3   OH265818   0.710   4.712   1.382  0.2978  0.1193 -0.0480
14776TIP3    H165819   0.691   4.669   1.298  0.0686 -0.9607  0.5507
14776TIP3    H265820   0.788   4.765   1.364  0.8971 -0.9426 -0.6724
14777TIP3   OH265821   5.627   3.519  16.394  0.1196  0.1199 -0.1956
14777TIP3    H165822   5.590   3.470  16.467 -0.4421  0.2468 -0.3906
14777TIP3    H265823   5.560   3.582  16.370  0.7861  0.8993 -0.0393
14778TIP3   OH265824   4.953   6.804   1.430  0.1438 -0.1912 -0.1987
14778TIP3    H165825   4.952   6.815   1.335  0.6907  1.4407 -0.0433
14778TIP3    H265826   5.042   6.773   1.449 -0.0590 -0.8083 -0.2354
14779TIP3   OH265827   1.870   3.811   4.690  0.6171  0.0936 -0.2471
14779TIP3    H165828   1.841   3.720   4.682  1.4131 -0.3936  1.7933
14779TIP3    H265829   1.963   3.808   4.667  0.5611  0.4558 -0.5170
14780TIP3   OH265830   2.468   5.018  14.394 -0.3972  0.3470 -0.4198
14780TIP3    H165831   2.460   5.101  14.347 -0.9405  0.3822 -0.2691
14780TIP3    H265832   2.562   5.008  14.409 -0.2342  0.4439 -1.3164
14781TIP3   OH265833   4.215   2.269  13.050 -0.4302 -0.1892  0.1430
14781TIP3    H165834   4.310   2.279  13.057 -0.5605  0.9203  0.4408
14781TIP3    H265835   4.198   2.268  12.956 -0.2866  1.3578  0.0863
14782TIP3   OH265836   0.643   6.719  12.320 -0.0768 -0.4507 -0.1658
14782TIP3    H165837   0.552   6.697  12.341 -0.6907  2.5503  0.8619
14782TIP3    H265838   0.661   6.672  12.238 -2.0195 -2.2510  0.3511
14783TIP3   OH265839   1.237   4.124   4.074 -0.3649 -0.3547  0.0473
14783TIP3    H165840   1.278   4.055   4.126  1.7465  1.4647  1.0153
14783TIP3    H265841   1.166   4.156   4.129  0.5333  0.1580  0.9597
14784TIP3   OH265842   1.796   2.767   0.873  0.1364 -0.3780 -0.1277
14784TIP3    H165843   1.744   2.782   0.952 -0.3194  0.2185 -0.5308
14784TIP3    H265844   1.870   2.827   0.882 -0.8548  1.0322 -0.9851
14785TIP3   OH265845   0.646   0.600  14.768 -0.2854  0.0542  0.2406
14785TIP3    H165846   0.611   0.678  14.723 -2.6421 -1.0773 -0.0450
14785TIP3    H265847   0.582   0.531  14.749  0.8923 -1.5618  1.8291
14786TIP3   OH265848   4.540   3.329  16.679 -0.3069  0.3387 -0.0959
14786TIP3    H165849   4.545   3.338  16.775 -0.3482  0.2730 -0.0872
14786TIP3    H265850   4.537   3.419  16.647 -0.5428  0.3594 -0.0212
14787TIP3   OH265851   6.259   2.351   3.560  0.4304  0.4143 -1.1773
14787TIP3    H165852   6.258   2.406   3.482 -1.5440 -0.2188 -1.6553
14787TIP3    H265853   6.246   2.412   3.633  1.4947  0.9141 -1.3871
14788TIP3   OH265854   2.475   6.198  11.638 -0.3502  0.4780 -0.2330
14788TIP3    H165855   2.501   6.107  11.625 -0.3631  0.4041  0.2426
14788TIP3    H265856   2.496   6.216  11.730 -0.2866  0.9724 -0.3443
14789TIP3   OH265857   2.444   6.549  11.871 -0.4888 -0.1377  0.0139
14789TIP3    H165858   2.377   6.588  11.816 -1.4521  0.9103  1.8186
14789TIP3    H265859   2.404   6.469  11.906 -0.1804 -0.3754 -0.1671
14790TIP3   OH265860   2.291   6.271  13.890 -0.3702 -0.0698  0.3408
14790TIP3    H165861   2.245   6.200  13.847  0.1300 -1.6262  2.2179
14790TIP3    H265862   2.261   6.350  13.845  0.0213 -1.5168 -2.6498
14791TIP3   OH265863   4.589   0.989   2.168  0.1707  0.2026  0.0199
14791TIP3    H165864   4.652   0.959   2.234 -1.2373 -0.0336  1.3192
14791TIP3    H265865   4.601   1.084   2.165 -2.1227  0.7558  3.3392
14792TIP3   OH265866   2.418   1.271   6.094  0.6236  0.0114  0.3143
14792TIP3    H165867   2.483   1.332   6.129  2.7636 -2.7076  1.4595
14792TIP3    H265868   2.380   1.229   6.172 -2.6207  1.4671 -0.3169
14793TIP3   OH265869   2.998   2.564   2.119 -0.7521  0.0664  0.1456
14793TIP3    H165870   2.919   2.515   2.095  0.0912 -0.9102 -0.7524
14793TIP3    H265871   2.966   2.636   2.173 -2.4773  0.7317 -1.6196
14794TIP3   OH265872   1.088   6.602  15.999  0.1154  0.3520 -0.9251
14794TIP3    H165873   1.175   6.602  16.040 -0.1631 -0.7720 -0.2873
14794TIP3    H265874   1.031   6.638  16.067 -0.1009 -0.0403 -0.8973
14795TIP3   OH265875   5.128   2.042   2.385  0.5473  0.1140 -0.1201
14795TIP3    H165876   5.068   2.020   2.456 -0.6572  0.7202 -0.9263
14795TIP3    H265877   5.138   2.137   2.390  1.3942  0.0351 -0.0566
14796TIP3   OH265878   1.662   0.011   0.183  0.3530 -0.4895 -0.0642
14796TIP3    H165879   1.634  -0.008   0.273  0.3340  0.4409  0.1423
14796TIP3    H265880   1.706   0.096   0.189  1.4156 -0.9658 -0.7428
14797TIP3   OH265881   2.265   0.264  12.887  0.3759 -0.2183  0.0788
14797TIP3    H165882   2.350   0.305  12.901  0.4474 -0.0297 -0.8760
14797TIP3    H265883   2.278   0.172  12.910  0.8174 -0.1744  0.0142
14798TIP3   OH265884   5.962   2.969  13.358 -0.4955  0.3238 -0.5467
14798TIP3    H165885   6.005   2.889  13.331 -1.9180 -0.9837  0.8407
14798TIP3    H265886   6.032   3.023  13.396 -0.0291 -1.7973  1.8324
14799TIP3   OH265887   2.107   5.073  14.543 -0.6988 -0.2358  0.1707
14799TIP3    H165888   2.137   4.985  14.566 -2.9353 -1.7925 -2.2368
14799TIP3    H265889   2.096   5.070  14.448 -3.3354  1.7479  0.2913
14800TIP3   OH265890   6.725   3.510   0.467 -0.2229 -0.1017  0.0493
14800TIP3    H165891   6.675   3.456   0.528  0.5134 -0.0432  0.7239
14800TIP3    H265892   6.785   3.449   0.424  1.7499  0.3439  1.9758
14801TIP3   OH265893   4.435   2.606  10.422  0.0206  0.0325  0.3412
14801TIP3    H165894   4.386   2.533  10.462  0.6937 -1.0482 -0.7521
14801TIP3    H265895   4.374   2.643  10.359  0.0769 -0.3468  0.0591
14802TIP3   OH265896   5.338   4.766   3.191  0.4261  0.0239 -0.0016
14802TIP3    H165897   5.304   4.738   3.106  0.7687  0.8990 -0.4441
14802TIP3    H265898   5.426   4.798   3.171  0.9036 -0.7102  0.8580
14803TIP3   OH265899   4.108   6.091  10.999  0.3050 -0.5455  0.3911
14803TIP3    H165900   4.030   6.075  10.947  1.4973 -1.2491 -1.2711
14803TIP3    H265901   4.166   6.141  10.941  0.9119  0.4030  1.7571
14804TIP3   OH265902   0.862   5.414   2.343  0.0557  0.3744  0.1176
14804TIP3    H165903   0.942   5.395   2.393 -1.4236 -1.4869  2.0101
14804TIP3    H265904   0.884   5.392   2.253  1.0685 -2.5562  0.9423
14805TIP3   OH265905   2.993   2.957   2.143 -0.2360 -0.1020  0.8508
14805TIP3    H165906   2.988   2.891   2.212 -1.8929 -1.0980 -0.1382
14805TIP3    H265907   2.947   2.917   2.069  2.0160  0.6428 -1.0819
14806TIP3   OH265908   6.670   5.383   4.275 -0.0760  0.0269 -0.4926
14806TIP3    H165909   6.590   5.434   4.284 -2.3726 -3.0927 -1.3859
14806TIP3    H265910   6.646   5.312   4.216  4.1900  0.3932 -3.0663
14807TIP3   OH265911   3.265   2.549   3.553 -0.3523 -0.2076 -0.2690
14807TIP3    H165912   3.294   2.509   3.471  3.1348 -1.2383  1.2829
14807TIP3    H265913   3.252   2.476   3.613  3.4499  0.5868  1.8314
14808TIP3   OH265914   6.352   0.197  16.509  0.2123 -0.3823  0.0997
14808TIP3    H165915   6.378   0.282  16.475  2.7035 -1.3208 -0.5610
14808TIP3    H265916   6.267   0.180  16.469 -1.1619  2.4198  1.5183
14809TIP3   OH265917   3.983   1.380   3.849  0.0910 -0.1136  0.9248
14809TIP3    H165918   4.059   1.336   3.887  1.2163  1.3630  0.4784
14809TIP3    H265919   3.920   1.386   3.921  1.2454  0.5250  1.9144
14810TIP3   OH265920   6.545   1.198  12.422  0.1410 -0.2859 -0.2276
14810TIP3    H165921   6.639   1.188  12.407  0.2714  0.1891  0.2437
14810TIP3    H265922   6.518   1.264  12.359  0.2099 -0.1071 -0.0718
14811TIP3   OH265923   0.938   5.391   6.438  0.1147 -0.0435  0.3077
14811TIP3    H165924   0.957   5.310   6.390  0.5723 -0.6679  1.4997
14811TIP3    H265925   0.842   5.398   6.436  0.1775  0.7839 -1.9983
14812TIP3   OH265926   0.786   4.585  15.125 -0.2095 -0.2100 -0.7077
14812TIP3    H165927   0.757   4.675  15.113 -1.7474 -0.8494 -2.0625
14812TIP3    H265928   0.798   4.576  15.220  3.4798  2.3948 -0.7022
14813TIP3   OH265929   2.091   2.354  15.476 -0.1383 -0.0352 -0.7653
14813TIP3    H165930   2.063   2.421  15.539  0.8144  1.1334 -1.5240
14813TIP3    H265931   2.157   2.304  15.522 -1.2885 -0.8761  0.0171
14814TIP3   OH265932   6.124   6.371   1.435 -0.1363 -0.1810 -0.0902
14814TIP3    H165933   6.127   6.319   1.354 -2.1324 -0.7219  0.1241
14814TIP3    H265934   6.109   6.461   1.405 -0.1836 -0.2744 -0.3539
14815TIP3   OH265935   3.472   0.904   2.684 -0.5235 -0.2719  0.2332
14815TIP3    H165936   3.566   0.923   2.679 -1.0978  3.2659  0.4779
14815TIP3    H265937   3.430   0.972   2.632 -3.0111 -1.4747  0.5106
14816TIP3   OH265938   2.782   1.847  16.344 -0.4803 -0.1765  0.0439
14816TIP3    H165939   2.739   1.764  16.323 -3.3628  0.9643  0.9482
14816TIP3    H265940   2.842   1.862  16.271 -1.3504 -2.0745 -1.1474
14817TIP3   OH265941   0.139   6.599   2.925  0.3964 -0.2894  0.4334
14817TIP3    H165942   0.095   6.639   3.000 -1.0062 -1.1166  0.0952
14817TIP3    H265943   0.105   6.646   2.849  1.1787 -0.0109  0.2503
14818TIP3   OH265944   2.102   6.076  13.773 -0.5937  0.3903  0.0944
14818TIP3    H165945   2.159   6.077  13.696 -0.3556 -0.7542  0.2409
14818TIP3    H265946   2.027   6.130  13.748 -0.4781  0.1040 -0.9040
14819TIP3   OH265947   5.307   0.281   5.113 -0.1229 -0.2319 -0.1687
14819TIP3    H165948   5.319   0.293   5.019 -2.9788  0.7495 -0.4967
14819TIP3    H265949   5.229   0.225   5.120  0.6821 -1.2322  1.6444
14820TIP3   OH265950   5.360   5.695   4.482  0.0686 -0.0846  0.4784
14820TIP3    H165951   5.273   5.717   4.515 -0.3899  0.7009 -1.1343
14820TIP3    H265952   5.346   5.619   4.426  0.1802  0.7894 -0.7747
14821TIP3   OH265953   1.116   6.663   2.306 -0.0250  0.0092 -0.8715
14821TIP3    H165954   1.136   6.581   2.350 -0.4457 -0.3139 -1.2778
14821TIP3    H265955   1.086   6.638   2.218  0.7328  0.6374 -1.3318
14822TIP3   OH265956   5.651   6.060  15.595  0.3210  0.2361 -0.1893
14822TIP3    H165957   5.568   6.019  15.571 -0.5542  1.8687 -0.0876
14822TIP3    H265958   5.685   6.005  15.666 -1.0020 -0.0970  0.2118
14823TIP3   OH265959   2.991   2.975   2.552 -0.4879  0.5724 -0.0500
14823TIP3    H165960   2.931   2.999   2.622  0.3313  0.5806  0.6596
14823TIP3    H265961   3.079   2.990   2.588 -0.0105 -0.9665 -0.4885
14824TIP3   OH265962   0.268   1.667  16.170 -0.3432  0.3585  0.0605
14824TIP3    H165963   0.319   1.587  16.156  0.6276  0.6856  1.4990
14824TIP3    H265964   0.317   1.715  16.237 -2.8828  0.3809  2.0386
14825TIP3   OH265965   5.076   3.952   4.744 -0.1862 -0.1738 -0.2911
14825TIP3    H165966   5.056   3.887   4.677 -1.0716  0.2198 -0.4236
14825TIP3    H265967   5.101   3.901   4.821  0.2171 -0.6400 -0.7290
14826TIP3   OH265968   2.592   2.542   4.268  0.4380 -0.0706 -0.2251
14826TIP3    H165969   2.528   2.565   4.202  0.1748  0.7549  0.2976
14826TIP3    H265970   2.644   2.472   4.229  0.3597  0.4791 -1.3349
14827TIP3   OH265971   2.147   3.999   0.717 -0.7602  0.0435 -0.1984
14827TIP3    H165972   2.169   3.961   0.632  0.0472 -1.5475  0.6585
14827TIP3    H265973   2.157   3.926   0.779 -0.8598  1.2628  1.3239
14828TIP3   OH265974   0.681   3.371  11.809 -0.1701  0.1483  0.5098
14828TIP3    H165975   0.599   3.333  11.779 -0.9998  1.6520  0.7448
14828TIP3    H265976   0.746   3.301  11.800 -1.4087 -0.9638  0.0176
14829TIP3   OH265977   3.836   4.047   1.097 -0.3270  0.5734 -0.6636
14829TIP3    H165978   3.817   4.119   1.158 -0.6484  1.1750 -1.4506
14829TIP3    H265979   3.807   3.968   1.142 -0.2854  0.9797  0.0808
14830TIP3   OH265980   3.719   2.095  14.312 -0.5596 -0.1867  0.3430
14830TIP3    H165981   3.736   2.154  14.240  0.7495 -1.8019 -0.7388
14830TIP3    H265982   3.732   2.148  14.391  0.5490  0.9528 -0.5791
14831TIP3   OH265983   2.609   6.143   5.956  0.3570 -0.6278  0.0679
14831TIP3    H165984   2.656   6.138   5.873  1.9878 -0.5161  0.9322
14831TIP3    H265985   2.667   6.193   6.013  0.6407 -3.0836  2.1262
14832TIP3   OH265986   0.433   2.833   2.800 -0.3337 -0.0581  0.1649
14832TIP3    H165987   0.497   2.903   2.786 -1.8447  0.9807 -2.2209
14832TIP3    H265988   0.435   2.818   2.895  0.2686  3.0615  0.7653
14833TIP3   OH265989   1.278   2.431  16.437  0.2687 -0.6849  0.2305
14833TIP3    H165990   1.225   2.354  16.420 -2.3073  1.1003 -0.3380
14833TIP3    H265991   1.271   2.445  16.532 -1.2173  0.1120  0.0315
14834TIP3   OH265992   5.945   4.118  16.895  0.0312  0.4895  0.0835
14834TIP3    H165993   5.863   4.109  16.943 -0.4483  1.3692 -0.5424
14834TIP3    H265994   5.965   4.029  16.864 -1.1445  0.4051 -0.4845
14835TIP3   OH265995   3.121   5.537  12.619 -0.1316  0.5121 -0.3251
14835TIP3    H165996   3.116   5.442  12.604  2.0937 -0.0569  2.0267
14835TIP3    H265997   3.051   5.555  12.682  0.0990  0.2265  0.0179
14836TIP3   OH265998   5.151   4.804   2.919 -0.2334 -0.0179  0.0977
14836TIP3    H165999   5.193   4.848   2.846  1.2594  0.5644  1.2568
14836TIP3    H266000   5.132   4.716   2.886 -1.6940  0.9035 -1.6936
14837TIP3   OH266001   2.486   1.676   4.524  0.1028  0.4320 -0.3677
14837TIP3    H166002   2.458   1.587   4.504 -1.1711  0.8401 -0.5296
14837TIP3    H266003   2.421   1.708   4.587  0.6714  1.1730 -0.1342
14838TIP3   OH266004   3.942   1.940   5.610  0.3849  0.2251 -0.3796
14838TIP3    H166005   4.029   1.937   5.570  0.9899  0.8434  0.8625
14838TIP3    H266006   3.921   1.848   5.627  1.7632  0.1684  1.3032
14839TIP3   OH266007   0.108   3.230   4.414  0.3113 -0.3592 -0.0001
14839TIP3    H166008   0.031   3.212   4.468 -0.4747 -0.1295 -1.0216
14839TIP3    H266009   0.095   3.320   4.384  0.6325 -0.5617 -0.7513
14840TIP3   OH266010   4.671   2.575  12.222 -0.5482 -0.5287  0.1664
14840TIP3    H166011   4.703   2.653  12.175 -0.7365 -0.1859  0.6022
14840TIP3    H266012   4.712   2.501  12.176 -0.2883 -0.1703 -0.1890
14841TIP3   OH266013   5.315   3.613  12.606 -0.0887  0.9371 -0.5855
14841TIP3    H166014   5.335   3.547  12.671 -0.0214  0.1389 -1.3983
14841TIP3    H266015   5.296   3.692  12.657 -2.4316 -0.2525  0.5198
14842TIP3   OH266016   4.423   4.526  11.067 -0.1281 -0.5290 -0.0442
14842TIP3    H166017   4.414   4.621  11.074  1.8665 -0.3646  1.0652
14842TIP3    H266018   4.414   4.508  10.973  3.6575  1.3701 -0.9988
14843TIP3   OH266019   3.678   6.775  15.853  0.4814  0.0010  0.1184
14843TIP3    H166020   3.650   6.684  15.861  1.0299 -0.3338 -1.4040
14843TIP3    H266021   3.651   6.801  15.766  0.9094  1.0977  0.2973
14844TIP3   OH266022   6.532   6.695   2.718  0.1834 -0.2895  0.6413
14844TIP3    H166023   6.546   6.632   2.648 -0.6348  0.2406 -0.0349
14844TIP3    H266024   6.564   6.652   2.797 -0.0662 -1.4152  0.1485
14845TIP3   OH266025   3.438   1.546  16.548 -0.1466  0.1318 -0.1049
14845TIP3    H166026   3.507   1.481  16.538  0.1568  0.4098  0.1731
14845TIP3    H266027   3.457   1.589  16.631 -0.4155  0.4917 -0.2253
14846TIP3   OH266028   5.993   5.490  13.879 -0.0290 -0.0674 -0.4147
14846TIP3    H166029   6.056   5.450  13.939 -1.8737 -2.9822 -0.2242
14846TIP3    H266030   5.934   5.539  13.935  2.7396  4.0883 -0.7160
14847TIP3   OH266031   0.454   4.509  11.825 -0.3159 -0.0877  0.0844
14847TIP3    H166032   0.366   4.494  11.790  0.3226 -0.9137 -1.2547
14847TIP3    H266033   0.443   4.579  11.888 -2.1090 -0.8552  0.6910
14848TIP3   OH266034   6.729   3.338  15.565  0.0572  0.1291 -0.0277
14848TIP3    H166035   6.646   3.385  15.574 -1.4749 -2.3590 -0.2365
14848TIP3    H266036   6.752   3.312  15.654 -0.8927 -1.5413 -0.2424
14849TIP3   OH266037   2.047   4.673  14.292  0.0710  0.2277 -0.6202
14849TIP3    H166038   2.091   4.752  14.262  2.0516 -0.6540 -0.1594
14849TIP3    H266039   2.041   4.618  14.213  0.1648  0.1829 -0.5957
14850TIP3   OH266040   2.095   4.920  14.028  0.4835 -0.3337  0.0274
14850TIP3    H166041   2.155   4.994  14.024  0.5746 -0.3094  1.2431
14850TIP3    H266042   2.144   4.847  13.991  0.9199 -0.1027  0.1396
14851TIP3   OH266043   5.540   1.478  16.650  0.5557  0.1035 -0.3797
14851TIP3    H166044   5.616   1.422  16.634  0.7293  0.3407 -0.3824
14851TIP3    H266045   5.565   1.533  16.724  0.4342  0.2640 -0.4561
14852TIP3   OH266046   1.037   6.423   6.146  0.0702  0.0199 -0.5922
14852TIP3    H166047   1.072   6.399   6.060  0.3966  0.1959 -0.5083
14852TIP3    H266048   0.999   6.342   6.180  0.6608 -0.2467 -0.5526
14853TIP3   OH266049   3.671   0.968  16.739  0.8203 -0.2359  0.7197
14853TIP3    H166050   3.688   0.887  16.787 -1.1140 -2.4494 -2.0395
14853TIP3    H266051   3.583   0.995  16.766  0.4867 -0.4441 -0.1167
14854TIP3   OH266052   5.232   1.553   0.949 -0.3562 -0.4758  0.6101
14854TIP3    H166053   5.145   1.552   0.909  0.0070 -0.3378 -0.1913
14854TIP3    H266054   5.214   1.565   1.043 -1.1613  0.7085  0.3361
14855TIP3   OH266055   3.940   4.677  15.187  0.5054  0.6726 -0.3914
14855TIP3    H166056   3.998   4.716  15.122  1.8789  0.7578  0.8135
14855TIP3    H266057   3.892   4.610  15.140  1.6446  0.5606 -1.4454
14856TIP3   OH266058   3.055   0.933  15.739  0.0334  0.1997  0.1160
14856TIP3    H166059   2.999   0.962  15.811 -0.2718  1.0161 -0.4256
14856TIP3    H266060   3.127   0.886  15.781 -0.9086 -0.6374  0.8465
14857TIP3   OH266061   0.123   6.743   4.492 -0.1093 -0.4593 -0.2583
14857TIP3    H166062   0.170   6.773   4.570  2.2186  0.6957 -2.0014
14857TIP3    H266063   0.082   6.822   4.458 -0.2913 -0.7663 -0.7530
14858TIP3   OH266064   5.655   3.927   4.447 -0.1771  0.1047  0.5316
14858TIP3    H166065   5.626   4.016   4.468 -0.0782 -0.4400  3.4432
14858TIP3    H266066   5.607   3.872   4.508  1.5872 -1.5739  0.4966
14859TIP3   OH266067   4.866   2.969   4.009 -0.8549 -0.3431 -0.4116
14859TIP3    H166068   4.826   3.006   4.089 -1.7505 -1.9652 -0.0650
14859TIP3    H266069   4.803   2.990   3.940  0.2960  1.7540 -0.8837
14860TIP3   OH266070   3.449   2.111   4.174  0.3837 -0.1853  0.1009
14860TIP3    H166071   3.521   2.055   4.147  1.3845  0.1955  1.7982
14860TIP3    H266072   3.423   2.076   4.260 -0.4210  0.6192  0.2010
14861TIP3   OH266073   5.619   5.686  13.183 -0.4757  0.2871 -0.1112
14861TIP3    H166074   5.688   5.704  13.247 -0.2363  0.5750 -0.4532
14861TIP3    H266075   5.663   5.642  13.111 -0.5277  1.0700 -0.6279
14862TIP3   OH266076   2.702   1.681   0.284 -0.0726  0.0788 -0.2620
14862TIP3    H166077   2.737   1.598   0.252  1.2843  0.8428 -0.8203
14862TIP3    H266078   2.718   1.679   0.378  0.2541 -0.1428 -0.3223
14863TIP3   OH266079   4.447   3.219   5.705 -0.1539  0.2998 -0.3743
14863TIP3    H166080   4.477   3.253   5.620  0.4556  1.1167  0.1455
14863TIP3    H266081   4.500   3.141   5.720  0.7555  0.9426 -0.1171
14864TIP3   OH266082   3.956   2.456   0.030 -0.0136  0.1494 -0.3534
14864TIP3    H166083   3.942   2.361   0.031  0.4231  0.0610  1.9301
14864TIP3    H266084   4.040   2.468   0.074  0.7425  1.5360 -2.0531
14865TIP3   OH266085   6.571   6.523   1.620 -0.3101 -0.0166 -0.6622
14865TIP3    H166086   6.553   6.436   1.654 -0.6382  1.3334  3.2215
14865TIP3    H266087   6.667   6.530   1.621 -0.3009 -0.1651 -0.5056
14866TIP3   OH266088   4.538   2.538  15.405  0.1611 -0.0670 -0.3917
14866TIP3    H166089   4.553   2.526  15.499  0.1562 -1.2169 -0.5311
14866TIP3    H266090   4.600   2.606  15.379  1.1377 -0.7213  0.1767
14867TIP3   OH266091   1.137   0.142  16.619  0.1277 -0.5325  0.0225
14867TIP3    H166092   1.182   0.162  16.537 -0.2524  0.0368 -0.0537
14867TIP3    H266093   1.079   0.070  16.597 -1.3133  0.7897 -0.6943
14868TIP3   OH266094   3.028   3.000   1.000  0.2646  0.4104  0.3284
14868TIP3    H166095   3.107   3.044   1.033  0.4872 -0.1858  0.6233
14868TIP3    H266096   3.026   3.020   0.907  1.3407 -0.3866  0.1103
14869TIP3   OH266097   4.866   1.644   4.482 -0.2630 -0.1800  0.2095
14869TIP3    H166098   4.869   1.732   4.444  0.1283  1.5800  3.8893
14869TIP3    H266099   4.848   1.586   4.408  1.2929  2.7594 -2.6803
14870TIP3   OH266100   2.993   0.521  12.425  0.2582  0.0284 -0.2296
14870TIP3    H166101   3.011   0.429  12.406  1.4352  0.6797 -2.5580
14870TIP3    H266102   3.078   0.559  12.446 -0.2902  0.5225  1.2568
14871TIP3   OH266103   6.136   5.227   3.977  0.1766  0.0582 -0.3927
14871TIP3    H166104   6.173   5.144   3.947 -1.8423 -0.5066 -1.4879
14871TIP3    H266105   6.188   5.250   4.054  1.3111 -1.7938 -0.5527
14872TIP3   OH266106   4.144   2.132  13.286 -0.0670  0.0838  0.0368
14872TIP3    H166107   4.193   2.167  13.212  2.3881 -0.1300  1.4215
14872TIP3    H266108   4.052   2.149  13.266  0.6613  1.9408 -2.0301
14873TIP3   OH266109   5.277   0.294   0.840 -0.0628 -0.7774  0.1883
14873TIP3    H166110   5.283   0.373   0.894 -0.5556 -1.1591  0.8116
14873TIP3    H266111   5.306   0.322   0.753 -0.1118  0.0558  0.4343
14874TIP3   OH266112   0.851   4.007   0.775 -0.3474  0.1644  0.4648
14874TIP3    H166113   0.820   3.947   0.843  1.1366 -0.4521  0.6352
14874TIP3    H266114   0.918   4.059   0.818  0.1653  0.2052 -0.3619
14875TIP3   OH266115   5.873   5.537   4.805 -0.7894 -0.0445  0.2341
14875TIP3    H166116   5.926   5.587   4.868 -0.5071  3.3024 -2.3427
14875TIP3    H266117   5.782   5.560   4.827 -0.7932 -0.2361  0.4241
14876TIP3   OH266118   2.722   6.256   1.061 -0.0260 -0.4280  0.1542
14876TIP3    H166119   2.742   6.313   0.987  0.5539 -0.3923  0.3351
14876TIP3    H266120   2.627   6.260   1.069  0.0704  1.3466  0.8030
14877TIP3   OH266121   1.667   3.854  15.818  0.0902 -0.3233 -0.3721
14877TIP3    H166122   1.588   3.801  15.811 -1.5633  1.8804  0.2025
14877TIP3    H266123   1.683   3.860  15.912  0.6040 -0.3176 -0.4603
14878TIP3   OH266124   4.369   3.836   0.001 -0.4673  0.2512  0.2554
14878TIP3    H166125   4.329   3.882  -0.073  1.1486  0.6017 -0.4451
14878TIP3    H266126   4.346   3.744  -0.012  1.9489 -0.1410 -2.2629
14879TIP3   OH266127   1.135   1.091   1.528  0.7539 -0.1199  0.1487
14879TIP3    H166128   1.162   1.179   1.503 -2.1071  0.2588 -2.2354
14879TIP3    H266129   1.154   1.037   1.451  1.1050 -1.2899  1.0228
14880TIP3   OH266130   1.723   1.442  12.517  0.6747  0.0677  0.2618
14880TIP3    H166131   1.637   1.399  12.520  0.5815  0.2650  0.3904
14880TIP3    H266132   1.730   1.477  12.428  1.5046 -1.7718 -0.4512
14881TIP3   OH266133   5.445   4.874  10.702 -0.2271  0.9986 -0.6670
14881TIP3    H166134   5.532   4.911  10.719  0.0259 -0.3508  1.3740
14881TIP3    H266135   5.388   4.950  10.689  0.8803  1.9709  0.0136
14882TIP3   OH266136   1.615   6.468   4.141 -1.0761 -0.0863 -0.0041
14882TIP3    H166137   1.675   6.542   4.145 -2.2174  1.0030 -1.4716
14882TIP3    H266138   1.667   6.392   4.167  0.6997  0.9168 -0.4985
14883TIP3   OH266139   2.672   3.736  14.988  0.3003 -0.7734 -0.1331
14883TIP3    H166140   2.629   3.792  15.053  1.0834  1.0779 -1.1304
14883TIP3    H266141   2.670   3.649  15.027 -0.5214  0.0160  1.7332
14884TIP3   OH266142   5.602   4.607   2.142  0.4005  0.0090  0.2173
14884TIP3    H166143   5.590   4.671   2.071  0.1258 -0.5816 -0.2744
14884TIP3    H266144   5.693   4.620   2.171  0.3937  0.5176  0.0189
14885TIP3   OH266145   4.375   0.850  14.917  0.1015  0.2245 -0.0596
14885TIP3    H166146   4.363   0.768  14.964  0.2911 -0.0599 -0.5051
14885TIP3    H266147   4.404   0.912  14.984 -0.0330 -0.0740  0.2756
14886TIP3   OH266148   5.806   0.151  16.337  1.1885 -0.4394  0.5809
14886TIP3    H166149   5.877   0.100  16.297  1.0235  0.9284 -1.6428
14886TIP3    H266150   5.830   0.158  16.429  1.9927 -3.1481  0.6535
14887TIP3   OH266151   2.823   4.936  15.186  0.6934  0.3099  0.6732
14887TIP3    H166152   2.831   4.897  15.273  0.7513  1.6438  1.2771
14887TIP3    H266153   2.785   5.023  15.201 -2.7426 -0.7037 -0.9077
14888TIP3   OH266154   0.975   5.696  12.952 -0.0211  0.2133 -0.0151
14888TIP3    H166155   0.978   5.702  12.856  0.1398  1.7232  0.0685
14888TIP3    H266156   1.046   5.752  12.982  1.5238 -2.1448  0.9792
14889TIP3   OH266157   3.118   5.274   1.919  0.5643 -0.0035 -0.3529
14889TIP3    H166158   3.025   5.256   1.935  0.7280  0.7318  1.7851
14889TIP3    H266159   3.119   5.361   1.880  0.3709  0.3173  0.3366
14890TIP3   OH266160   3.016   0.120  16.212 -0.1645 -0.6163 -0.6987
14890TIP3    H166161   2.923   0.139  16.226 -0.4224 -2.1472 -0.1578
14890TIP3    H266162   3.045   0.084  16.296  1.2054  0.8205 -0.5161
14891TIP3   OH266163   2.608   4.299  14.773  0.4934 -0.8417 -0.0400
14891TIP3    H166164   2.588   4.377  14.721  0.3746 -0.8954 -0.0750
14891TIP3    H266165   2.595   4.328  14.864  1.3778 -0.5465  0.0052
14892TIP3   OH266166   3.970   5.690  11.148  0.3977 -0.0382  0.0401
14892TIP3    H166167   4.016   5.750  11.089  1.8555 -1.0982  0.0573
14892TIP3    H266168   3.929   5.626  11.090  0.2499 -0.0023  0.1033
14893TIP3   OH266169   0.520   1.379  11.527  0.1498  0.6058 -0.0981
14893TIP3    H166170   0.441   1.325  11.519  0.3910  0.3265 -0.6657
14893TIP3    H266171   0.592   1.316  11.527  0.4580  0.9432 -1.1510
14894TIP3   OH266172   6.569   5.163  12.725 -0.2152  0.0757  0.0580
14894TIP3    H166173   6.537   5.202  12.806 -0.0750 -0.3395  0.3166
14894TIP3    H266174   6.626   5.229  12.687 -0.0032  0.1368  0.4764
14895TIP3   OH266175   4.117   5.366  12.959  0.0998  0.0682 -0.5524
14895TIP3    H166176   4.096   5.447  12.913  1.0298 -0.2030 -1.4931
14895TIP3    H266177   4.208   5.376  12.986  0.3757 -0.8289 -1.0908
14896TIP3   OH266178   2.974   5.060   5.495  0.1454 -0.2545  0.1987
14896TIP3    H166179   2.985   4.966   5.487 -1.1378 -0.4682  0.7715
14896TIP3    H266180   2.904   5.082   5.435 -1.0889 -0.0253  1.6587
14897TIP3   OH266181   3.190   4.122  12.767 -0.2842 -0.2056  0.5438
14897TIP3    H166182   3.172   4.214  12.786  0.7760  0.1679 -0.1905
14897TIP3    H266183   3.245   4.093  12.840  0.2298  0.0311  0.2519
14898TIP3   OH266184   3.196   1.716   3.454 -0.6870 -0.8370  0.6156
14898TIP3    H166185   3.209   1.756   3.368 -0.2602 -0.1885  0.9745
14898TIP3    H266186   3.230   1.627   3.444  1.3521 -0.1338  0.6695
14899TIP3   OH266187   0.375   5.379  14.083 -0.5691 -0.2495 -0.0613
14899TIP3    H166188   0.432   5.449  14.050 -1.4826 -0.1206 -1.4631
14899TIP3    H266189   0.286   5.413  14.072 -0.9677 -0.9405  0.9083
14900TIP3   OH266190   1.774   5.210   4.948 -0.1157 -0.0331 -0.0239
14900TIP3    H166191   1.770   5.119   4.978 -0.0349 -0.5484 -1.5016
14900TIP3    H266192   1.760   5.262   5.027  0.6308 -1.3116  0.9852
14901TIP3   OH266193   2.221   0.485   3.651  0.0017  0.4349  0.5326
14901TIP3    H166194   2.278   0.416   3.686  0.6508  0.5986 -0.1743
14901TIP3    H266195   2.215   0.550   3.721  0.9174  0.5475  0.5101
14902TIP3   OH266196   1.336   2.441   0.176  0.2596 -0.3013 -0.1547
14902TIP3    H166197   1.286   2.523   0.178 -0.4095 -0.6963  1.8190
14902TIP3    H266198   1.424   2.466   0.204 -0.2823 -0.3864  1.8323
14903TIP3   OH266199   3.273   2.049   5.564 -0.5257 -0.0572  0.1640
14903TIP3    H166200   3.310   1.986   5.502 -2.0283 -0.7549 -0.0557
14903TIP3    H266201   3.204   2.001   5.609 -1.2684  1.2446  0.4503
14904TIP3   OH266202   6.777   6.476   5.487 -0.5555  0.1588  0.1452
14904TIP3    H166203   6.789   6.555   5.435  0.9024  2.8665  4.1123
14904TIP3    H266204   6.690   6.485   5.526 -0.3921 -0.1948  0.6115
14905TIP3   OH266205   5.072   3.747   3.652 -1.0829 -0.0923  0.2061
14905TIP3    H166206   5.111   3.799   3.723 -1.4511  0.2132  0.1863
14905TIP3    H266207   4.979   3.768   3.656 -1.4460 -1.6864  0.9982
14906TIP3   OH266208   4.081   2.669   2.671  0.1853 -0.1101 -0.6215
14906TIP3    H166209   4.122   2.708   2.593  2.3459  1.0931  0.9870
14906TIP3    H266210   4.039   2.744   2.715 -0.2393 -0.6093 -0.1684
14907TIP3   OH266211   5.188   3.752   5.349 -0.1112 -0.2771 -0.2877
14907TIP3    H166212   5.096   3.745   5.322  0.5090 -0.3334 -2.6050
14907TIP3    H266213   5.203   3.675   5.404 -1.3737 -0.3990 -0.0862
14908TIP3   OH266214   4.083   1.732  13.174  0.2758 -0.4898  0.3171
14908TIP3    H166215   4.098   1.757  13.082  0.6535 -1.2756  0.1655
14908TIP3    H266216   4.049   1.643  13.170  2.1514 -1.2798  1.0370
14909TIP3   OH266217   0.080   1.376  13.944  0.0783 -0.0827 -0.8375
14909TIP3    H166218   0.153   1.322  13.973 -0.0361 -0.2905 -0.9370
14909TIP3    H266219   0.114   1.466  13.947  0.1843 -0.1338 -0.4189
14910TIP3   OH266220   0.357   1.076  15.556  0.4942 -0.0647  0.0326
14910TIP3    H166221   0.268   1.088  15.589  0.2682 -0.9692 -0.2195
14910TIP3    H266222   0.407   1.046  15.633 -0.0637 -2.3129 -0.4126
14911TIP3   OH266223   0.409   4.815   4.452  0.1049 -0.4782 -0.9689
14911TIP3    H166224   0.340   4.838   4.515 -1.2644 -0.4581 -2.4031
14911TIP3    H266225   0.402   4.721   4.442  1.7981 -0.8230  0.4897
14912TIP3   OH266226   2.320   1.233  14.776  0.2182 -0.2774  0.1524
14912TIP3    H166227   2.308   1.149  14.733  0.3260  0.2636 -0.9549
14912TIP3    H266228   2.248   1.238  14.840  0.5262 -1.4295  0.6039
14913TIP3   OH266229   3.791   4.405   2.399  0.8792  0.1617  0.7134
14913TIP3    H166230   3.795   4.482   2.457  3.4251  1.0608 -0.5259
14913TIP3    H266231   3.785   4.331   2.459  1.9037  1.1327  2.1031
14914TIP3   OH266232   4.050   3.966   0.632  0.0943 -0.0637  0.5068
14914TIP3    H166233   4.015   3.878   0.617  1.2816 -0.7222  1.4529
14914TIP3    H266234   3.982   4.010   0.683  0.1483 -0.9650  1.3955
14915TIP3   OH266235   5.908   0.518   2.870 -0.3561  0.1450 -0.0927
14915TIP3    H166236   5.979   0.564   2.826  0.6229 -0.2669  0.9951
14915TIP3    H266237   5.829   0.563   2.842  0.4460  1.4865 -0.2707
14916TIP3   OH266238   3.973   2.116  12.644 -0.2516 -0.4826 -0.1144
14916TIP3    H166239   4.063   2.100  12.674 -1.0502  0.0055  2.8982
14916TIP3    H266240   3.956   2.047  12.581  2.5283 -0.0259 -1.5049
14917TIP3   OH266241   2.215   6.635   3.113 -0.6485 -0.0200 -0.1723
14917TIP3    H166242   2.170   6.650   3.029  0.8268  0.3465 -0.9305
14917TIP3    H266243   2.307   6.622   3.089 -0.1551  0.3322  1.4235
14918TIP3   OH266244   2.579   4.568  15.369  0.4831  0.4710  0.3234
14918TIP3    H166245   2.616   4.655  15.349  1.5673  0.5230  2.2636
14918TIP3    H266246   2.655   4.511  15.377 -0.1026 -0.2513  0.8748
14919TIP3   OH266247   5.694   6.708  13.001  0.1677  0.1335  0.6138
14919TIP3    H166248   5.750   6.707  13.079  0.3210 -3.7670  0.6832
14919TIP3    H266249   5.753   6.686  12.929 -0.6751 -0.6788  0.1504
14920TIP3   OH266250   5.876   3.085   0.440  0.0537 -0.0409 -0.2060
14920TIP3    H166251   5.858   3.027   0.365 -0.5709 -0.4033  0.2177
14920TIP3    H266252   5.796   3.136   0.450  1.2505  2.3350 -1.7885
14921TIP3   OH266253   2.487   6.728   2.234  0.5280  0.3859 -0.4112
14921TIP3    H166254   2.440   6.665   2.179 -1.4485  0.7240  0.7986
14921TIP3    H266255   2.572   6.687   2.250 -0.2609 -1.4417 -0.6205
14922TIP3   OH266256   0.538   6.744   2.135  0.0511  0.4299  0.6054
14922TIP3    H166257   0.573   6.775   2.219  2.0011  1.2632 -0.4572
14922TIP3    H266258   0.481   6.814   2.105  1.7087  1.5242 -0.1318
14923TIP3   OH266259   5.144   5.763  10.183 -0.0923  0.0233  0.0602
14923TIP3    H166260   5.215   5.819  10.213  1.2039 -2.1689  1.3353
14923TIP3    H266261   5.188   5.687  10.144 -1.7252 -1.3248  0.7432
14924TIP3   OH266262   5.141   6.024   4.618  0.1202  0.0641 -0.2522
14924TIP3    H166263   5.147   5.998   4.526  0.6416  2.3284 -0.9066
14924TIP3    H266264   5.177   6.112   4.621  0.9788 -0.2708  2.2936
14925TIP3   OH266265   6.089   4.676  14.650  0.4021 -0.3170 -0.5003
14925TIP3    H166266   6.143   4.609  14.691 -1.0713 -2.1793 -1.4206
14925TIP3    H266267   6.110   4.757  14.697  1.8940 -1.5136  0.9880
14926TIP3   OH266268   5.730   3.061   3.091  0.6921  0.2176  0.1937
14926TIP3    H166269   5.674   2.989   3.117 -0.9145  1.4272  0.2244
14926TIP3    H266270   5.779   3.083   3.170 -0.4210  0.5559  0.8132
14927TIP3   OH266271   2.293   0.434  17.030  0.4597  0.2512 -0.0982
14927TIP3    H166272   2.207   0.413  17.068  0.8645 -0.3018  0.5282
14927TIP3    H266273   2.274   0.501  16.964 -0.4360  0.2403  0.1326
14928TIP3   OH266274   0.830   3.017   4.530 -0.2849  0.3247 -0.1826
14928TIP3    H166275   0.766   3.084   4.554 -0.9406 -0.3912  0.1051
14928TIP3    H266276   0.831   2.957   4.605 -0.5605 -0.6072 -0.9039
14929TIP3   OH266277   2.120   5.280   5.723 -0.3692  0.8670  0.3244
14929TIP3    H166278   2.117   5.184   5.731 -3.4990  0.8025 -0.3893
14929TIP3    H266279   2.211   5.299   5.700  0.3468 -1.9256  0.4408
14930TIP3   OH266280   0.324   4.568   3.242  0.4282  0.0782 -0.2342
14930TIP3    H166281   0.296   4.649   3.284  0.0303  1.2178 -2.5476
14930TIP3    H266282   0.418   4.564   3.260  0.2015  0.2373  1.1325
14931TIP3   OH266283   1.413   2.098  14.243  0.2451  0.0721 -0.0246
14931TIP3    H166284   1.366   2.022  14.209  0.1740 -0.0373  0.3169
14931TIP3    H266285   1.418   2.158  14.168 -2.0643  0.8868  0.3692
14932TIP3   OH266286   0.874   5.692  12.706 -0.0106  0.5268 -0.4734
14932TIP3    H166287   0.831   5.768  12.666 -2.1625  0.3388  1.2318
14932TIP3    H266288   0.802   5.630  12.722  0.8258  0.1860  2.6236
14933TIP3   OH266289   6.772   6.073   2.103 -0.5719  0.1767 -0.5928
14933TIP3    H166290   6.817   6.134   2.044 -1.0331  2.1303  0.9909
14933TIP3    H266291   6.797   5.986   2.070  2.4481  1.1649 -1.2227
14934TIP3   OH266292   3.237   1.546   6.092 -0.1581  0.1220 -0.2225
14934TIP3    H166293   3.296   1.604   6.141  0.8350 -0.1449 -1.0883
14934TIP3    H266294   3.185   1.502   6.160  0.6843  0.3076  0.5563
14935TIP3   OH266295   2.079   5.211   5.083  0.6169  0.1123 -0.0604
14935TIP3    H166296   2.063   5.291   5.034  3.0149  1.0882  0.5777
14935TIP3    H266297   2.081   5.239   5.175  2.2099 -0.4918  0.1285
14936TIP3   OH266298   3.712   1.633   3.407  0.0512 -0.0659  0.5797
14936TIP3    H166299   3.797   1.656   3.445 -1.5007  2.4769  2.9122
14936TIP3    H266300   3.677   1.567   3.466 -0.7435  1.0625  1.4291
14937TIP3   OH266301   0.136   6.458   1.883  0.4024  0.1801  0.3310
14937TIP3    H166302   0.062   6.453   1.821 -0.5005 -1.4642  1.4729
14937TIP3    H266303   0.096   6.481   1.966  1.7184  3.2611  0.2247
14938TIP3   OH266304   0.026   2.928   3.489  0.0001  0.0028 -0.5421
14938TIP3    H166305   0.039   3.023   3.484  2.4595 -0.2608 -0.3661
14938TIP3    H266306   0.004   2.912   3.581  1.1739  0.2608 -0.2061
14939TIP3   OH266307   2.262   2.910   3.780 -0.4848  0.2555 -0.5832
14939TIP3    H166308   2.181   2.961   3.766 -1.2821 -1.2215 -1.6943
14939TIP3    H266309   2.332   2.967   3.748 -1.4563  0.3379 -2.7896
14940TIP3   OH266310   2.384   4.066   4.333 -0.0090  0.3463  0.2214
14940TIP3    H166311   2.316   4.022   4.383  0.5420 -0.3929  0.3353
14940TIP3    H266312   2.339   4.100   4.256 -0.2268 -1.5403 -0.5262
14941TIP3   OH266313   4.994   4.448   0.952  0.7393 -0.0832 -0.6867
14941TIP3    H166314   5.015   4.399   0.873  1.5104  0.1292 -0.6255
14941TIP3    H266315   5.079   4.471   0.989  0.4167 -1.0097  0.7303
14942TIP3   OH266316   6.315   2.507  12.638 -0.2285  0.4406  0.3856
14942TIP3    H166317   6.410   2.511  12.626  0.0696 -2.0696  1.3216
14942TIP3    H266318   6.296   2.415  12.653 -2.3212  1.2474  3.8759
14943TIP3   OH266319   6.563   6.057  12.495  0.5437  0.0950  0.2353
14943TIP3    H166320   6.550   6.049  12.589  1.0560 -0.9981  0.2261
14943TIP3    H266321   6.631   5.993  12.475 -0.3751 -0.5141 -1.0546
14944TIP3   OH266322   6.794   5.552   3.107 -0.6651  0.1936 -0.0302
14944TIP3    H166323   6.879   5.527   3.070 -0.1230  1.3143  0.3949
14944TIP3    H266324   6.790   5.507   3.191 -1.6387 -1.8855 -1.1374
14945TIP3   OH266325   2.716   3.060  15.755  0.6195 -0.0716  0.0029
14945TIP3    H166326   2.779   3.131  15.767  0.7942 -0.3930  1.1581
14945TIP3    H266327   2.671   3.081  15.673 -0.1739  2.0430  0.9018
14946TIP3   OH266328   0.770   2.392   1.848 -0.1332 -0.5154 -0.2338
14946TIP3    H166329   0.843   2.356   1.798  0.0752 -0.3166 -0.0733
14946TIP3    H266330   0.800   2.390   1.939  0.3048  1.0646 -0.3256
14947TIP3   OH266331   4.258   1.158  17.027  0.0793  0.6744  0.4272
14947TIP3    H166332   4.174   1.203  17.015  0.3464  1.5413  1.6200
14947TIP3    H266333   4.247   1.075  16.981 -0.9743  1.3092 -0.5324
14948TIP3   OH266334   2.122   2.912   4.652  0.1099  0.6848  0.1141
14948TIP3    H166335   2.176   2.986   4.679  0.9159  0.8040 -1.6972
14948TIP3    H266336   2.173   2.868   4.584 -0.4934 -1.3635  0.8932
14949TIP3   OH266337   2.267   4.516  15.103  0.5676  0.3400  0.2787
14949TIP3    H166338   2.239   4.568  15.178  2.3734  2.9158 -0.6706
14949TIP3    H266339   2.187   4.492  15.058 -0.3723  3.0276  0.3726
14950TIP3   OH266340   0.853   5.207  13.816  0.4433  0.6239  0.9426
14950TIP3    H166341   0.932   5.237  13.770  0.9553 -0.6818  0.9426
14950TIP3    H266342   0.782   5.252  13.772  1.2994  4.0647  2.6972
14951TIP3   OH266343   5.501   1.953   5.550 -0.1123  0.5705  0.0838
14951TIP3    H166344   5.573   1.934   5.610  0.8399  2.2196 -0.4771
14951TIP3    H266345   5.526   1.911   5.468  0.8335  2.1010 -0.4553
14952TIP3   OH266346   0.148   2.318  13.346  0.1131 -0.1448 -0.1990
14952TIP3    H166347   0.088   2.318  13.271 -0.5402  0.1777  0.3121
14952TIP3    H266348   0.203   2.395  13.333  0.2030 -0.2524 -0.4901
14953TIP3   OH266349   4.061   3.462  15.023  0.6962  0.4058  0.0647
14953TIP3    H166350   4.074   3.367  15.019 -0.1245  0.1556  2.1031
14953TIP3    H266351   4.147   3.498  15.042  1.5962  0.4031 -3.3163
14954TIP3   OH266352   0.918   3.710   3.083 -0.1919  0.0193  0.0428
14954TIP3    H166353   0.950   3.756   3.006 -0.4523  0.5836  0.2665
14954TIP3    H266354   0.869   3.636   3.048 -0.0819  0.1207 -0.3281
14955TIP3   OH266355   4.912   5.448   4.597  0.4262  0.1033  0.0992
14955TIP3    H166356   4.979   5.387   4.630 -0.1429 -0.3935  0.3511
14955TIP3    H266357   4.829   5.403   4.612  0.0448  0.6197 -0.4203
14956TIP3   OH266358   2.370   3.898   6.193  0.1619  0.4981  0.1107
14956TIP3    H166359   2.401   3.847   6.267 -1.2793 -0.8160 -0.1553
14956TIP3    H266360   2.289   3.939   6.224  0.2360  1.0026 -0.3404
14957TIP3   OH266361   0.141   2.398  12.265 -0.1024  0.1457  0.4628
14957TIP3    H166362   0.167   2.419  12.175 -0.0608 -0.1668  0.4025
14957TIP3    H266363   0.196   2.324  12.290 -2.1052 -1.7020 -0.2932
14958TIP3   OH266364   3.032   2.550   2.494  0.0086  0.3282  0.1982
14958TIP3    H166365   3.090   2.478   2.517  1.4070  1.4368  0.2285
14958TIP3    H266366   2.944   2.512   2.499  0.6199 -1.0033  1.5540
14959TIP3   OH266367   1.543   2.240   4.058 -0.1200 -0.0502 -0.1870
14959TIP3    H166368   1.535   2.145   4.045  1.4328 -0.1139 -0.8697
14959TIP3    H266369   1.470   2.277   4.008 -0.1532 -0.8517 -0.7553
14960TIP3   OH266370   6.256   4.636  13.769 -0.2456 -0.1335 -0.1641
14960TIP3    H166371   6.220   4.560  13.815  1.5796  0.4340  2.4091
14960TIP3    H266372   6.306   4.599  13.696  0.2420 -1.3873  0.7782
14961TIP3   OH266373   2.891   2.190   2.628  0.3850  0.0983  0.0672
14961TIP3    H166374   2.884   2.162   2.536  1.9764  2.6402 -0.9371
14961TIP3    H266375   2.951   2.126   2.667  2.1874  0.7087 -1.5489
14962TIP3   OH266376   4.098   5.574   1.119 -0.6457  0.0133  0.2975
14962TIP3    H166377   4.053   5.609   1.042 -0.9848  0.1651  0.5674
14962TIP3    H266378   4.150   5.647   1.152 -0.5149 -0.0468  0.2287
14963TIP3   OH266379   0.541   5.489   2.951  0.0883 -0.1124 -0.8157
14963TIP3    H166380   0.485   5.421   2.913 -0.2511  0.2655 -1.0038
14963TIP3    H266381   0.624   5.480   2.905  0.4087 -1.1093 -0.0688
14964TIP3   OH266382   6.077   0.685   5.006  0.3004  0.2665  0.6343
14964TIP3    H166383   6.117   0.602   5.032  0.8032  0.0631 -0.7216
14964TIP3    H266384   5.996   0.660   4.962  1.1976  0.3427 -1.1898
14965TIP3   OH266385   6.664   0.242  16.306  0.3499  0.1227 -0.1116
14965TIP3    H166386   6.649   0.270  16.397 -1.2343 -1.2900  0.1323
14965TIP3    H266387   6.723   0.167  16.314 -1.3541 -1.2961  0.0318
14966TIP3   OH266388   1.019   5.890   4.861  0.2909  0.1423 -0.0825
14966TIP3    H166389   0.960   5.815   4.851 -0.7174  1.0593 -1.4336
14966TIP3    H266390   0.982   5.941   4.933  0.4336 -0.1749  0.2148
14967TIP3   OH266391   1.746   5.135  11.987 -0.1007  0.2782  0.0898
14967TIP3    H166392   1.662   5.109  12.026 -0.4226  1.0405 -0.0942
14967TIP3    H266393   1.799   5.055  11.992 -1.4182 -0.7484 -1.4409
14968TIP3   OH266394   5.881   1.038  12.771  0.3487  0.0965 -0.0935
14968TIP3    H166395   5.924   1.093  12.706  0.1121 -0.2370 -0.5299
14968TIP3    H266396   5.937   0.960  12.777 -0.3514 -0.4779 -0.8886
14969TIP3   OH266397   3.235   5.270   1.116 -0.7043  0.2019  0.5206
14969TIP3    H166398   3.197   5.248   1.201 -1.3501 -2.9690 -0.4485
14969TIP3    H266399   3.165   5.317   1.070 -1.7440 -1.3163  0.4853
14970TIP3   OH266400   2.536   1.045  11.737  0.2097 -0.4115 -0.5107
14970TIP3    H166401   2.585   1.050  11.819  3.7337  1.0892 -2.4721
14970TIP3    H266402   2.565   0.962  11.697 -1.4842 -1.1416 -0.2903
14971TIP3   OH266403   4.160   1.580  14.254 -0.6228 -0.3753  0.6092
14971TIP3    H166404   4.083   1.636  14.249  0.0479  0.4495 -1.2319
14971TIP3    H266405   4.126   1.491  14.245 -1.2513  0.0748 -2.9955
14972TIP3   OH266406   5.462   2.652  16.095  0.0044  0.7460  0.4946
14972TIP3    H166407   5.506   2.591  16.154 -0.0811  0.7841  0.5967
14972TIP3    H266408   5.394   2.600  16.052  0.4084  0.5863  0.0402
14973TIP3   OH266409   0.400   4.897  12.375 -0.1272 -0.1559 -0.3912
14973TIP3    H166410   0.422   4.843  12.451 -0.5993  2.1937  1.5480
14973TIP3    H266411   0.313   4.932  12.395  0.5193  2.0083 -1.0819
14974TIP3   OH266412   4.054   6.096  15.579 -0.1183 -0.4954  0.2192
14974TIP3    H166413   4.065   6.014  15.626 -0.1278 -0.7303 -0.1838
14974TIP3    H266414   4.142   6.132  15.571 -0.2747  0.3238  1.7822
14975TIP3   OH266415   5.904   6.161  15.518 -0.1572  0.4518  0.1712
14975TIP3    H166416   5.816   6.125  15.511  0.5035 -1.6387  1.6206
14975TIP3    H266417   5.934   6.169  15.427 -0.9366 -1.2178 -0.2654
14976TIP3   OH266418   2.496   5.110   4.739  0.8295  0.2347 -0.1329
14976TIP3    H166419   2.520   5.121   4.647  1.4213  0.8360  0.0889
14976TIP3    H266420   2.578   5.119   4.787  0.5357 -0.1435  0.4499
14977TIP3   OH266421   3.165   1.625  14.014 -0.5838 -0.3213  0.9119
14977TIP3    H166422   3.115   1.555  13.972 -2.0678 -0.1127  2.2446
14977TIP3    H266423   3.176   1.691  13.945 -1.8952 -0.5244  0.4818
14978TIP3   OH266424   0.958   1.929   0.241  0.3640 -0.6186  0.2551
14978TIP3    H166425   0.878   1.960   0.198  0.8241 -0.9049 -0.8372
14978TIP3    H266426   0.946   1.953   0.333 -0.1279  1.0957 -0.2177
14979TIP3   OH266427   3.703   0.842  16.294 -0.4999  0.1746  0.1848
14979TIP3    H166428   3.739   0.854  16.382  1.5427 -1.9929 -0.2633
14979TIP3    H266429   3.652   0.761  16.299 -0.6427  0.2093 -0.5410
14980TIP3   OH266430   0.389   3.017  15.035 -0.0190  0.2744 -0.1058
14980TIP3    H166431   0.339   2.936  15.041  0.8810 -0.4652 -1.7660
14980TIP3    H266432   0.330   3.084  15.068 -1.2622 -0.8763  0.1009
14981TIP3   OH266433   6.778   5.368  15.613  0.1035  0.5204  0.1516
14981TIP3    H166434   6.779   5.342  15.521 -0.9649  1.0188 -0.0184
14981TIP3    H266435   6.699   5.421  15.622  0.6554  1.1984  1.1676
14982TIP3   OH266436   3.530   3.338  13.207 -0.1416 -0.4158 -0.5527
14982TIP3    H166437   3.497   3.328  13.296  0.2751  0.1072 -0.3325
14982TIP3    H266438   3.616   3.296  13.208  0.2408  0.3496 -0.4657
14983TIP3   OH266439   6.068   2.039  17.109  0.3094  0.1837  0.6366
14983TIP3    H166440   6.098   2.046  17.018 -0.3429  0.2221  0.4165
14983TIP3    H266441   6.129   2.093  17.159  1.3136 -0.6793  0.3777
14984TIP3   OH266442   4.448   5.025   3.703 -0.0291 -0.3788 -0.2718
14984TIP3    H166443   4.533   5.020   3.746 -0.1878  0.5334  0.1673
14984TIP3    H266444   4.435   5.119   3.686 -0.3257 -0.6349 -1.5894
14985TIP3   OH266445   4.812   5.265   6.304 -0.4178  0.2904 -0.4504
14985TIP3    H166446   4.799   5.357   6.285 -0.8533  0.4503  0.5506
14985TIP3    H266447   4.900   5.261   6.342 -0.9782  0.5391  0.9227
14986TIP3   OH266448   5.201   4.716   0.680  0.2725 -0.7113 -0.2477
14986TIP3    H166449   5.204   4.633   0.729  1.1398 -0.3459  0.3362
14986TIP3    H266450   5.262   4.773   0.727 -2.0099  1.0374  0.7823
14987TIP3   OH266451   3.304   1.152  13.180 -0.0527  0.1185 -0.2916
14987TIP3    H166452   3.335   1.177  13.267  0.2861 -0.1656 -0.3284
14987TIP3    H266453   3.334   1.062  13.169 -1.1873 -0.2849 -0.1967
14988TIP3   OH266454   0.766   3.870  15.449  0.3487  0.7521  0.0373
14988TIP3    H166455   0.854   3.850  15.481 -0.2168 -0.6829  0.7710
14988TIP3    H266456   0.737   3.790  15.406 -0.4550  1.3465 -0.5588
14989TIP3   OH266457   2.275   3.409  12.558  0.1253 -0.4521 -0.0336
14989TIP3    H166458   2.286   3.315  12.573  0.4670 -0.3030  0.6741
14989TIP3    H266459   2.361   3.446  12.576 -0.3015  0.1382  0.8311
14990TIP3   OH266460   1.536   6.255   3.044  0.0511 -0.8912  0.3522
14990TIP3    H166461   1.536   6.340   3.087  1.6730 -0.7932  0.2142
14990TIP3    H266462   1.549   6.192   3.116  1.0774 -0.8488  0.2134
14991TIP3   OH266463   3.205   2.049  12.825 -0.7873  0.2762 -0.0777
14991TIP3    H166464   3.202   2.125  12.883  0.2081 -0.5315  1.0884
14991TIP3    H266465   3.131   1.995  12.853 -0.3845 -0.0524  0.3621
14992TIP3   OH266466   2.971   1.451   0.890  0.0698  0.4005  0.2140
14992TIP3    H166467   2.973   1.524   0.828  0.3946  0.7877  0.6822
14992TIP3    H266468   2.877   1.434   0.904 -0.0155 -0.2127 -0.9883
14993TIP3   OH266469   5.016   1.927   1.667 -0.0378  0.1522  0.1956
14993TIP3    H166470   5.096   1.959   1.709 -2.1407  5.9194  0.5919
14993TIP3    H266471   5.031   1.943   1.573 -1.1034  2.7997  0.3969
14994TIP3   OH266472   3.062   3.494   4.896 -0.3897 -0.1341 -0.2294
14994TIP3    H166473   3.063   3.538   4.811  3.2679 -0.7215 -0.6369
14994TIP3    H266474   3.059   3.565   4.960  0.2549  0.4898 -0.8772
14995TIP3   OH266475   1.217   2.006  13.992  0.3234  0.7865 -0.0755
14995TIP3    H166476   1.230   1.972  13.904 -2.8552  1.7063 -1.0601
14995TIP3    H266477   1.244   1.935  14.050 -1.3573 -1.5086 -1.9070
14996TIP3   OH266478   3.963   3.392   5.421  0.0576 -0.2181  0.4106
14996TIP3    H166479   4.038   3.365   5.474 -0.8340 -1.4454  1.0950
14996TIP3    H266480   3.887   3.372   5.475 -0.8075  0.1368 -0.6420
14997TIP3   OH266481   1.245   6.543  12.347  0.3303 -0.7686 -0.3760
14997TIP3    H166482   1.304   6.583  12.283  0.0698  1.2228  0.5559
14997TIP3    H266483   1.253   6.598  12.425 -3.5769  0.3228 -0.5329
14998TIP3   OH266484   2.767   5.184   2.700  0.2956 -0.7641  0.2434
14998TIP3    H166485   2.743   5.138   2.780  0.6857 -2.1043 -0.3693
14998TIP3    H266486   2.860   5.168   2.690  1.2382  2.8524  1.6320
14999TIP3   OH266487   6.633   1.440  12.655 -0.3340 -0.0117  0.2643
14999TIP3    H166488   6.566   1.425  12.588 -1.0751 -0.8607  1.1622
14999TIP3    H266489   6.584   1.449  12.736  0.5837  0.4694  0.7804
15000TIP3   OH266490   3.026   4.810  16.202 -0.3103  0.6381  0.5628
15000TIP3    H166491   3.029   4.717  16.225 -1.2248  0.2298 -0.8717
15000TIP3    H266492   3.032   4.812  16.107 -1.8944  1.9300  0.4317
15001TIP3   OH266493   6.491   3.948  16.402  0.8871  0.5973  0.7507
15001TIP3    H166494   6.426   3.878  16.405 -0.7466  1.9666 -0.8487
15001TIP3    H266495   6.554   3.919  16.336 -0.1985  0.9109 -0.4685
15002TIP3   OH266496   6.328   1.187  12.544  0.6109  0.2111  0.1875
15002TIP3    H166497   6.321   1.281  12.560 -0.0184 -0.0907  1.9396
15002TIP3    H266498   6.413   1.176  12.502  2.2474  1.2670  2.9355
15003TIP3   OH266499   3.547   3.616  12.766  0.5009  0.6566 -0.0180
15003TIP3    H166500   3.554   3.535  12.715  1.7918  0.2889  0.7108
15003TIP3    H266501   3.551   3.588  12.857  0.0602  1.4722  0.2616
15004TIP3   OH266502   0.265   1.527   5.488  0.2362  0.5448 -1.0318
15004TIP3    H166503   0.329   1.555   5.422 -1.0994 -0.1541 -2.7263
15004TIP3    H266504   0.240   1.439   5.461 -0.2107  0.1516  0.5664
15005TIP3   OH266505   6.491   0.670  12.325 -0.2151 -0.2282  0.7747
15005TIP3    H166506   6.437   0.666  12.247 -0.6328 -0.3190  1.0640
15005TIP3    H266507   6.448   0.733  12.382 -0.5952 -1.0538  1.4335
15006TIP3   OH266508   6.587   3.773   5.597 -0.2597  0.4621 -0.1861
15006TIP3    H166509   6.587   3.846   5.536  1.8519 -0.6209 -1.6171
15006TIP3    H266510   6.519   3.714   5.565 -0.0177  0.4865 -0.7481
15007TIP3   OH266511   4.936   3.630  12.713  0.0539 -0.2278  0.6530
15007TIP3    H166512   4.989   3.550  12.712 -0.8066 -0.8093  0.3021
15007TIP3    H266513   4.849   3.601  12.686 -0.0217  1.0102 -0.5403
15008TIP3   OH266514   4.193   1.422   5.756  0.1343  0.0030 -0.2989
15008TIP3    H166515   4.113   1.472   5.739 -0.6427 -0.9970  0.3249
15008TIP3    H266516   4.195   1.410   5.851  1.3210  0.4671 -0.2427
15009TIP3   OH266517   5.696   5.826  11.947 -0.1850  0.8745 -0.5376
15009TIP3    H166518   5.657   5.781  11.872  1.6624 -0.0187 -1.0297
15009TIP3    H266519   5.685   5.765  12.020 -1.4294  1.4782 -0.1995
15010TIP3   OH266520   1.567   5.876  13.985 -0.6407  0.4387  0.0630
15010TIP3    H166521   1.476   5.849  13.974 -0.0136 -1.3266 -1.2876
15010TIP3    H266522   1.615   5.794  13.998  0.4541  1.4492  3.9664
15011TIP3   OH266523   0.158   5.747   3.487  0.8667  0.1015 -0.2286
15011TIP3    H166524   0.201   5.830   3.510 -0.2647  0.8159 -0.6395
15011TIP3    H266525   0.110   5.766   3.407 -0.5950 -0.5376  0.4526
15012TIP3   OH266526   1.970   4.923  11.761 -0.1290  0.1108 -0.3712
15012TIP3    H166527   1.899   4.917  11.698 -1.0471  0.6463  0.5795
15012TIP3    H266528   1.935   4.885  11.841  0.0618  1.8568  0.5917
15013TIP3   OH266529   5.235   1.828   5.241  0.5658 -0.3668 -0.1426
15013TIP3    H166530   5.275   1.751   5.280  1.2640  0.3942  0.7102
15013TIP3    H266531   5.244   1.896   5.309 -0.2616  0.3848 -0.7671
15014TIP3   OH266532   3.767   1.620  16.229 -0.7463  0.2827 -0.6444
15014TIP3    H166533   3.712   1.683  16.184 -2.6355 -0.5632  0.3643
15014TIP3    H266534   3.784   1.659  16.314  1.5955  1.2241 -1.4558
15015TIP3   OH266535   4.117   4.367   2.742 -0.0792 -0.1417 -0.5670
15015TIP3    H166536   4.084   4.344   2.829 -0.9532  0.1558 -0.8133
15015TIP3    H266537   4.108   4.287   2.690  2.4894 -1.0166  0.1571
15016TIP3   OH266538   6.571   2.710   6.540 -0.0839  0.1170  0.3022
15016TIP3    H166539   6.648   2.654   6.552  0.1349  0.2881 -0.2876
15016TIP3    H266540   6.555   2.747   6.627 -0.7174 -1.4561  0.8916
15017TIP3   OH266541   5.183   3.654  16.117  0.6228  0.4934  0.2329
15017TIP3    H166542   5.270   3.682  16.146  0.8461  3.0868 -2.5126
15017TIP3    H266543   5.153   3.725  16.060 -2.3614 -1.3795 -0.7152
15018TIP3   OH266544   0.474   4.049  11.195 -0.0018 -0.0670 -0.6672
15018TIP3    H166545   0.395   4.096  11.169 -0.6770 -0.7222  0.1178
15018TIP3    H266546   0.483   4.069  11.289  1.8872  1.5740 -1.1310
15019TIP3   OH266547   6.215   2.113   1.098 -0.1546 -0.2172 -1.0644
15019TIP3    H166548   6.288   2.061   1.132  0.5697  0.4202 -1.6047
15019TIP3    H266549   6.202   2.181   1.164 -0.9484 -0.9149 -0.4722
15020TIP3   OH266550   5.192   3.483  14.982  0.4226  0.2429 -0.4692
15020TIP3    H166551   5.138   3.475  14.902  0.2436  0.8850 -0.4193
15020TIP3    H266552   5.213   3.576  14.987 -0.3826  0.3846  0.7579
15021TIP3   OH266553   0.491   3.936  14.679  0.1496  0.4497 -0.2214
15021TIP3    H166554   0.554   4.002  14.649 -1.3722  1.4621 -1.3271
15021TIP3    H266555   0.531   3.853  14.653  2.3685  0.8150  1.6759
15022TIP3   OH266556   2.759   0.364   0.815 -0.1763 -0.4453 -0.1181
15022TIP3    H166557   2.774   0.453   0.783  0.8427 -0.2192  0.9170
15022TIP3    H266558   2.664   0.354   0.813 -0.2563  0.3292 -1.1121
15023TIP3   OH266559   4.539   0.104   2.837  0.2298  0.5702  0.1563
15023TIP3    H166560   4.536   0.110   2.932 -1.5571 -5.0847  0.8816
15023TIP3    H266561   4.448   0.114   2.810  0.6529  1.6446 -0.9559
15024TIP3   OH266562   1.920   1.280   6.577  0.3653  0.4777 -0.3995
15024TIP3    H166563   1.852   1.282   6.645  1.5583 -1.0384  0.9071
15024TIP3    H266564   1.890   1.214   6.515  0.5840 -0.1283  0.1294
15025TIP3   OH266565   1.767   0.265   0.191  0.4213  0.5928 -0.3400
15025TIP3    H166566   1.704   0.335   0.201 -3.3068 -2.6385  1.6495
15025TIP3    H266567   1.823   0.271   0.268 -1.1486  0.3595  0.8828
15026TIP3   OH266568   3.403   1.280   1.009 -0.2657  0.1570  0.3063
15026TIP3    H166569   3.325   1.244   0.967  0.0655  0.2833 -0.4266
15026TIP3    H266570   3.394   1.256   1.101  1.1374 -4.0025 -0.4558
15027TIP3   OH266571   5.522   3.736   2.347 -0.0627 -0.7123  0.1518
15027TIP3    H166572   5.454   3.768   2.406  0.3459 -0.0045  0.2514
15027TIP3    H266573   5.476   3.718   2.264 -0.3042  0.1744  0.0821
15028TIP3   OH266574   4.879   2.698  13.728  0.2152 -0.3429 -0.5091
15028TIP3    H166575   4.822   2.736  13.795  0.9555 -0.4104  0.1679
15028TIP3    H266576   4.967   2.701  13.766  0.9512  1.3304 -2.1809
15029TIP3   OH266577   4.849   2.120   1.769 -0.2215  0.5149 -0.0867
15029TIP3    H166578   4.923   2.178   1.786 -1.4578  2.3420 -0.6544
15029TIP3    H266579   4.876   2.069   1.693  1.0741 -0.0299  0.7046
15030TIP3   OH266580   2.207   4.705  12.602  0.3600  0.3998  0.5122
15030TIP3    H166581   2.187   4.678  12.692 -0.8735 -1.7942 -0.3217
15030TIP3    H266582   2.250   4.790  12.611 -1.0094  0.9404  3.0809
15031TIP3   OH266583   2.298   5.999   2.937 -0.1592  0.1254 -0.5837
15031TIP3    H166584   2.309   5.919   2.988  0.8665  0.2834 -0.5450
15031TIP3    H266585   2.235   5.975   2.869  0.0637 -0.6908 -0.5130
15032TIP3   OH266586   3.727   2.680  16.612 -0.1721 -0.0770  0.1526
15032TIP3    H166587   3.796   2.639  16.663  0.1720 -0.4581 -0.6041
15032TIP3    H266588   3.743   2.651  16.522 -0.7254  0.6280 -0.1843
15033TIP3   OH266589   3.329   2.859  13.102 -0.0979 -0.2562  0.3282
15033TIP3    H166590   3.388   2.836  13.174  2.3669 -0.0413 -1.5127
15033TIP3    H266591   3.283   2.937  13.133  1.2189  0.0805  1.5358
15034TIP3   OH266592   6.448   4.462  12.001 -0.1964 -0.3385 -0.0783
15034TIP3    H166593   6.505   4.510  11.941 -1.2717 -0.4154 -1.2120
15034TIP3    H266594   6.440   4.375  11.962 -1.4987 -0.1690 -0.2355
15035TIP3   OH266595   0.671   4.577   1.122 -0.1327 -0.3259  0.1073
15035TIP3    H166596   0.675   4.484   1.103 -0.1859  0.1425 -2.6759
15035TIP3    H266597   0.741   4.616   1.069 -0.8624  1.3056  0.2666
15036TIP3   OH266598   5.429   6.330   3.974  0.2757  0.3286 -0.0171
15036TIP3    H166599   5.478   6.400   3.931 -0.5617  1.2867  0.5307
15036TIP3    H266600   5.339   6.363   3.977 -0.0273 -0.5402  0.7475
15037TIP3   OH266601   3.493   1.712  11.693 -0.1283  0.0318  0.1944
15037TIP3    H166602   3.523   1.801  11.712  1.4190 -0.5795  0.7665
15037TIP3    H266603   3.566   1.656  11.718 -0.3123 -1.2890 -1.9933
15038TIP3   OH266604   2.308   1.210   4.636  0.8098  0.4588 -0.0720
15038TIP3    H166605   2.321   1.257   4.718 -2.0498 -2.5242  2.3728
15038TIP3    H266606   2.344   1.122   4.652 -0.1986 -0.3411 -1.8360
15039TIP3   OH266607   5.088   1.682  11.504  0.0391  0.0372 -0.1030
15039TIP3    H166608   5.001   1.649  11.480  1.2327 -2.7699 -1.0292
15039TIP3    H266609   5.111   1.743  11.434  0.1593 -1.8631 -1.8152
15040TIP3   OH266610   6.577   2.007   5.255 -0.2637  0.3936  0.7748
15040TIP3    H166611   6.590   2.003   5.160  0.6858 -0.3973  0.9192
15040TIP3    H266612   6.512   2.076   5.267 -0.3561  0.5509 -0.4443
15041TIP3   OH266613   1.662   6.651   1.220 -0.6597 -0.0912  0.0999
15041TIP3    H166614   1.646   6.716   1.152  0.7770  0.9615  0.7310
15041TIP3    H266615   1.706   6.579   1.175 -2.2360 -0.6613 -0.5982
15042TIP3   OH266616   6.367   0.850  11.856 -0.2733  0.1217 -0.1142
15042TIP3    H166617   6.360   0.847  11.760 -0.0452  1.5812 -0.2002
15042TIP3    H266618   6.278   0.868  11.885 -0.2738  0.0579 -0.0771
15043TIP3   OH266619   6.591   3.141   1.813 -0.3398 -0.1695  0.1972
15043TIP3    H166620   6.549   3.211   1.863 -0.3091 -1.6544  2.4507
15043TIP3    H266621   6.656   3.186   1.760  0.0520  1.4853  1.9556
15044TIP3   OH266622   5.460   1.038   5.676  0.3660 -0.2299  0.4063
15044TIP3    H166623   5.533   0.979   5.696  0.7390  0.1615  0.2028
15044TIP3    H266624   5.416   1.049   5.760  0.6496 -0.3235  0.5719
15045TIP3   OH266625   0.441   1.143  10.305 -0.0621  0.1763 -0.0493
15045TIP3    H166626   0.385   1.078  10.263  0.8018 -0.5267 -0.1402
15045TIP3    H266627   0.423   1.224  10.257 -2.6978  0.5505  1.4076
15046TIP3   OH266628   2.277   4.558   0.708  0.3485 -0.0396 -0.2973
15046TIP3    H166629   2.341   4.560   0.637 -0.7517  0.1439 -1.3188
15046TIP3    H266630   2.329   4.561   0.788  1.5661  1.8895 -1.0854
15047TIP3   OH266631   5.052   5.192  13.009  0.1073  0.6456 -0.1759
15047TIP3    H166632   5.103   5.267  13.037 -0.4321  0.0437  2.6600
15047TIP3    H266633   5.117   5.128  12.979  0.8452  0.8925  0.8610
15048TIP3   OH266634   2.987   5.557  12.865 -0.2886  0.1886  0.5036
15048TIP3    H166635   2.952   5.646  12.862 -1.6501 -0.3406 -0.4875
15048TIP3    H266636   2.918   5.505  12.908 -0.1081 -0.6181 -0.1555
15049TIP3   OH266637   6.517   3.692  11.876 -0.0552  0.6004  0.2002
15049TIP3    H166638   6.596   3.717  11.925  1.3422  0.5263 -1.8714
15049TIP3    H266639   6.509   3.759  11.809 -0.9027 -0.1979 -0.5192
15050TIP3   OH266640   4.302   2.869  15.831  0.5075  0.5706  0.3253
15050TIP3    H166641   4.237   2.859  15.900 -0.6055  0.5122 -0.7063
15050TIP3    H266642   4.286   2.795  15.772 -0.0506  1.8293 -1.1611
15051TIP3   OH266643   6.157   1.201   0.432  0.1039  0.3118  0.0365
15051TIP3    H166644   6.155   1.242   0.518 -1.5112  1.3576 -0.4639
15051TIP3    H266645   6.103   1.257   0.376  0.7153 -0.5915 -1.5566
15052TIP3   OH266646   3.425   0.243   2.300 -0.1395  0.1912  0.3444
15052TIP3    H166647   3.350   0.238   2.360  1.0229 -0.7063  1.7855
15052TIP3    H266648   3.385   0.253   2.213 -2.0038 -1.7319  0.8771
15053TIP3   OH266649   5.268   5.919   4.874  0.2195 -0.0922  0.2781
15053TIP3    H166650   5.262   5.974   4.796  1.1743 -1.9118 -1.1288
15053TIP3    H266651   5.191   5.862   4.870  0.4726 -0.4470  0.4822
15054TIP3   OH266652   5.370   3.002  13.699 -0.4936 -0.2709  0.0567
15054TIP3    H166653   5.375   3.066  13.770  0.3810 -0.9873  0.6591
15054TIP3    H266654   5.277   2.988  13.686 -0.6785  0.5007  0.4795
15055TIP3   OH266655   3.253   4.960   1.067  0.2899  0.0336  0.1913
15055TIP3    H166656   3.320   4.920   1.011  0.7116 -1.8131  1.8973
15055TIP3    H266657   3.277   5.052   1.070  1.8624 -0.3113 -0.4573
15056TIP3   OH266658   0.561   3.559  15.570 -0.6341  0.4462 -0.3116
15056TIP3    H166659   0.505   3.608  15.511 -1.3986 -0.3373 -0.2468
15056TIP3    H266660   0.534   3.468  15.561 -1.9826  0.4560  2.4906
15057TIP3   OH266661   4.569   3.818  10.502  1.0670  0.1021 -0.4118
15057TIP3    H166662   4.606   3.886  10.446  2.3254 -0.2909 -0.1072
15057TIP3    H266663   4.510   3.865  10.561  2.3960  1.0566  0.2183
15058TIP3   OH266664   2.315   0.223  10.985 -0.3136  0.3065 -0.2318
15058TIP3    H166665   2.354   0.139  10.962  0.6541  0.8281 -0.5943
15058TIP3    H266666   2.390   0.283  10.990 -1.0180  1.2233 -0.3358
15059TIP3   OH266667   5.931   0.649   1.577  0.6121 -0.7123  0.2119
15059TIP3    H166668   5.882   0.608   1.649  0.4418 -2.1990 -0.7084
15059TIP3    H266669   5.871   0.648   1.503  0.4708  1.6167  0.2293
15060TIP3   OH266670   0.135   2.508   2.783 -0.0005  0.0488 -0.3318
15060TIP3    H166671   0.091   2.481   2.701 -0.2667 -0.2078 -0.1069
15060TIP3    H266672   0.228   2.508   2.761 -0.0916  0.3722 -0.7521
15061TIP3   OH266673   4.370   2.447   5.660  0.4995  0.1577  0.0944
15061TIP3    H166674   4.426   2.437   5.583  0.8423 -0.0464  0.3669
15061TIP3    H266675   4.336   2.359   5.676  0.3024  0.2309  0.0834
15062TIP3   OH266676   3.538   3.472  12.461  0.1891 -0.2715 -0.6098
15062TIP3    H166677   3.484   3.508  12.391 -0.2950  0.7810  0.2835
15062TIP3    H266678   3.483   3.405  12.501 -0.0904  0.1392 -0.3066
15063TIP3   OH266679   0.324   6.795  12.296  0.0672 -0.1861 -0.0892
15063TIP3    H166680   0.343   6.709  12.333  0.9065  0.3302  0.7120
15063TIP3    H266681   0.260   6.834  12.355  1.1110  0.4799  0.6464
15064TIP3   OH266682   5.678   6.106   0.453  0.0458 -0.2599 -0.3407
15064TIP3    H166683   5.640   6.140   0.372  1.3821 -0.4211 -1.0535
15064TIP3    H266684   5.664   6.011   0.448  0.1278 -0.2699 -0.3740
15065TIP3   OH266685   2.695   0.526   2.590 -0.3349  0.6933 -0.0709
15065TIP3    H166686   2.669   0.561   2.505 -1.4881 -0.4572 -0.2197
15065TIP3    H266687   2.614   0.521   2.640 -0.0973 -1.0057  0.2091
15066TIP3   OH266688   1.989   1.398  16.599  0.0228 -0.3176 -0.2143
15066TIP3    H166689   2.060   1.358  16.649  0.5251 -0.9373 -1.3933
15066TIP3    H266690   2.025   1.481  16.567 -0.6274  0.5687  1.2326
15067TIP3   OH266691   0.104   6.547  13.077  0.6557 -0.0741 -0.0405
15067TIP3    H166692   0.108   6.459  13.040  0.9463 -0.6745  1.3488
15067TIP3    H266693   0.013   6.574  13.067  0.8633  0.0858 -1.7994
15068TIP3   OH266694   0.991   5.434   5.432  0.7966  0.4965 -0.0374
15068TIP3    H166695   0.934   5.502   5.396  0.0099 -0.1928 -0.1240
15068TIP3    H266696   0.950   5.409   5.515  1.0603  0.1127 -0.0171
15069TIP3   OH266697   0.175   2.162   1.385 -0.3346 -0.2291 -0.3215
15069TIP3    H166698   0.083   2.143   1.366  0.0251 -1.5737 -0.8392
15069TIP3    H266699   0.224   2.098   1.334  0.7660 -3.1463  3.8712
15070TIP3   OH266700   0.370   1.004   3.133 -0.1770  0.2655  0.5574
15070TIP3    H166701   0.326   1.089   3.132 -0.1465  0.2797 -0.3907
15070TIP3    H266702   0.317   0.949   3.075  0.3727 -0.0670  0.3679
15071TIP3   OH266703   5.051   2.698   1.968 -0.3430 -0.1325  1.2352
15071TIP3    H166704   5.067   2.604   1.967  0.6063 -0.0041 -0.8193
15071TIP3    H266705   5.082   2.727   2.054 -0.7750 -1.6908  1.9507
15072TIP3   OH266706   5.385   6.336  12.232 -0.1935  0.1705  0.3579
15072TIP3    H166707   5.473   6.345  12.196 -0.3670  0.2396 -0.0470
15072TIP3    H266708   5.397   6.282  12.311  0.1948  0.0845  0.2421
15073TIP3   OH266709   3.308   0.947  10.323  0.3300  0.2328 -0.2732
15073TIP3    H166710   3.307   1.043  10.323 -1.6478  0.2874 -1.7449
15073TIP3    H266711   3.234   0.923  10.380  0.8914 -0.4438  0.1862
15074TIP3   OH266712   0.472   2.008   1.478  0.3671  0.4407 -0.0871
15074TIP3    H166713   0.550   1.952   1.486  0.6778  0.7160 -1.0445
15074TIP3    H266714   0.507   2.097   1.472  0.0542  0.4947 -1.4922
15075TIP3   OH266715   0.239   6.262   6.730 -0.1685 -0.1882  0.2469
15075TIP3    H166716   0.170   6.252   6.664  0.2185  1.4958 -0.4689
15075TIP3    H266717   0.234   6.182   6.782  1.0623 -2.7861 -3.2422
15076TIP3   OH266718   5.616   6.395   3.206 -0.0380 -0.0429 -0.3485
15076TIP3    H166719   5.693   6.351   3.241 -0.4962  0.3741  1.2781
15076TIP3    H266720   5.651   6.469   3.157  0.6814 -1.4771 -2.1088
15077TIP3   OH266721   5.786   5.290  12.904 -0.2829  0.2383 -0.3850
15077TIP3    H166722   5.874   5.278  12.940 -0.7142  0.7175  0.8797
15077TIP3    H266723   5.745   5.204  12.915  0.3587 -0.3090 -2.0012
15078TIP3   OH266724   2.258   1.103  16.558  0.2490  0.1524  0.1589
15078TIP3    H166725   2.315   1.169  16.518 -0.5049 -0.4224 -1.9737
15078TIP3    H266726   2.191   1.085  16.491 -0.1241 -2.0799  1.0577
15079TIP3   OH266727   0.226   0.192   0.499  0.3330  0.1154 -0.5284
15079TIP3    H166728   0.174   0.266   0.469 -0.8475 -1.1167 -1.6658
15079TIP3    H266729   0.225   0.199   0.594 -0.3785  1.1443 -0.5949
15080TIP3   OH266730   0.118   3.297  13.823 -0.7040 -0.3996 -0.2258
15080TIP3    H166731   0.029   3.295  13.788 -0.9315  3.1064 -0.1556
15080TIP3    H266732   0.164   3.361  13.769  1.4779 -1.2646  0.4986
15081TIP3   OH266733   3.050   6.203   6.195  0.0473 -0.4970  0.9943
15081TIP3    H166734   2.962   6.235   6.213  0.1071  0.7137 -0.6274
15081TIP3    H266735   3.108   6.276   6.219  0.5263 -0.8550  0.9528
15082TIP3   OH266736   5.045   0.191   2.492  0.3770 -0.0345  0.0338
15082TIP3    H166737   4.951   0.180   2.475 -0.0362  2.2335  0.5366
15082TIP3    H266738   5.049   0.238   2.575  1.8640  1.5016 -0.8431
15083TIP3   OH266739   1.773   4.676  16.294  0.2647 -0.1092  0.2288
15083TIP3    H166740   1.686   4.713  16.289  1.0658  2.0136  1.0493
15083TIP3    H266741   1.809   4.709  16.377  3.1604  2.2089 -1.7591
15084TIP3   OH266742   0.800   1.859   5.082 -0.2520 -0.5793 -0.2651
15084TIP3    H166743   0.714   1.901   5.088  0.5769  1.0889  0.4697
15084TIP3    H266744   0.860   1.931   5.063  1.4075 -1.2175  2.2221
15085TIP3   OH266745   0.362   5.907   5.850 -0.3815 -0.5243  0.7526
15085TIP3    H166746   0.356   5.948   5.764  1.9662 -0.3725  0.5818
15085TIP3    H266747   0.391   5.818   5.832 -0.7716 -0.7753  1.3427
15086TIP3   OH266748   1.460   1.919   2.084 -0.0983 -0.6389  0.3621
15086TIP3    H166749   1.467   2.014   2.078 -0.2163 -0.5947  0.8768
15086TIP3    H266750   1.514   1.896   2.159 -0.0241 -0.9878  0.2026
15087TIP3   OH266751   3.121   6.246   0.431  0.4672  0.0942 -0.8823
15087TIP3    H166752   3.187   6.309   0.401 -0.0437  1.0209 -0.1439
15087TIP3    H266753   3.060   6.299   0.483 -0.1564 -0.9690 -0.4998
15088TIP3   OH266754   0.450   4.354   6.347  0.1448 -0.6355 -0.2714
15088TIP3    H166755   0.365   4.398   6.348 -0.0248 -0.9415 -0.8141
15088TIP3    H266756   0.514   4.425   6.357 -0.1397 -0.3012 -0.7821
15089TIP3   OH266757   0.241   1.251  16.574 -0.2113 -0.5516 -0.5384
15089TIP3    H166758   0.148   1.245  16.593 -0.1492 -1.0985 -0.3962
15089TIP3    H266759   0.258   1.178  16.515  0.4251 -1.3824  0.6375
15090TIP3   OH266760   2.730   5.980  13.109  0.6910 -0.1787  0.0383
15090TIP3    H166761   2.691   5.934  13.184  0.3318 -0.2123 -0.1662
15090TIP3    H266762   2.656   6.025  13.068  0.8522 -0.3246 -0.4151
15091TIP3   OH266763   1.322   0.287   4.553  0.0286 -0.2999 -0.5248
15091TIP3    H166764   1.411   0.309   4.581 -0.7856  0.9403  1.3369
15091TIP3    H266765   1.319   0.192   4.554  1.1561 -0.3443  0.0712
15092TIP3   OH266766   2.574   0.175  14.805 -0.2016 -0.4274 -0.6911
15092TIP3    H166767   2.546   0.245  14.863  0.7529 -1.5284  1.1912
15092TIP3    H266768   2.621   0.219  14.735 -0.3245  0.8718  0.0098
15093TIP3   OH266769   3.749   2.963   4.697  0.6603  0.0143  0.1893
15093TIP3    H166770   3.767   2.869   4.695  0.9208  0.0551  0.5085
15093TIP3    H266771   3.681   2.976   4.631 -0.2368 -0.5970  0.9656
15094TIP3   OH266772   3.383   4.261   1.660 -0.2536  0.6019  0.6760
15094TIP3    H166773   3.463   4.261   1.713 -1.6613  0.5695  2.9383
15094TIP3    H266774   3.380   4.348   1.620  1.2077  0.3790 -0.0046
15095TIP3   OH266775   3.667   5.937  11.947  0.2378 -0.2816 -0.3532
15095TIP3    H166776   3.690   5.946  12.040  0.6555 -0.5822 -0.4246
15095TIP3    H266777   3.701   5.851  11.922 -0.7301 -0.6123 -0.5393
15096TIP3   OH266778   0.933   4.995   3.978  0.0531 -0.1332 -0.1029
15096TIP3    H166779   0.916   5.013   4.071  0.4489  0.7129 -0.1837
15096TIP3    H266780   0.952   5.081   3.940 -2.2182 -0.1387 -1.4343
15097TIP3   OH266781   6.704   2.033   0.558 -0.0213 -0.0609 -0.0687
15097TIP3    H166782   6.655   2.065   0.634 -2.2963  0.6319 -1.7225
15097TIP3    H266783   6.707   1.938   0.570 -1.3855 -0.0721  0.3212
15098TIP3   OH266784   1.949   0.620   4.950  0.1473 -0.3333 -0.7012
15098TIP3    H166785   1.967   0.529   4.926  0.2819 -0.5899  0.3406
15098TIP3    H266786   1.962   0.623   5.045 -1.0822  0.4786 -0.5373
15099TIP3   OH266787   1.553   4.342   0.589  0.3513 -0.1952  0.5029
15099TIP3    H166788   1.480   4.303   0.540  0.9176  0.9595 -1.3661
15099TIP3    H266789   1.626   4.341   0.527  1.3071  0.7108  1.5771
15100TIP3   OH266790   4.962   1.519   1.334  0.0445  0.1324 -0.1951
15100TIP3    H166791   5.028   1.575   1.294 -1.0791  1.6887  0.0319
15100TIP3    H266792   5.010   1.441   1.361  2.0361  1.6596  0.9826
15101TIP3   OH266793   4.551   2.869   4.807 -0.0904 -0.4519 -0.0593
15101TIP3    H166794   4.573   2.792   4.754 -1.5209 -0.7737 -0.2286
15101TIP3    H266795   4.515   2.932   4.744  0.0711 -0.0586  0.2397
15102TIP3   OH266796   6.822   3.951   5.441 -0.5361 -0.0568 -0.1717
15102TIP3    H166797   6.773   3.869   5.433 -0.3408 -0.3869  1.6311
15102TIP3    H266798   6.873   3.956   5.361  1.2067 -2.8929  0.6304
15103TIP3   OH266799   3.053   4.732  16.521 -0.0670  0.1677 -0.2923
15103TIP3    H166800   3.091   4.819  16.534  2.8831 -1.1524  0.6165
15103TIP3    H266801   2.985   4.726  16.588 -1.2291  2.1775 -1.1890
15104TIP3   OH266802   2.618   5.302  11.590 -0.8073  0.5481 -0.2048
15104TIP3    H166803   2.702   5.259  11.609 -1.0523  0.2428  0.2112
15104TIP3    H266804   2.639   5.367  11.523  0.1060  1.6412  1.0785
15105TIP3   OH266805   5.984   1.525  13.302 -0.2610  0.3904 -0.3293
15105TIP3    H166806   5.954   1.615  13.290 -0.2782  0.3566 -0.5432
15105TIP3    H266807   6.060   1.532  13.360 -1.8311  0.3045  1.8461
15106TIP3   OH266808   2.762   5.243   2.393  0.0221 -0.5359  0.5387
15106TIP3    H166809   2.749   5.191   2.472 -0.1418 -0.3707  0.6212
15106TIP3    H266810   2.856   5.239   2.377  0.0019 -0.9152  0.5031
15107TIP3   OH266811   0.883   3.073   0.874  0.2424 -0.2633 -0.1368
15107TIP3    H166812   0.861   3.045   0.785  3.2387  1.0107 -1.4423
15107TIP3    H266813   0.890   2.992   0.924 -1.9562 -0.9756 -0.8798
15108TIP3   OH266814   5.603   4.173   2.129  0.7444 -0.3277  0.7155
15108TIP3    H166815   5.604   4.216   2.215 -0.1116  4.6248 -1.4129
15108TIP3    H266816   5.517   4.131   2.124  0.9803 -1.0947  2.3562
15109TIP3   OH266817   1.046   0.070   0.889 -0.1778  0.4601 -0.0596
15109TIP3    H166818   1.084   0.061   0.802 -0.6024  1.0853 -0.3231
15109TIP3    H266819   1.110   0.032   0.948 -0.1137 -0.4383 -0.6917
15110TIP3   OH266820   2.949   3.745   6.066 -0.4198 -0.1977 -0.2067
15110TIP3    H166821   3.034   3.789   6.059  0.0562 -1.1738 -0.7134
15110TIP3    H266822   2.927   3.751   6.159  1.0433 -1.4288  0.2708
15111TIP3   OH266823   1.018   0.610  14.380  0.4183  0.3030 -0.7122
15111TIP3    H166824   1.075   0.651  14.445 -2.0967 -1.1239  2.7005
15111TIP3    H266825   1.044   0.518  14.380 -1.0460 -0.1491  0.0854
15112TIP3   OH266826   2.990   2.746  12.440  0.0388  0.6690 -0.2423
15112TIP3    H166827   2.912   2.781  12.397  0.7596  1.1655 -1.1707
15112TIP3    H266828   2.959   2.721  12.527 -1.3905 -0.0712 -0.9171
15113TIP3   OH266829   3.061   2.489   3.843 -0.4870 -0.5057  0.4050
15113TIP3    H166830   3.114   2.445   3.776 -2.1572 -1.5102 -0.3291
15113TIP3    H266831   2.975   2.447   3.837 -0.5732 -1.0425  3.5791
15114TIP3   OH266832   2.809   3.023  13.924  0.3079 -0.3793  0.1739
15114TIP3    H166833   2.745   3.070  13.977 -2.1007 -2.1179 -1.0358
15114TIP3    H266834   2.867   2.981  13.988 -1.6640 -1.2785  1.4811
15115TIP3   OH266835   1.156   6.653   1.548  0.2258  0.3881 -0.5283
15115TIP3    H166836   1.245   6.652   1.585  0.0713  1.0352 -0.1242
15115TIP3    H266837   1.106   6.594   1.604  0.2799  0.4207 -0.4452
15116TIP3   OH266838   3.796   4.162  13.379 -0.9490 -0.0249 -0.0214
15116TIP3    H166839   3.829   4.172  13.289  1.0883 -0.8208  0.5716
15116TIP3    H266840   3.825   4.242  13.423 -0.8394 -0.1997  0.2248
15117TIP3   OH266841   1.662   0.283   3.541 -0.4502 -0.0341 -0.5896
15117TIP3    H166842   1.666   0.189   3.527 -1.4786 -0.4546  1.6304
15117TIP3    H266843   1.750   0.306   3.570 -0.6913 -0.6521  0.6663
15118TIP3   OH266844   1.793   1.339  13.770 -0.2162 -0.5961 -0.3774
15118TIP3    H166845   1.882   1.350  13.804  0.5098 -1.4745 -1.8598
15118TIP3    H266846   1.760   1.428  13.759 -0.2314 -0.2770  1.8406
15119TIP3   OH266847   4.107   4.859  15.054 -0.2783  0.6677  0.2970
15119TIP3    H166848   4.164   4.918  15.103  1.7565 -0.6451 -0.3634
15119TIP3    H266849   4.154   4.842  14.973 -1.8691 -0.0870 -0.5093
15120TIP3   OH266850   5.739   0.592  13.693 -0.1957 -0.3490 -0.2950
15120TIP3    H166851   5.765   0.603  13.602  1.4563 -0.1291  0.1700
15120TIP3    H266852   5.708   0.678  13.720 -1.0093 -0.4977 -0.7319
15121TIP3   OH266853   1.966   2.941   5.247  0.2462 -0.5776  0.1182
15121TIP3    H166854   2.018   2.935   5.327  0.9948  2.2334 -0.0525
15121TIP3    H266855   1.876   2.956   5.277  0.1792 -1.4654  0.3977
15122TIP3   OH266856   0.680   0.342   4.502 -0.1751 -0.5210  0.1401
15122TIP3    H166857   0.656   0.429   4.471  1.8657  0.4610  1.1332
15122TIP3    H266858   0.766   0.326   4.464 -0.8539 -2.5017 -0.7020
15123TIP3   OH266859   3.909   1.589   3.654 -0.2717 -0.4242  0.3721
15123TIP3    H166860   3.980   1.551   3.706  0.4111  0.8257  0.3942
15123TIP3    H266861   3.831   1.577   3.709  0.1084 -0.8167  0.8411
15124TIP3   OH266862   4.526   2.664  11.055  0.2145 -0.0405  0.0783
15124TIP3    H166863   4.510   2.588  10.999 -0.4889  0.1912 -0.0349
15124TIP3    H266864   4.569   2.627  11.133 -1.1727 -0.7282  0.5480
15125TIP3   OH266865   6.406   0.299  14.875 -0.3466 -0.4172 -0.4465
15125TIP3    H166866   6.479   0.341  14.829 -0.0709 -0.9274 -0.4805
15125TIP3    H266867   6.414   0.329  14.965 -0.6236  0.2325 -0.6301
15126TIP3   OH266868   5.142   2.706  13.848 -0.1307  0.1075 -0.1950
15126TIP3    H166869   5.184   2.781  13.890 -0.1443  0.7366 -1.2563
15126TIP3    H266870   5.128   2.643  13.919 -2.0420  1.9455  1.1893
15127TIP3   OH266871   0.185   0.622   1.430 -0.0757 -0.1889 -0.0851
15127TIP3    H166872   0.171   0.619   1.525 -0.1909 -1.1826 -0.1223
15127TIP3    H266873   0.117   0.566   1.394  0.0513  0.0767 -0.7494
15128TIP3   OH266874   4.418   2.365   1.968  0.5692  0.1682 -0.2583
15128TIP3    H166875   4.466   2.303   1.914 -0.3162 -1.3575  0.6253
15128TIP3    H266876   4.486   2.410   2.018  1.1825 -2.8385  1.9335
15129TIP3   OH266877   2.127   4.770   4.600 -0.4958 -0.9038 -0.0842
15129TIP3    H166878   2.128   4.823   4.520 -1.1925 -0.7653 -0.0009
15129TIP3    H266879   2.038   4.777   4.633 -0.0670 -0.4778  1.0360
15130TIP3   OH266880   1.953   2.761  14.547  0.6167  0.0354 -0.2121
15130TIP3    H166881   1.907   2.844  14.536 -1.0694 -0.7786  0.2486
15130TIP3    H266882   1.936   2.713  14.466 -1.1442 -1.0566  0.7351
15131TIP3   OH266883   5.717   6.768   2.061 -0.2129  0.3231 -0.2212
15131TIP3    H166884   5.806   6.781   2.030  0.1765  0.4081  0.8922
15131TIP3    H266885   5.680   6.703   2.001  0.7180  0.0042 -0.4674
15132TIP3   OH266886   0.254   6.397   4.409 -0.0708  0.1285  0.2857
15132TIP3    H166887   0.204   6.373   4.331  0.7197 -0.8537  0.0564
15132TIP3    H266888   0.232   6.329   4.473 -0.9200  1.0730  1.0351
15133TIP3   OH266889   4.348   5.289  12.205  0.3188 -0.1735 -0.1721
15133TIP3    H166890   4.278   5.243  12.158 -0.9858 -0.3635  1.8290
15133TIP3    H266891   4.367   5.233  12.280  1.5535  0.6332  0.1476
15134TIP3   OH266892   2.775   1.478  14.131 -0.0451  0.0188 -0.1753
15134TIP3    H166893   2.734   1.558  14.100 -1.1304 -0.3412  0.2678
15134TIP3    H266894   2.846   1.461  14.069 -0.6540  0.5895 -1.0456
15135TIP3   OH266895   2.296   3.993  14.518 -0.3273 -0.1222 -0.3808
15135TIP3    H166896   2.354   3.943  14.460  0.6382 -0.3655  0.7551
15135TIP3    H266897   2.326   4.084  14.508 -0.2956 -0.1377 -0.4255
15136TIP3   OH266898   1.061   3.519  15.496  0.1218 -0.1407  0.1556
15136TIP3    H166899   0.994   3.577  15.532  0.0360 -0.1944  0.0800
15136TIP3    H266900   1.028   3.431  15.512  0.1131 -0.1653 -0.0032
15137TIP3   OH266901   5.728   3.060   1.345 -0.0220 -0.1367 -0.3267
15137TIP3    H166902   5.669   3.123   1.303 -0.4389 -0.5460 -0.3541
15137TIP3    H266903   5.732   3.088   1.437  0.4788  0.4455 -0.5164
15138TIP3   OH266904   3.052   0.801  14.096 -0.2141  0.5219 -0.2202
15138TIP3    H166905   3.060   0.896  14.098 -0.9549  0.5810  1.3094
15138TIP3    H266906   2.963   0.783  14.124 -0.0015 -0.6433 -0.2269
15139TIP3   OH266907   4.075   2.407   1.421 -0.0558 -0.3204 -0.4132
15139TIP3    H166908   3.981   2.395   1.434 -0.2113  0.7999 -0.3880
15139TIP3    H266909   4.081   2.472   1.351  0.6710  0.6690  0.5383
15140TIP3   OH266910   5.279   0.148   4.395 -0.4016 -0.0133  0.8212
15140TIP3    H166911   5.201   0.161   4.448 -0.8244 -0.0446  0.2102
15140TIP3    H266912   5.351   0.177   4.451 -0.7988 -0.4591  1.5691
15141TIP3   OH266913   3.269   2.027   4.407 -0.2292 -0.1307  0.0409
15141TIP3    H166914   3.208   2.078   4.354 -1.0913 -0.9529  0.1992
15141TIP3    H266915   3.290   2.084   4.481  0.7295  0.8993 -0.9865
15142TIP3   OH266916   2.945   5.512   0.047 -0.3139 -0.3582 -0.3493
15142TIP3    H166917   2.975   5.455   0.118  0.7557 -1.1897 -1.4186
15142TIP3    H266918   2.999   5.486  -0.029  0.1333  2.0009 -0.9163
15143TIP3   OH266919   5.500   3.324   4.903 -0.1858  0.1706  0.4735
15143TIP3    H166920   5.575   3.281   4.945  0.1453  0.5536  0.2878
15143TIP3    H266921   5.425   3.299   4.957 -0.0356 -0.8044  0.2473
15144TIP3   OH266922   0.503   0.318   1.366  0.4309  0.2381  0.3131
15144TIP3    H166923   0.550   0.290   1.288  1.3975 -0.9917  1.2947
15144TIP3    H266924   0.478   0.237   1.410 -3.4689  0.7881 -0.5853
15145TIP3   OH266925   6.315   6.832  13.577  0.2762 -0.1990 -0.8241
15145TIP3    H166926   6.308   6.819  13.482 -0.3218 -1.9432 -0.5775
15145TIP3    H266927   6.289   6.923  13.591  2.7092  0.8857 -2.5544
15146TIP3   OH266928   4.415   3.074  16.163  0.2215  0.0055 -0.2274
15146TIP3    H166929   4.422   3.064  16.258  1.1453 -0.9926 -0.3810
15146TIP3    H266930   4.332   3.118  16.149 -0.3010 -0.5608  1.0096
15147TIP3   OH266931   4.836   4.577  15.572  0.0353 -0.1166  0.0370
15147TIP3    H166932   4.889   4.593  15.494 -0.9824 -0.2881 -0.7219
15147TIP3    H266933   4.809   4.664  15.601  1.7590  0.0697  1.2059
15148TIP3   OH266934   5.315   2.304   0.712  0.6279  0.1471  0.4656
15148TIP3    H166935   5.302   2.224   0.763 -0.8856  0.5507  0.7647
15148TIP3    H266936   5.294   2.278   0.622 -1.6550  0.5683  0.8116
15149TIP3   OH266937   6.541   3.729   1.602  0.2690 -0.2125 -0.0081
15149TIP3    H166938   6.517   3.691   1.686  0.8902  0.8023  0.6550
15149TIP3    H266939   6.459   3.762   1.566 -0.1464 -1.4234 -0.2283
15150TIP3   OH266940   4.258   4.470  12.129  0.3194  0.4418  0.5766
15150TIP3    H166941   4.258   4.565  12.117 -0.6660  0.6397  1.9294
15150TIP3    H266942   4.178   4.452  12.178  0.6658 -1.0544  0.6363
15151TIP3   OH266943   2.063   3.715   2.162  0.5854  0.5122  0.0992
15151TIP3    H166944   2.077   3.625   2.132  1.7124  0.7084 -0.0048
15151TIP3    H266945   2.064   3.708   2.257  0.2362  0.3528  0.0926
15152TIP3   OH266946   1.018   0.995  15.383  0.1656  0.5432 -0.4101
15152TIP3    H166947   1.050   1.073  15.337  2.4226  1.5000  2.4171
15152TIP3    H266948   1.073   0.924  15.352 -0.8675  0.3421 -1.8668
15153TIP3   OH266949   3.559   1.978  15.533 -0.3148 -0.0970 -0.4611
15153TIP3    H166950   3.592   1.895  15.566 -0.8495  0.2128  0.8993
15153TIP3    H266951   3.538   2.029  15.611 -1.1360  0.8670 -1.2773
15154TIP3   OH266952   3.662   6.153   2.985  0.3920 -0.2140 -0.1729
15154TIP3    H166953   3.703   6.220   2.931  2.1986 -0.2465  1.0534
15154TIP3    H266954   3.630   6.088   2.922  1.4460  0.2717 -1.2553
15155TIP3   OH266955   6.323   3.506  12.970  0.0150 -0.5993 -0.0736
15155TIP3    H166956   6.391   3.564  13.006  0.5139  0.4617 -2.5394
15155TIP3    H266957   6.241   3.551  12.991  0.2542 -0.2490  0.1366
15156TIP3   OH266958   0.682   0.526  13.389 -0.1108  0.1121  0.1133
15156TIP3    H166959   0.604   0.489  13.349  0.7299 -1.6678 -0.0091
15156TIP3    H266960   0.666   0.520  13.484 -0.2249 -0.0080  0.0849
15157TIP3   OH266961   6.784   3.101  12.018 -0.2822 -0.4283  0.0401
15157TIP3    H166962   6.810   3.178  12.068  0.1382  0.1861 -1.0823
15157TIP3    H266963   6.854   3.037  12.034  0.8342  0.4238 -1.1912
15158TIP3   OH266964   3.643   5.162  14.741  0.1502 -0.0839  0.1945
15158TIP3    H166965   3.660   5.099  14.671 -0.4864 -0.8597  0.7245
15158TIP3    H266966   3.571   5.124  14.791 -0.2003  1.0371  0.5708
15159TIP3   OH266967   3.253   2.365  15.753  0.0826 -0.0373  0.0317
15159TIP3    H166968   3.323   2.397  15.809 -1.3030 -0.4050  2.1039
15159TIP3    H266969   3.204   2.443  15.727  0.6975  0.1285 -0.6514
15160TIP3   OH266970   6.013   4.780   2.922 -0.3277  0.3967 -0.1058
15160TIP3    H166971   6.084   4.771   2.986 -0.0125 -0.4926 -0.5651
15160TIP3    H266972   6.051   4.832   2.851 -0.6592  1.3325  0.3826
15161TIP3   OH266973   3.485   4.017  14.848 -0.6289  0.7614  0.5746
15161TIP3    H166974   3.508   3.929  14.819  1.9684  0.4212  3.2277
15161TIP3    H266975   3.549   4.074  14.805 -0.9169  1.0718  0.5528
15162TIP3   OH266976   5.313   2.547   5.638  0.3303  0.5114 -0.3312
15162TIP3    H166977   5.386   2.507   5.687  0.1631  0.7553  0.1243
15162TIP3    H266978   5.353   2.616   5.586  0.1404  2.2045  1.6642
15163TIP3   OH266979   1.536   3.723   5.046  0.3429 -0.0873 -0.2211
15163TIP3    H166980   1.567   3.730   4.955 -1.4525 -0.9070 -0.9347
15163TIP3    H266981   1.493   3.807   5.063  0.0695 -0.1940 -0.3785
15164TIP3   OH266982   3.604   3.856   5.481 -0.4942  0.3192  0.1991
15164TIP3    H166983   3.682   3.829   5.529 -0.3828 -1.0653 -0.7328
15164TIP3    H266984   3.605   3.952   5.487  1.1616  0.3184  0.3758
15165TIP3   OH266985   4.945   6.394   1.419 -0.3170  0.3235 -0.5973
15165TIP3    H166986   4.908   6.340   1.349 -2.2818 -1.2584  1.4979
15165TIP3    H266987   4.943   6.483   1.385 -2.8538 -0.1620 -1.9559
15166TIP3   OH266988   3.721   4.421   4.986  0.7755  0.7311 -0.4508
15166TIP3    H166989   3.816   4.420   4.995  0.6676 -1.3923  1.3615
15166TIP3    H266990   3.692   4.494   5.040  1.3091  0.1847  0.6017
15167TIP3   OH266991   6.318   4.064   0.189  0.3859  0.2602  0.0955
15167TIP3    H166992   6.391   4.026   0.237 -1.6650 -1.2077  2.2734
15167TIP3    H266993   6.330   4.033   0.099  1.8218 -0.8855  0.6330
15168TIP3   OH266994   6.732   6.044   3.131 -0.1482 -0.6247  0.7499
15168TIP3    H166995   6.662   5.979   3.143  1.2526 -2.9358 -2.2183
15168TIP3    H266996   6.717   6.079   3.043  1.7332 -0.3153  0.5157
15169TIP3   OH266997   4.046   4.472  16.675 -0.3637  0.0169  0.3905
15169TIP3    H166998   4.031   4.395  16.730  2.2121 -0.7982  0.0696
15169TIP3    H266999   4.057   4.437  16.587  1.4734  0.6375  0.3304
15170TIP3   OH267000   0.684   3.801   5.939 -0.5109  0.0595  0.0073
15170TIP3    H167001   0.750   3.861   5.972 -0.8438 -0.1952  1.1847
15170TIP3    H267002   0.728   3.716   5.936 -0.5681  0.0277  0.0680
15171TIP3   OH267003   5.717   4.292  11.143 -0.3610  0.6058 -0.2669
15171TIP3    H167004   5.719   4.387  11.132 -1.5197  0.4510 -2.0883
15171TIP3    H267005   5.767   4.258  11.069  1.5398 -0.2131  1.2857
15172TIP3   OH267006   4.042   1.436   5.100 -0.1458  0.1036 -0.4876
15172TIP3    H167007   4.015   1.497   5.031  0.4021 -0.0701 -0.8621
15172TIP3    H267008   3.980   1.452   5.172 -1.5655 -0.6512 -1.4969
15173TIP3   OH267009   1.419   2.224  13.801  0.5509  0.5839  0.0832
15173TIP3    H167010   1.361   2.224  13.725  0.9492  1.3685 -0.2316
15173TIP3    H267011   1.442   2.132  13.813 -0.0783  0.3696 -0.3125
15174TIP3   OH267012   3.073   0.611   5.575  0.1710 -0.2678  0.4508
15174TIP3    H167013   3.126   0.573   5.644 -0.1927  0.6571  1.2664
15174TIP3    H267014   3.062   0.703   5.601 -1.1120 -0.2331 -0.1275
15175TIP3   OH267015   0.453   5.890  15.375  0.3583  0.4014  0.4733
15175TIP3    H167016   0.478   5.798  15.374  1.2318  0.6327  0.1964
15175TIP3    H267017   0.461   5.917  15.466  0.3835  0.2805  0.5056
15176TIP3   OH267018   2.887   3.757   1.343 -0.1031 -0.8654 -0.5056
15176TIP3    H167019   2.921   3.844   1.361 -0.9678 -0.4371 -0.9156
15176TIP3    H267020   2.940   3.725   1.270  0.1035 -0.6226 -0.4645
15177TIP3   OH267021   4.212   2.078  14.231  0.5887 -0.5867  0.2903
15177TIP3    H167022   4.131   2.031  14.212  0.3609  0.1838 -0.7143
15177TIP3    H267023   4.183   2.168  14.249  1.2384 -0.2219 -0.4412
15178TIP3   OH267024   0.682   5.450  15.824 -0.0964  0.8937  0.1104
15178TIP3    H167025   0.590   5.472  15.842 -0.1035  1.1435 -0.2087
15178TIP3    H267026   0.722   5.534  15.799  0.6695  1.1394  2.0189
15179TIP3   OH267027   4.019   0.777  12.604 -0.4947  0.3085  0.0246
15179TIP3    H167028   4.038   0.770  12.511  1.6027  0.2044  0.4147
15179TIP3    H267029   3.959   0.851  12.611 -0.4223  0.5272 -1.3682
15180TIP3   OH267030   3.981   3.963  11.966 -0.4560 -0.5660  0.7513
15180TIP3    H167031   4.035   4.034  11.934 -2.4525 -0.5279 -3.1128
15180TIP3    H267032   3.944   3.996  12.049  0.9607  1.6277  0.5778
15181TIP3   OH267033   4.043   5.161  12.770  0.3611 -0.4301 -0.2647
15181TIP3    H167034   4.048   5.240  12.823  0.4529 -0.2183 -0.5858
15181TIP3    H267035   4.122   5.112  12.793  0.6576 -0.1049 -0.5699
15182TIP3   OH267036   3.634   5.457  16.301 -0.2834  0.3127 -0.4300
15182TIP3    H167037   3.601   5.531  16.350 -0.6158 -0.1114 -0.0100
15182TIP3    H267038   3.663   5.394  16.367  2.9646  1.3150 -0.7155
15183TIP3   OH267039   6.388   3.148  11.791  0.5072 -0.6236  0.4532
15183TIP3    H167040   6.453   3.077  11.793  1.8736  0.5058 -0.9634
15183TIP3    H267041   6.439   3.227  11.809 -0.7772  0.1526  0.8083
15184TIP3   OH267042   5.678   5.454   6.506 -0.3504  0.5380 -0.3889
15184TIP3    H167043   5.584   5.441   6.517 -0.4713  0.3698 -1.4832
15184TIP3    H267044   5.695   5.541   6.541 -0.8533  0.4316  0.1236
15185TIP3   OH267045   6.546   1.545   4.639 -0.0661 -0.3839  0.0156
15185TIP3    H167046   6.625   1.545   4.584  0.8645 -0.4607  1.2906
15185TIP3    H267047   6.555   1.623   4.694 -0.6076 -0.6773  0.5346
15186TIP3   OH267048   4.228   4.741   2.207 -0.0855 -0.0885  0.2990
15186TIP3    H167049   4.138   4.719   2.232  1.0710 -2.3356  3.0131
15186TIP3    H267050   4.247   4.683   2.134  0.4876 -3.0724  2.6271
15187TIP3   OH267051   6.223   4.681   1.029 -0.1206  0.0982  0.1244
15187TIP3    H167052   6.250   4.729   0.951 -1.6945 -0.0406 -0.5589
15187TIP3    H267053   6.176   4.604   0.995 -1.2035  0.2491  1.1864
15188TIP3   OH267054   5.431   6.393  14.061 -0.1282  1.0112 -0.0793
15188TIP3    H167055   5.349   6.412  14.105 -0.8992 -2.4510  0.2632
15188TIP3    H267056   5.488   6.359  14.129  0.5150  0.5116 -0.8488
15189TIP3   OH267057   5.661   5.778  12.616  0.5775  0.9193  0.1492
15189TIP3    H167058   5.721   5.704  12.605 -0.6379 -0.2602  1.0877
15189TIP3    H267059   5.633   5.799  12.527  0.2226 -0.3977 -0.0694
15190TIP3   OH267060   5.036   3.910  16.538 -0.3523 -0.0470  0.2759
15190TIP3    H167061   5.087   3.970  16.591  1.5809 -1.5367  0.2198
15190TIP3    H267062   4.945   3.935  16.554  0.2886  1.4567  1.9063
15191TIP3   OH267063   5.401   3.231  12.570 -0.1311  0.7619 -0.1411
15191TIP3    H167064   5.478   3.177  12.554 -0.3698  0.1874  0.5933
15191TIP3    H267065   5.396   3.289  12.494  0.2731 -0.0885 -0.8425
15192TIP3   OH267066   5.572   4.615   0.847  0.6131  0.5508  0.2286
15192TIP3    H167067   5.600   4.586   0.760 -1.4967  2.8445 -1.3439
15192TIP3    H267068   5.614   4.701   0.859  0.0541  0.7369  0.9990
15193TIP3   OH267069   2.653   5.687   6.295  0.2347 -0.0338  0.3406
15193TIP3    H167070   2.710   5.643   6.357  1.1078 -1.0874 -1.1453
15193TIP3    H267071   2.662   5.637   6.214 -2.2130  0.2272 -0.1721
15194TIP3   OH267072   6.329   0.234   3.248  0.6685  0.4458 -0.1268
15194TIP3    H167073   6.284   0.318   3.237  0.0649  0.2197  0.4979
15194TIP3    H267074   6.273   0.171   3.203  2.6023  0.7368 -3.2346
15195TIP3   OH267075   2.132   6.562   6.206 -0.0466 -0.1241 -0.9148
15195TIP3    H167076   2.106   6.652   6.188 -1.0855 -0.1178  0.4028
15195TIP3    H267077   2.051   6.519   6.234  0.5587 -1.2964 -0.8811
15196TIP3   OH267078   4.535   6.064  11.451  0.0232  0.2094  0.3215
15196TIP3    H167079   4.517   5.977  11.414  0.7819  0.0529  0.3183
15196TIP3    H267080   4.630   6.069  11.457  0.1252  1.7764 -1.5114
15197TIP3   OH267081   1.220   5.603   3.075 -0.2790  0.3509 -0.3191
15197TIP3    H167082   1.202   5.697   3.071  1.5961  0.7355 -3.8290
15197TIP3    H267083   1.313   5.595   3.052 -0.5230 -2.4008 -0.7249
15198TIP3   OH267084   5.423   6.063   5.478 -0.3795 -0.2834 -0.0984
15198TIP3    H167085   5.345   6.043   5.530  0.5512 -1.8087  0.8204
15198TIP3    H267086   5.432   6.158   5.482 -0.7622 -0.2849  1.9739
15199TIP3   OH267087   4.176   1.170  11.735  0.2452  1.2086  0.1707
15199TIP3    H167088   4.209   1.165  11.645 -1.0752  0.3779 -0.3055
15199TIP3    H267089   4.199   1.085  11.773 -0.2180  1.1117  0.2363
15200TIP3   OH267090   2.436   3.673  13.582  0.8863 -0.3574  0.1291
15200TIP3    H167091   2.449   3.693  13.674 -1.0833  0.3979  0.2947
15200TIP3    H267092   2.456   3.580  13.574 -0.3891 -0.7944  1.6461
15201TIP3   OH267093   0.969   2.503  11.120  0.6881 -0.3042  0.6948
15201TIP3    H167094   0.997   2.549  11.041 -1.2973  0.2877  0.2758
15201TIP3    H267095   0.956   2.413  11.092 -0.8932  0.0818  0.0587
15202TIP3   OH267096   4.379   5.539  14.472  0.3495 -0.3772  0.3003
15202TIP3    H167097   4.421   5.618  14.438  0.8546 -0.8168 -0.1281
15202TIP3    H267098   4.385   5.547  14.567  2.9782 -1.2013  0.2979
15203TIP3   OH267099   6.203   5.188   1.246  0.3149  0.5510  0.0942
15203TIP3    H167100   6.194   5.103   1.203  1.0377  0.0027  0.9738
15203TIP3    H267101   6.116   5.206   1.282  0.1512  0.2024 -0.1235
15204TIP3   OH267102   1.868   4.591  10.760 -0.0761  0.0966 -0.1086
15204TIP3    H167103   1.805   4.586  10.833 -1.6529 -0.3379 -1.4495
15204TIP3    H267104   1.858   4.508  10.714 -0.1370  0.9075 -1.6205
15205TIP3   OH267105   5.032   0.863   1.435  0.3406 -0.2783 -0.0969
15205TIP3    H167106   5.101   0.886   1.498  0.3608 -3.3236  1.1369
15205TIP3    H267107   5.078   0.817   1.365  0.1665  2.2209 -2.0032
15206TIP3   OH267108   4.633   5.916   2.763  0.5505  0.5314  0.8602
15206TIP3    H167109   4.661   5.861   2.690  0.5403  0.4732  0.8995
15206TIP3    H267110   4.550   5.877   2.791  1.4672 -0.6130  2.1288
15207TIP3   OH267111   0.225   1.779   3.246 -0.1375  0.3247  0.1246
15207TIP3    H167112   0.180   1.816   3.171  0.0659  0.1556 -0.0813
15207TIP3    H267113   0.286   1.847   3.275 -0.1179  0.3377  0.0514
15208TIP3   OH267114   0.852   5.753  12.317 -0.1417 -0.0187 -0.0308
15208TIP3    H167115   0.798   5.698  12.374  1.2222 -0.2592  1.0719
15208TIP3    H267116   0.888   5.820  12.374  1.3913 -0.3650 -0.5310
15209TIP3   OH267117   1.342   2.293  11.255 -0.0296 -0.0278  0.4100
15209TIP3    H167118   1.287   2.370  11.270  0.9157  0.2950  2.6413
15209TIP3    H267119   1.402   2.319  11.186  0.0019  1.1022  0.8452
15210TIP3   OH267120   3.909   4.737   0.978  0.3763 -0.2686  0.6184
15210TIP3    H167121   3.860   4.777   0.907 -0.4814 -0.7742  0.9058
15210TIP3    H267122   3.851   4.743   1.054 -0.6060 -3.5811  0.3066
15211TIP3   OH267123   4.023   5.250  16.510  0.1302 -0.0683 -0.0588
15211TIP3    H167124   4.063   5.301  16.580 -1.0696  0.1220  0.5296
15211TIP3    H267125   4.048   5.159  16.529  2.2107  0.2364 -1.0696
15212TIP3   OH267126   2.105   3.117   1.820  0.1517 -0.1308 -0.3749
15212TIP3    H167127   2.136   3.125   1.910 -0.6817 -1.3140  0.0257
15212TIP3    H267128   2.156   3.044   1.783 -0.2986 -0.3708 -0.5238
15213TIP3   OH267129   5.272   0.632   3.610  0.4359  0.1028  0.1496
15213TIP3    H167130   5.311   0.706   3.562 -1.6017  0.1471 -1.6002
15213TIP3    H267131   5.308   0.554   3.568  2.4170  0.0087  1.8553
15214TIP3   OH267132   6.652   2.440  12.732 -0.8699 -0.4313 -0.0026
15214TIP3    H167133   6.714   2.372  12.704  1.3452  1.2939  0.4342
15214TIP3    H267134   6.617   2.407  12.816  0.5534 -0.8145  0.4642
15215TIP3   OH267135   4.133   0.424   5.816 -0.3325  0.2638 -0.4391
15215TIP3    H167136   4.139   0.487   5.745 -0.3309 -1.4951 -2.0598
15215TIP3    H267137   4.072   0.464   5.879  0.8249  2.5115 -0.6687
15216TIP3   OH267138   6.611   4.153   3.137 -0.0586  0.0917 -0.0271
15216TIP3    H167139   6.665   4.205   3.076  2.4324  1.4759  3.0426
15216TIP3    H267140   6.635   4.062   3.119 -1.3875  0.1825 -2.7520
15217TIP3   OH267141   2.323   3.077  11.089  0.1987  0.4236 -0.5282
15217TIP3    H167142   2.315   3.151  11.029  1.9654  1.0482 -0.0601
15217TIP3    H267143   2.296   3.112  11.174 -1.2131 -0.1517 -0.7056
15218TIP3   OH267144   3.826   5.359  12.397 -0.2565  0.3332  0.1077
15218TIP3    H167145   3.733   5.353  12.418 -0.4104  0.4616 -0.4994
15218TIP3    H267146   3.828   5.380  12.303  0.3739  1.3289  0.3254
15219TIP3   OH267147   5.640   1.307   3.622  0.1656  0.3249  0.2154
15219TIP3    H167148   5.691   1.385   3.602  0.6319 -0.0276  0.0053
15219TIP3    H267149   5.646   1.253   3.543  0.6830 -0.3624  0.7107
15220TIP3   OH267150   3.314   0.566  16.023  0.7291  0.1230 -1.0306
15220TIP3    H167151   3.396   0.537  16.062  1.0807  1.0129 -1.0743
15220TIP3    H267152   3.247   0.545  16.088  1.0524 -0.1621 -0.7883
15221TIP3   OH267153   0.234   1.530   0.033  0.7500  0.3258  0.3291
15221TIP3    H167154   0.251   1.436   0.036  1.5036  0.4555  0.4875
15221TIP3    H267155   0.288   1.566   0.104  1.1702  0.9720 -0.2964
15222TIP3   OH267156   2.585   2.859   1.238  0.9402  0.0453 -0.2713
15222TIP3    H167157   2.635   2.932   1.200  0.7426  0.5024  0.3240
15222TIP3    H267158   2.520   2.837   1.172 -0.4949  1.9385  0.4282
15223TIP3   OH267159   5.713   5.469  13.666 -0.1375  0.3363 -0.3755
15223TIP3    H167160   5.749   5.547  13.623 -0.6299  1.5500  1.2903
15223TIP3    H267161   5.658   5.504  13.736 -0.4172 -1.5293  0.3888
15224TIP3   OH267162   3.593   2.865  16.750 -0.6661  0.7812  0.2150
15224TIP3    H167163   3.507   2.828  16.771 -0.1321 -0.1797  0.7480
15224TIP3    H267164   3.621   2.819  16.671  0.0797 -0.1132  0.9839
15225TIP3   OH267165   1.459   1.021  14.282  0.0337  0.0984 -0.3885
15225TIP3    H167166   1.377   1.056  14.318  0.1676  2.4366 -2.0693
15225TIP3    H267167   1.451   1.035  14.187  2.5647  0.9303 -0.5690
15226TIP3   OH267168   4.271   5.319   2.092  0.5450  0.0058  0.0717
15226TIP3    H167169   4.215   5.247   2.122  0.0496 -0.4057 -1.7261
15226TIP3    H267170   4.350   5.276   2.058  1.3178  0.4921  1.1860
15227TIP3   OH267171   1.508   4.674  15.336  0.4284  0.2555 -0.6867
15227TIP3    H167172   1.501   4.624  15.255  0.8467 -1.9943  0.5725
15227TIP3    H267173   1.445   4.746  15.326 -0.6818 -0.8836 -2.3466
15228TIP3   OH267174   2.574   1.735  14.488  0.1193 -0.0556 -0.0446
15228TIP3    H167175   2.512   1.706  14.554 -0.8858 -0.4329 -1.1358
15228TIP3    H267176   2.660   1.708  14.522 -0.3738 -0.2366  1.0939
15229TIP3   OH267177   1.003   5.689   6.377 -0.9816 -0.7776  0.1348
15229TIP3    H167178   0.957   5.612   6.409 -0.3942 -0.3495  2.1375
15229TIP3    H267179   1.071   5.654   6.319 -1.5629 -1.6407 -0.0510
15230TIP3   OH267180   5.471   4.804  15.866 -0.1713  0.5132 -0.4768
15230TIP3    H167181   5.440   4.892  15.887 -2.7728  0.1840 -2.4663
15230TIP3    H267182   5.441   4.789  15.776 -0.6950 -2.7771  0.1413
15231TIP3   OH267183   0.125   4.354  11.513  0.1393  0.2199  0.2498
15231TIP3    H167184   0.147   4.265  11.484  1.3348  1.1296 -1.8104
15231TIP3    H267185   0.209   4.400  11.514 -0.8179  2.1947 -1.9359
15232TIP3   OH267186   5.261   5.230  15.889  0.1454 -0.4595 -0.1501
15232TIP3    H167187   5.190   5.173  15.860 -0.0581  0.4842 -1.5468
15232TIP3    H267188   5.220   5.291  15.950  0.0005 -0.6165 -0.0883
15233TIP3   OH267189   3.886   6.128  14.136  0.2950  0.4189  0.3519
15233TIP3    H167190   3.815   6.066  14.116 -1.0011  2.1199 -0.5464
15233TIP3    H267191   3.895   6.180  14.057  0.9669  1.7548  1.2788
15234TIP3   OH267192   1.403   6.704  12.826  0.3094 -0.3495  0.0067
15234TIP3    H167193   1.399   6.796  12.803  3.3986  0.0275  0.5834
15234TIP3    H267194   1.354   6.697  12.908 -0.0899  0.7333 -0.1299
15235TIP3   OH267195   2.226   3.348  11.773 -0.0177 -0.3278 -1.0086
15235TIP3    H167196   2.309   3.340  11.821 -0.4210 -1.5117 -0.4751
15235TIP3    H267197   2.174   3.273  11.802 -0.1510 -1.3332 -3.6054
15236TIP3   OH267198   1.239   3.260   1.114  0.3444  0.3799 -0.0842
15236TIP3    H167199   1.150   3.232   1.135 -0.2503  2.6249  0.7082
15236TIP3    H267200   1.236   3.356   1.119  1.9415  0.7582 -3.5762
15237TIP3   OH267201   4.298   1.657  15.758 -0.5429 -0.1916 -0.7435
15237TIP3    H167202   4.265   1.741  15.788 -1.0570 -0.1927 -1.2871
15237TIP3    H267203   4.220   1.603  15.748 -0.4031 -0.1672 -2.1343
15238TIP3   OH267204   5.719   3.553   4.725  0.4057 -0.3025  0.2412
15238TIP3    H167205   5.727   3.457   4.729 -0.0200 -0.3300  0.5522
15238TIP3    H267206   5.645   3.572   4.782 -0.5726  0.0748 -1.1234
15239TIP3   OH267207   4.157   0.549   5.301 -0.2888  0.0862  0.0730
15239TIP3    H167208   4.086   0.614   5.305 -0.0827  0.3752 -0.8259
15239TIP3    H267209   4.132   0.483   5.366  0.7027  2.2128  2.7936
15240TIP3   OH267210   4.685   3.095   2.722 -0.2738 -0.4081  0.1033
15240TIP3    H167211   4.668   3.003   2.741  0.7178 -0.4253  1.0072
15240TIP3    H267212   4.690   3.137   2.808 -0.0276  0.3660 -0.2779
15241TIP3   OH267213   5.936   1.352  16.198 -0.3464  0.1968 -0.9410
15241TIP3    H167214   5.885   1.355  16.279  1.2067 -0.3196  0.0962
15241TIP3    H267215   5.966   1.442  16.184  1.1098 -0.0742  0.2378
15242TIP3   OH267216   1.830   3.464   5.456  0.1848  0.4260 -0.4860
15242TIP3    H167217   1.903   3.482   5.397  1.7070 -2.2366  0.4177
15242TIP3    H267218   1.793   3.382   5.425 -1.3852  0.8844  0.0939
15243TIP3   OH267219   5.428   5.355   1.647  0.0315  0.2256 -0.0967
15243TIP3    H167220   5.489   5.283   1.632 -1.4586 -1.2057  0.3321
15243TIP3    H267221   5.387   5.333   1.731  0.2219  2.1102  0.5251
15244TIP3   OH267222   4.752   4.201   0.818  0.1831 -0.5641  0.3038
15244TIP3    H167223   4.732   4.215   0.911 -1.5007  0.4319 -0.1633
15244TIP3    H267224   4.768   4.288   0.783 -1.5132 -0.6240 -0.7866
15245TIP3   OH267225   2.745   3.957   0.056  0.7420  0.4061  0.3821
15245TIP3    H167226   2.740   3.896  -0.017 -1.0918 -0.8242  1.4528
15245TIP3    H267227   2.721   3.905   0.133  0.9440  2.0478  1.6216
15246TIP3   OH267228   1.007   5.579  13.772 -0.3872 -0.0278 -0.1214
15246TIP3    H167229   1.029   5.577  13.679 -2.5936 -1.1480 -0.6669
15246TIP3    H267230   1.071   5.520  13.813 -0.9418 -1.5077 -1.3067
15247TIP3   OH267231   0.757   3.752   1.837 -0.0081 -0.2737  0.6707
15247TIP3    H167232   0.835   3.755   1.782 -0.9318 -3.9286 -1.1031
15247TIP3    H267233   0.688   3.789   1.781 -0.4392 -1.6143  0.2752
15248TIP3   OH267234   2.626   3.276  12.529 -0.1956  0.0598  0.1647
15248TIP3    H167235   2.565   3.217  12.573 -2.1206  0.5249 -1.6989
15248TIP3    H267236   2.584   3.362  12.532  2.1795  1.2889  2.1120
15249TIP3   OH267237   4.468   1.135   6.212  0.1659 -0.0447 -0.0180
15249TIP3    H167238   4.387   1.109   6.255  0.9964  0.8803  2.2560
15249TIP3    H267239   4.537   1.117   6.277  1.4078  2.1562 -0.6005
15250TIP3   OH267240   1.343   2.250   6.251 -0.3118  0.2454 -0.0320
15250TIP3    H167241   1.274   2.224   6.190  0.6318  0.2886 -1.1583
15250TIP3    H267242   1.422   2.207   6.217 -0.3510 -2.7835  3.2146
15251TIP3   OH267243   6.779   5.669   3.640  0.0398  0.1564 -0.4798
15251TIP3    H167244   6.754   5.753   3.678 -2.2433  0.0748 -1.6429
15251TIP3    H267245   6.853   5.689   3.583  0.7402  1.0144  0.7114
15252TIP3   OH267246   2.913   1.825  12.411  0.0351  0.1328 -0.4748
15252TIP3    H167247   2.894   1.865  12.326  0.9900 -0.1580 -0.8299
15252TIP3    H267248   2.990   1.872  12.443  1.2028 -1.4113 -0.9171
15253TIP3   OH267249   1.626   6.433  13.413 -0.0506  0.2106 -0.1866
15253TIP3    H167250   1.598   6.342  13.422  0.6198  0.0211  0.0383
15253TIP3    H267251   1.605   6.456  13.323  0.6883 -0.4894 -0.5478
15254TIP3   OH267252   2.693   2.214   3.085 -0.1136 -0.6191  0.4177
15254TIP3    H167253   2.703   2.286   3.148  0.4112  0.4062 -0.7894
15254TIP3    H267254   2.751   2.237   3.013 -1.2571 -1.3660 -0.7905
15255TIP3   OH267255   5.483   6.789  10.552 -0.2813 -0.6040 -0.0304
15255TIP3    H167256   5.470   6.789  10.647  0.2563  1.5468  0.0918
15255TIP3    H267257   5.449   6.874  10.523  1.9120 -0.0938 -1.3611
15256TIP3   OH267258   6.362   3.466  16.873  0.5757  0.6590 -0.8008
15256TIP3    H167259   6.315   3.385  16.853 -1.7012  1.7958 -0.4631
15256TIP3    H267260   6.452   3.439  16.888 -0.2000 -1.8774 -0.1972
15257TIP3   OH267261   2.065   6.589  11.528 -0.1437 -0.4757 -0.2217
15257TIP3    H167262   2.071   6.509  11.475 -1.4780 -0.3497 -0.5922
15257TIP3    H267263   2.095   6.659  11.470 -0.8657 -0.4448 -0.5670
15258TIP3   OH267264   2.600   4.992   5.213 -0.3929  0.4160 -0.3619
15258TIP3    H167265   2.595   5.034   5.299  0.6397  0.8270 -0.4883
15258TIP3    H267266   2.517   4.947   5.203  0.3862 -1.6830  1.8899
15259TIP3   OH267267   1.799   5.858  15.930  0.4916  0.2198  0.4585
15259TIP3    H167268   1.734   5.926  15.915 -0.0982 -0.4215  0.0594
15259TIP3    H267269   1.752   5.791  15.981  0.6949 -0.4520 -0.2171
15260TIP3   OH267270   0.907   2.777   5.011  0.0732 -0.3682  0.1392
15260TIP3    H167271   0.937   2.827   4.935 -1.0114  2.9320  1.6793
15260TIP3    H267272   0.972   2.797   5.079 -0.9964 -0.0950  1.1032
15261TIP3   OH267273   0.229   5.406  10.478  0.1909 -0.0369 -0.1460
15261TIP3    H167274   0.275   5.457  10.545  0.5835 -1.3973  0.6478
15261TIP3    H267275   0.143   5.389  10.515  0.3639 -0.6783 -0.0207
15262TIP3   OH267276   0.171   0.892  11.577 -0.0757 -0.1502  0.2832
15262TIP3    H167277   0.094   0.850  11.538 -0.3557  0.2916  0.3507
15262TIP3    H267278   0.228   0.912  11.502 -1.2109  1.9323 -0.1073
15263TIP3   OH267279   5.642   0.266   0.836  0.3074 -0.0051 -0.0641
15263TIP3    H167280   5.594   0.192   0.799 -1.4858  0.7158  0.7399
15263TIP3    H267281   5.723   0.271   0.784 -0.0747 -1.7887 -0.8759
15264TIP3   OH267282   5.109   1.778  13.675 -0.4955 -0.4773 -0.0121
15264TIP3    H167283   5.160   1.732  13.609 -2.2037  0.2752 -1.9781
15264TIP3    H267284   5.101   1.868  13.642 -2.9565 -0.5425  0.2060
15265TIP3   OH267285   2.474   6.092  13.091 -0.4489  0.4061  0.3809
15265TIP3    H167286   2.391   6.048  13.073 -0.0809  0.0876 -0.6011
15265TIP3    H267287   2.466   6.178  13.049 -1.0682  1.2167  2.0783
15266TIP3   OH267288   6.317   2.016   2.752  0.0297 -0.1553  0.0402
15266TIP3    H167289   6.406   1.999   2.721  0.0128  0.2014 -0.2079
15266TIP3    H267290   6.330   2.060   2.837  0.1107  0.8323 -0.4732
15267TIP3   OH267291   2.485   2.476  14.675 -0.5860 -0.7790  0.1403
15267TIP3    H167292   2.535   2.439  14.602  0.4994 -0.1719  0.5595
15267TIP3    H267293   2.421   2.409  14.696  0.2283 -1.7005 -0.2354
15268TIP3   OH267294   3.703   4.233  12.022 -0.5158 -0.1128 -0.0049
15268TIP3    H167295   3.632   4.172  12.005 -2.3501  1.7014  0.7319
15268TIP3    H267296   3.721   4.223  12.116 -0.6786  0.3024  0.0734
15269TIP3   OH267297   4.962   6.793   1.997 -0.1539 -0.2924 -0.5845
15269TIP3    H167298   4.912   6.778   2.077 -0.0092  1.0864 -0.2211
15269TIP3    H267299   4.908   6.755   1.927 -2.1286  1.8059 -0.3137
15270TIP3   OH267300   2.716   1.250   0.748 -0.3245 -0.1668  0.2546
15270TIP3    H167301   2.643   1.194   0.775 -0.3321  0.7287  2.3008
15270TIP3    H267302   2.701   1.332   0.794  0.6333  0.9254 -1.3086
15271TIP3   OH267303   5.534   5.141   4.807 -0.7719  0.4623 -0.0195
15271TIP3    H167304   5.604   5.078   4.824 -0.4284  0.6718 -0.6460
15271TIP3    H267305   5.466   5.119   4.871  0.5708  1.3893  1.8142
15272TIP3   OH267306   0.749   0.655   5.523 -0.4845  0.0320 -0.4141
15272TIP3    H167307   0.813   0.651   5.453  0.9093 -1.7123  0.8572
15272TIP3    H267308   0.789   0.607   5.595 -2.0819  1.2730  1.4065
15273TIP3   OH267309   4.310   5.017   0.519  0.0823  0.1434 -0.2600
15273TIP3    H167310   4.345   5.038   0.432 -0.9202  0.5165 -0.5977
15273TIP3    H267311   4.227   4.973   0.501 -0.1397  0.2260  0.5148
15274TIP3   OH267312   4.482   5.734   2.975  0.0802  0.2308 -0.6291
15274TIP3    H167313   4.437   5.662   3.019 -0.8330  0.8816 -0.4682
15274TIP3    H267314   4.546   5.691   2.918 -0.6715 -0.7200 -0.7806
15275TIP3   OH267315   5.942   1.288   3.939 -0.1013 -0.4752  0.0354
15275TIP3    H167316   5.967   1.197   3.954  0.6229 -0.6938 -2.0674
15275TIP3    H267317   5.854   1.282   3.901 -0.1321 -0.2824  0.0758
15276TIP3   OH267318   4.470   5.194   1.951  0.0345 -0.4305  0.3262
15276TIP3    H167319   4.514   5.115   1.982  4.1166  2.1476  1.8486
15276TIP3    H267320   4.509   5.211   1.865 -0.0483  0.4688  0.4623
15277TIP3   OH267321   6.126   2.254  10.451 -0.8694  0.0696  0.2560
15277TIP3    H167322   6.064   2.206  10.396 -0.5071 -1.0476  0.7869
15277TIP3    H267323   6.209   2.207  10.439 -0.6898  0.0674  1.4219
15278TIP3   OH267324   3.093   4.765  13.348  0.6204  0.0503 -0.2840
15278TIP3    H167325   3.069   4.673  13.359 -1.2002  0.2498 -1.9015
15278TIP3    H267326   3.020   4.813  13.387  1.5361  0.8122  0.4998
15279TIP3   OH267327   4.879   5.123  13.571 -0.1670 -0.1142  0.0057
15279TIP3    H167328   4.921   5.206  13.551 -3.3536  1.4860 -0.8081
15279TIP3    H267329   4.785   5.140  13.558 -0.9494 -3.9457 -0.5813
15280TIP3   OH267330   0.927   6.753  16.160  0.0958 -0.0495 -0.0866
15280TIP3    H167331   0.878   6.697  16.220  0.6566 -0.0011  0.4258
15280TIP3    H267332   0.961   6.824  16.216  2.6398 -1.2685  0.0426
15281TIP3   OH267333   1.910   4.418  14.023 -0.1940  0.7430 -0.3365
15281TIP3    H167334   1.932   4.343  13.968 -1.5219 -0.8704  1.2122
15281TIP3    H267335   1.921   4.494  13.966  1.5556 -0.5742 -1.8543
15282TIP3   OH267336   6.257   0.001   1.770 -0.6759  0.1948  0.1439
15282TIP3    H167337   6.214  -0.020   1.687  0.5997  2.0214 -1.0891
15282TIP3    H267338   6.202   0.068   1.809 -0.6927  0.1479  0.1994
15283TIP3   OH267339   4.307   1.545   5.126 -0.0190  0.4332  0.3987
15283TIP3    H167340   4.375   1.524   5.190  0.4117 -2.6410 -0.9175
15283TIP3    H267341   4.238   1.481   5.142  0.3146 -0.7756 -2.4211
15284TIP3   OH267342   0.280   6.050  11.620 -0.3796 -0.5257 -0.0991
15284TIP3    H167343   0.213   5.999  11.666  0.4017 -1.6498 -0.1714
15284TIP3    H267344   0.356   6.046  11.677 -0.3750  0.8153  0.0214
15285TIP3   OH267345   1.477   1.958   3.752 -0.1046  0.3646  0.2335
15285TIP3    H167346   1.399   1.961   3.698  0.2517 -1.6743 -0.4604
15285TIP3    H267347   1.545   2.001   3.700 -0.3060  0.4544  0.0472
15286TIP3   OH267348   1.741   2.890   1.398  0.4809  0.1827 -0.5555
15286TIP3    H167349   1.757   2.829   1.470 -2.1504 -0.4213 -0.3896
15286TIP3    H267350   1.698   2.965   1.440 -0.2095  0.2465 -1.3655
15287TIP3   OH267351   0.804   1.260  12.543 -0.1483  0.0426 -0.4035
15287TIP3    H167352   0.796   1.229  12.452  2.6677 -0.9321 -0.4300
15287TIP3    H267353   0.784   1.183  12.596  3.4581 -1.1030 -0.4152
15288TIP3   OH267354   0.977   2.353   2.731 -0.5193  0.6136 -0.2498
15288TIP3    H167355   1.024   2.413   2.789 -0.0498 -0.4550  0.4998
15288TIP3    H267356   1.044   2.322   2.670 -0.6290  0.4032 -0.2623
15289TIP3   OH267357   1.550   5.451  14.005 -0.6013 -0.0602  0.4787
15289TIP3    H167358   1.456   5.467  13.999 -0.6035  0.0682  0.8333
15289TIP3    H267359   1.564   5.421  14.095 -0.3391 -0.3318  0.3522
15290TIP3   OH267360   4.156   0.530   1.916  0.2261  0.3814  0.1579
15290TIP3    H167361   4.205   0.612   1.909  0.0755  0.4176 -0.5133
15290TIP3    H267362   4.115   0.519   1.830 -1.0751  0.4325  0.7431
15291TIP3   OH267363   6.030   3.625   2.558 -0.3347  0.2178 -0.6754
15291TIP3    H167364   5.999   3.650   2.645  1.9587  1.4613 -0.1374
15291TIP3    H267365   5.994   3.692   2.500 -0.9187  0.0585 -0.4987
15292TIP3   OH267366   0.096   4.981  13.022  0.5421 -0.6035 -0.2744
15292TIP3    H167367   0.039   4.915  13.061 -1.2712 -0.1352 -1.9680
15292TIP3    H267368   0.182   4.939  13.017 -0.3375 -2.4939 -0.4573
15293TIP3   OH267369   1.556   2.226   6.043  0.4732 -0.3266 -0.0449
15293TIP3    H167370   1.530   2.136   6.058  2.2574 -0.5705  1.8807
15293TIP3    H267371   1.647   2.231   6.070  0.9997  1.6523 -1.8383
15294TIP3   OH267372   1.814   3.909   1.404  0.4265 -0.9835  0.3936
15294TIP3    H167373   1.839   3.904   1.497  0.3590  0.4861  0.5167
15294TIP3    H267374   1.793   4.001   1.390 -0.0892 -1.2851 -0.9619
15295TIP3   OH267375   3.804   3.803  14.659 -0.2965  0.2903  0.2678
15295TIP3    H167376   3.846   3.723  14.629 -0.6539 -0.0467  0.6512
15295TIP3    H267377   3.738   3.822  14.592 -0.7484 -0.1787  0.5719
15296TIP3   OH267378   3.540   1.447   4.147 -0.2529 -0.0613  0.2550
15296TIP3    H167379   3.499   1.367   4.114  2.8345 -0.9053 -1.9670
15296TIP3    H267380   3.546   1.504   4.070  0.4155  1.0502  1.1071
15297TIP3   OH267381   0.509   5.500   0.714  0.2544 -0.9004 -0.0023
15297TIP3    H167382   0.473   5.434   0.774  0.9806 -0.8869  0.4554
15297TIP3    H267383   0.524   5.577   0.768  2.8043 -1.5206  0.2875
15298TIP3   OH267384   5.899   1.856   0.086  1.0834  0.4356  0.2731
15298TIP3    H167385   5.958   1.929   0.065  1.4070  0.1736  0.2582
15298TIP3    H267386   5.957   1.781   0.097  0.6817 -0.0489 -0.7136
15299TIP3   OH267387   3.397   4.416  14.461 -0.1109  0.0633 -0.4068
15299TIP3    H167388   3.337   4.368  14.519  1.8602 -1.1941  0.7085
15299TIP3    H267389   3.465   4.450  14.519  0.9270  0.4153 -1.7672
15300TIP3   OH267390   4.960   3.295   2.173  0.1493 -0.2194  0.1508
15300TIP3    H167391   5.005   3.307   2.090 -2.9911 -1.3778 -1.9070
15300TIP3    H267392   4.989   3.209   2.204  0.9047 -0.0325 -0.0199
15301TIP3   OH267393   3.094   5.281  12.548  0.3604  0.1103 -0.1352
15301TIP3    H167394   3.152   5.213  12.514  2.0431  0.7061  1.3961
15301TIP3    H267395   3.006   5.245  12.538  1.2167 -2.5927  1.2489
15302TIP3   OH267396   6.463   2.489  11.804  0.3530 -0.1981  0.0341
15302TIP3    H167397   6.421   2.543  11.871 -0.7118 -1.1773  0.1863
15302TIP3    H267398   6.420   2.515  11.722  3.3817  2.8651 -0.8528
15303TIP3   OH267399   4.077   3.466   1.924  0.0535 -0.2585  0.1480
15303TIP3    H167400   4.090   3.386   1.873  0.2206 -0.4549  0.5016
15303TIP3    H267401   4.045   3.529   1.860  0.9017 -0.3143 -0.3496
15304TIP3   OH267402   1.638   0.208  17.009  0.6523  0.2066  0.1181
15304TIP3    H167403   1.666   0.178  17.095 -0.7124  0.4480  0.6654
15304TIP3    H267404   1.641   0.130  16.954 -1.8807 -0.7803  1.2720
15305TIP3   OH267405   4.916   3.721  10.480  0.1246  0.9641  0.4582
15305TIP3    H167406   4.869   3.764  10.409 -3.3243 -0.0032  1.9329
15305TIP3    H267407   4.932   3.632  10.448  1.3968  1.4047 -0.1907
15306TIP3   OH267408   5.790   1.681   5.466 -0.1071 -0.2613  0.1870
15306TIP3    H167409   5.867   1.631   5.494 -2.0739 -2.6167  1.7094
15306TIP3    H267410   5.751   1.713   5.547 -0.6741  1.0878 -0.5855
15307TIP3   OH267411   3.282   0.847  13.352  0.0534  0.1124  0.4237
15307TIP3    H167412   3.189   0.843  13.375 -0.1345  0.4111 -0.2579
15307TIP3    H267413   3.305   0.939  13.365  0.7034 -0.2707  2.2518
15308TIP3   OH267414   3.533   3.814  11.023 -0.3409 -0.0025 -0.3669
15308TIP3    H167415   3.572   3.727  11.010 -2.2136 -1.1276  0.9435
15308TIP3    H267416   3.559   3.839  11.112 -0.5897  0.3537 -0.3920
15309TIP3   OH267417   0.220   2.795  15.000 -0.2696 -0.7456  0.2413
15309TIP3    H167418   0.132   2.764  15.024  0.2467 -1.4886  1.2460
15309TIP3    H267419   0.250   2.733  14.934 -1.0493  0.3527 -1.1899
15310TIP3   OH267420   1.340   1.378  12.733  0.1548 -0.5363  0.4561
15310TIP3    H167421   1.288   1.326  12.672 -1.8622  0.2197  1.4353
15310TIP3    H267422   1.354   1.320  12.808 -0.9226 -0.1425  0.9763
15311TIP3   OH267423   2.117   3.498   3.106 -0.3165  0.5619  0.3161
15311TIP3    H167424   2.159   3.458   3.182  1.6674 -0.9922 -1.4701
15311TIP3    H267425   2.068   3.572   3.142  0.7617  0.0663  3.0535
15312TIP3   OH267426   4.069   1.642   1.344  0.0723  0.4407  0.2197
15312TIP3    H167427   4.040   1.688   1.265 -0.1489  0.6566  0.4267
15312TIP3    H267428   4.058   1.706   1.414 -1.4669 -0.3342  0.7300
15313TIP3   OH267429   3.903   1.225  11.855  0.1878 -0.7197  0.5436
15313TIP3    H167430   3.857   1.236  11.772  0.8676  1.7527  0.4297
15313TIP3    H267431   3.994   1.205  11.830 -0.0416 -2.1680  0.7539
15314TIP3   OH267432   6.561   0.605  11.517  0.0284 -0.5262 -0.1528
15314TIP3    H167433   6.572   0.544  11.444 -0.6182 -1.1490  0.2549
15314TIP3    H267434   6.560   0.549  11.595 -0.5295  0.0048  0.2303
15315TIP3   OH267435   2.806   6.369  14.782 -0.2786 -0.3984 -0.4851
15315TIP3    H167436   2.860   6.349  14.706  1.8170 -1.6283  1.2118
15315TIP3    H267437   2.770   6.285  14.809  0.4406 -0.3108  0.8513
15316TIP3   OH267438   5.673   5.592   3.354 -0.2958 -0.2786  0.4546
15316TIP3    H167439   5.735   5.664   3.339 -1.6673  0.9564  0.5392
15316TIP3    H267440   5.656   5.595   3.448  0.3443 -1.3360  0.6176
15317TIP3   OH267441   5.527   6.571  16.469 -0.1217  0.6805  0.7534
15317TIP3    H167442   5.590   6.502  16.449 -0.6035  0.7719 -1.2784
15317TIP3    H267443   5.569   6.622  16.538 -0.0294 -1.9568  2.8070
15318TIP3   OH267444   6.813   3.023  10.683 -0.1440 -0.5351  0.0616
15318TIP3    H167445   6.837   3.022  10.776 -0.2150 -0.5872  0.0789
15318TIP3    H267446   6.876   3.084  10.644 -0.0303 -0.6129  0.1219
15319TIP3   OH267447   3.381   1.154   2.585 -0.6440 -0.0730 -0.0160
15319TIP3    H167448   3.439   1.229   2.592 -0.4729 -0.1634 -0.4815
15319TIP3    H267449   3.358   1.149   2.492 -0.9178 -0.3962  0.0661
15320TIP3   OH267450   3.507   5.312  16.866 -0.1402 -0.1898 -0.0348
15320TIP3    H167451   3.468   5.365  16.796 -0.2054  0.6649  0.6239
15320TIP3    H267452   3.452   5.330  16.943  1.3904  0.8971  0.8666
15321TIP3   OH267453   5.267   0.912   5.088  0.3721  0.2508 -0.3840
15321TIP3    H167454   5.227   0.992   5.053  0.5070  1.2222  1.5877
15321TIP3    H267455   5.347   0.901   5.036  0.0609  1.0680 -1.0578
15322TIP3   OH267456   5.928   2.015   2.413 -0.1971 -0.2910 -0.4660
15322TIP3    H167457   5.903   2.005   2.321  2.3958 -1.7822 -1.1109
15322TIP3    H267458   5.845   2.032   2.459 -1.5166  0.9110 -3.0737
15323TIP3   OH267459   4.156   6.563   0.588  0.2305  0.2669 -0.0988
15323TIP3    H167460   4.191   6.536   0.503  0.8838 -0.7173  0.4641
15323TIP3    H267461   4.109   6.644   0.570  3.0333  1.8599 -0.8641
15324TIP3   OH267462   4.605   1.778  13.668  0.1307  1.0465  0.0453
15324TIP3    H167463   4.582   1.849  13.608 -0.3640  2.9382  2.2720
15324TIP3    H267464   4.524   1.760  13.716 -0.6232 -3.2535 -2.3601
15325TIP3   OH267465   1.018   3.384   5.224  0.0143 -0.1527  0.1313
15325TIP3    H167466   0.967   3.305   5.203  3.0227 -2.4634  0.8576
15325TIP3    H267467   1.003   3.397   5.317 -1.1164  0.6754 -0.1490
15326TIP3   OH267468   2.771   1.117  13.090 -0.1974 -0.3561 -0.0502
15326TIP3    H167469   2.748   1.025  13.084 -0.4338 -0.3486  0.6043
15326TIP3    H267470   2.862   1.117  13.119 -0.0397 -0.3844 -0.5467
15327TIP3   OH267471   2.348   1.764  11.744  0.1791 -0.0654 -0.6415
15327TIP3    H167472   2.264   1.807  11.730 -0.3902 -0.8775  0.1611
15327TIP3    H267473   2.398   1.783  11.664 -0.4353  1.1507 -0.7601
15328TIP3   OH267474   5.632   2.228  13.858 -0.2533  0.0242  0.1736
15328TIP3    H167475   5.683   2.266  13.930  0.1945 -1.5960  0.7512
15328TIP3    H267476   5.675   2.260  13.779  0.5594  0.1451  0.6442
15329TIP3   OH267477   6.034   0.649   5.400  0.1931 -0.0588 -0.6906
15329TIP3    H167478   6.007   0.641   5.308  1.8291 -1.2466 -1.1152
15329TIP3    H267479   6.119   0.604   5.404  0.8693  1.2551  1.0945
15330TIP3   OH267480   4.424   6.350  15.228 -0.2535  0.1167 -0.6441
15330TIP3    H167481   4.503   6.372  15.178 -0.2444  1.5983 -0.0357
15330TIP3    H267482   4.431   6.403  15.307 -0.3567 -2.0301  0.8886
15331TIP3   OH267483   4.650   1.235  13.260 -0.6132 -0.0050 -0.2981
15331TIP3    H167484   4.692   1.320  13.272  0.2480 -0.2917 -1.0980
15331TIP3    H267485   4.695   1.177  13.321  0.9151 -0.5337 -1.8234
15332TIP3   OH267486   1.797   0.412  16.655  0.2303 -0.4905  0.0972
15332TIP3    H167487   1.768   0.320  16.655 -0.2514 -0.3812 -1.4686
15332TIP3    H267488   1.855   0.419  16.579  2.0569  0.0113  1.4860
15333TIP3   OH267489   5.930   5.714  14.425  0.2402 -0.2375 -0.1268
15333TIP3    H167490   5.935   5.791  14.482  0.2842 -1.1926  1.2003
15333TIP3    H267491   5.850   5.727  14.374  0.9577  1.3274 -0.9216
15334TIP3   OH267492   4.200   1.339  11.463 -0.0769 -0.1456 -0.1596
15334TIP3    H167493   4.243   1.417  11.497  1.8969 -0.5142 -1.5979
15334TIP3    H267494   4.159   1.368  11.381  0.4726 -0.5486 -0.5848
15335TIP3   OH267495   2.187   1.234  15.403  0.3344  0.2490 -0.2095
15335TIP3    H167496   2.182   1.145  15.439 -0.0251 -0.1098 -1.1112
15335TIP3    H267497   2.096   1.262  15.398  0.4425  0.6343 -0.0151
15336TIP3   OH267498   6.021   1.289  13.561  0.2721 -0.1067 -0.0937
15336TIP3    H167499   5.937   1.330  13.580  0.6831  0.2136  1.1351
15336TIP3    H267500   6.085   1.341  13.610  1.4307  0.6756 -2.2781
15337TIP3   OH267501   4.222   0.971   2.724 -0.2598  0.2664 -0.4289
15337TIP3    H167502   4.249   1.026   2.797 -2.1984  0.6736  0.0491
15337TIP3    H267503   4.268   1.006   2.648  2.5563 -0.7691  0.6764
15338TIP3   OH267504   3.510   3.576  11.367  0.4035  0.5883  0.1275
15338TIP3    H167505   3.545   3.650  11.317 -0.8784  0.4072 -1.1168
15338TIP3    H267506   3.581   3.513  11.370  1.6277  1.9705  1.4833
15339TIP3   OH267507   3.932   1.032  13.643 -0.6117 -0.8164 -0.3614
15339TIP3    H167508   4.004   1.014  13.582 -1.6718  0.7215 -2.1801
15339TIP3    H267509   3.925   0.953  13.697  2.4673 -0.9914 -0.0437
15340TIP3   OH267510   3.894   6.106  16.252 -0.0170  0.0069  0.1467
15340TIP3    H167511   3.800   6.118  16.238 -0.3635 -0.9172  1.4774
15340TIP3    H267512   3.916   6.166  16.323  0.5892  0.7611 -0.6425
15341TIP3   OH267513   4.329   0.568  11.857  0.1297  0.0127 -0.1428
15341TIP3    H167514   4.378   0.559  11.938 -1.4551 -1.1207  0.7241
15341TIP3    H267515   4.322   0.663  11.843  1.6791  0.1988  0.2186
15342TIP3   OH267516   4.214   1.748  16.179 -0.4941 -0.6952  0.0213
15342TIP3    H167517   4.174   1.782  16.259  2.1819  2.0275  0.3894
15342TIP3    H267518   4.233   1.656  16.199  1.1613  0.1621  3.0818
15343TIP3   OH267519   4.043   4.889  16.250  0.2090  0.1022 -0.4485
15343TIP3    H167520   4.034   4.810  16.304  1.0292  0.5787  0.4286
15343TIP3    H267521   4.135   4.888  16.223  0.6654  1.5275  0.8770
15344TIP3   OH267522   0.372   6.813   3.024 -0.0037  0.2156 -0.2711
15344TIP3    H167523   0.333   6.788   2.940 -0.7484  0.2426  0.0600
15344TIP3    H267524   0.383   6.730   3.071 -0.4003  0.2881 -0.0504
15345TIP3   OH267525   6.728   0.749  13.140  0.2615  0.1696 -0.3125
15345TIP3    H167526   6.769   0.834  13.131  0.9690  0.1002  1.7582
15345TIP3    H267527   6.649   0.765  13.192  0.6501 -0.4853  0.5023
15346TIP3   OH267528   6.121   0.453  17.054 -0.0165  0.2557  0.3046
15346TIP3    H167529   6.184   0.468  16.984  0.9275 -0.3465  1.0051
15346TIP3    H267530   6.089   0.541  17.076  1.1075  0.6567  0.4132
15347TIP3   OH267531   6.060   1.339   4.938  0.1504 -0.2625 -0.0746
15347TIP3    H167532   6.147   1.306   4.960  0.6032  0.8065 -0.2030
15347TIP3    H267533   6.059   1.428   4.972 -0.1228  0.4833 -1.9271
15348TIP3   OH267534   2.394   6.786   3.455  0.3485  0.2960 -0.1118
15348TIP3    H167535   2.459   6.721   3.481  0.2046  0.7094  1.3753
15348TIP3    H267536   2.379   6.838   3.534 -0.3055  1.4826 -0.9841
15349TIP3   OH267537   1.451   4.285   4.138 -0.4448 -0.2588  0.3961
15349TIP3    H167538   1.370   4.295   4.187 -1.1953  1.9509 -1.1704
15349TIP3    H267539   1.434   4.212   4.078 -1.2352  0.1188  0.1520
15350TIP3   OH267540   2.378   5.433   1.933 -0.0551  0.0141 -0.5100
15350TIP3    H167541   2.439   5.505   1.950  1.6393 -1.6105  0.6075
15350TIP3    H267542   2.347   5.407   2.019 -1.0217 -0.3100 -0.9403
15351TIP3   OH267543   1.883   6.406  15.522 -0.0802  0.6773  0.1038
15351TIP3    H167544   1.789   6.411  15.540  0.0337 -0.8727  1.3129
15351TIP3    H267545   1.918   6.487  15.559 -0.7103  0.4115  1.3318
15352TIP3   OH267546   6.258   5.090   4.665  0.4335 -0.3651  0.2807
15352TIP3    H167547   6.314   5.013   4.667  1.2121  0.2017  0.5201
15352TIP3    H267548   6.213   5.090   4.749 -0.7393 -1.3984 -0.3130
15353TIP3   OH267549   3.349   5.593  11.419 -0.1235 -0.1327 -0.5926
15353TIP3    H167550   3.380   5.683  11.426  0.0257 -0.3073  1.4776
15353TIP3    H267551   3.425   5.539  11.441 -1.4202 -0.5830  3.4820
15354TIP3   OH267552   3.619   3.011   3.725 -0.1573 -0.6929 -0.2145
15354TIP3    H167553   3.529   2.981   3.711  0.1282 -1.0314 -1.4957
15354TIP3    H267554   3.667   2.931   3.747  0.0455 -0.6981 -0.6747
15355TIP3   OH267555   6.597   0.888   4.891 -0.2102 -0.3662 -0.5871
15355TIP3    H167556   6.582   0.820   4.957 -1.0420  0.5569  0.2048
15355TIP3    H267557   6.542   0.861   4.817  0.8445 -1.4907 -0.9922
15356TIP3   OH267558   6.774   4.923   0.259  0.4790 -0.9364  0.4827
15356TIP3    H167559   6.863   4.939   0.227 -0.0137  0.0503 -0.4491
15356TIP3    H267560   6.717   4.944   0.185 -0.5121 -2.1417  0.8757
15357TIP3   OH267561   4.617   1.646   1.870  0.0332  0.0614 -0.2579
15357TIP3    H167562   4.672   1.574   1.900 -1.0912 -0.6174  0.2609
15357TIP3    H267563   4.661   1.680   1.792  0.4839 -1.3254 -0.6304
15358TIP3   OH267564   0.545   2.397  11.419  0.0207 -0.1266  0.0193
15358TIP3    H167565   0.545   2.457  11.494  0.4260 -1.1857  0.8919
15358TIP3    H267566   0.638   2.387  11.397 -0.0116 -0.8243  0.2008
15359TIP3   OH267567   2.956   1.721  14.724 -0.2440 -0.0335  0.4320
15359TIP3    H167568   2.901   1.740  14.648  0.1375 -1.5553 -0.2552
15359TIP3    H267569   3.007   1.801  14.737 -2.5545  1.4045  1.0790
15360TIP3   OH267570   4.640   4.722   1.382  0.4114  0.0853  0.4241
15360TIP3    H167571   4.632   4.646   1.439 -0.4693  1.2972  2.0164
15360TIP3    H267572   4.703   4.696   1.315  0.2215 -1.9781  0.9894
15361TIP3   OH267573   5.338   3.622   5.621  0.3529  0.0271 -0.1971
15361TIP3    H167574   5.379   3.692   5.671  0.3440 -0.5201  0.6009
15361TIP3    H267575   5.279   3.579   5.684 -0.7867  0.2531 -1.0822
15362TIP3   OH267576   4.038   6.551  16.019  0.1375  0.2900 -0.6137
15362TIP3    H167577   3.963   6.587  16.066  0.6671  1.4464 -0.6240
15362TIP3    H267578   4.035   6.457  16.037 -0.6470  0.4844  0.3317
15363TIP3   OH267579   6.457   2.350   2.197  0.3413  0.0406 -0.3571
15363TIP3    H167580   6.526   2.390   2.250  0.2431  1.1942 -1.0855
15363TIP3    H267581   6.376   2.390   2.229  0.4075  1.9746 -2.3939
15364TIP3   OH267582   4.182   6.054  11.287 -0.3603  0.1768  0.6243
15364TIP3    H167583   4.186   5.958  11.291  0.5054  0.2418  1.6081
15364TIP3    H267584   4.158   6.073  11.196 -0.6456 -0.9731  0.4439
15365TIP3   OH267585   1.053   3.538  11.407  0.1837  0.4659 -0.3274
15365TIP3    H167586   1.076   3.482  11.333 -0.6275 -2.2924  1.3654
15365TIP3    H267587   0.963   3.566  11.389  0.0341 -0.0915 -0.4685
15366TIP3   OH267588   1.237   4.290  13.041 -0.4353  0.5084  0.1300
15366TIP3    H167589   1.314   4.347  13.047  0.4388 -0.6228  0.0202
15366TIP3    H267590   1.200   4.308  12.955 -0.1953  0.9373  0.1142
15367TIP3   OH267591   6.568   0.826  17.017 -0.4417 -0.4253  0.3576
15367TIP3    H167592   6.608   0.907  16.985  0.8713 -1.0507  0.3172
15367TIP3    H267593   6.583   0.763  16.946  2.2251 -1.7542  1.9043
15368TIP3   OH267594   6.574   0.336  16.788  0.2118 -0.4521  0.1955
15368TIP3    H167595   6.597   0.406  16.848 -1.1025  0.3891 -0.2324
15368TIP3    H267596   6.492   0.301  16.822  0.3534 -1.1359 -0.1387
15369TIP3   OH267597   0.409   3.765   2.071 -0.7356 -0.4927 -0.0551
15369TIP3    H167598   0.444   3.694   2.018 -0.9819 -0.9367  0.3703
15369TIP3    H267599   0.471   3.837   2.058  0.5907 -1.3901  1.0302
15370TIP3   OH267600   6.003   0.553   3.777 -0.1771 -0.5995  0.5927
15370TIP3    H167601   6.097   0.550   3.761  0.2131 -1.4533  2.6536
15370TIP3    H267602   5.965   0.491   3.716  0.8126 -1.5012  0.8700
15371TIP3   OH267603   2.417   4.493   1.451 -0.8401 -0.0209  0.1113
15371TIP3    H167604   2.370   4.471   1.532 -0.4146 -0.6502  0.1958
15371TIP3    H267605   2.442   4.408   1.415 -0.0141  0.2948 -0.0782
15372TIP3   OH267606   0.807   1.604   2.423 -0.0586  0.1533 -0.0327
15372TIP3    H167607   0.755   1.650   2.489 -0.4417 -1.2308  0.6663
15372TIP3    H267608   0.772   1.634   2.340  0.1679  1.6325  0.3770
15373TIP3   OH267609   2.022   3.301   3.460  0.5012  0.9362 -0.8800
15373TIP3    H167610   1.960   3.297   3.388  1.1474 -1.2043 -1.4192
15373TIP3    H267611   2.091   3.359   3.430  0.9385 -0.2077 -2.1935
15374TIP3   OH267612   6.139   4.885   2.721 -0.2809  0.1762  0.2821
15374TIP3    H167613   6.223   4.873   2.764 -0.3348 -0.7664  0.1503
15374TIP3    H267614   6.160   4.913   2.633  0.0455 -2.5005 -0.5941
15375TIP3   OH267615   2.003   0.364  14.272 -0.2185 -0.2912  0.3941
15375TIP3    H167616   1.997   0.459  14.275 -0.6448 -0.1844 -2.0381
15375TIP3    H267617   1.914   0.333  14.292 -0.8998  0.0003 -1.9067
15376TIP3   OH267618   2.209   5.326  12.674  0.0950  0.1161  0.1175
15376TIP3    H167619   2.203   5.295  12.584  0.6245 -0.9710  0.4326
15376TIP3    H267620   2.119   5.340  12.701 -0.0215  2.2149 -1.1293
15377TIP3   OH267621   2.393   4.590   1.789 -0.0296 -0.6510  0.0011
15377TIP3    H167622   2.330   4.532   1.831  0.5640 -0.5143  1.1065
15377TIP3    H267623   2.445   4.626   1.861 -0.2750  1.1330 -0.6629
15378TIP3   OH267624   4.130   4.786  13.030  0.5025  0.2179  0.5727
15378TIP3    H167625   4.098   4.698  13.009 -0.6414  0.6570  0.3846
15378TIP3    H267626   4.095   4.841  12.960  1.1110  0.8512  0.7529
15379TIP3   OH267627   3.067   4.847   3.480  0.6156  0.0162 -0.1521
15379TIP3    H167628   3.107   4.934   3.490 -0.8795  0.6939  0.1576
15379TIP3    H267629   3.054   4.817   3.570 -1.2272  0.6219 -0.1760
15380TIP3   OH267630   3.577   6.271   4.781  0.8982  0.0925  0.5891
15380TIP3    H167631   3.658   6.287   4.829  2.4303  0.3665 -1.9035
15380TIP3    H267632   3.604   6.223   4.703 -1.5322 -0.8736  0.2351
15381TIP3   OH267633   5.796   1.988  12.477  0.4259 -0.4232  0.1653
15381TIP3    H167634   5.835   2.066  12.437 -0.4385  0.6813  1.4081
15381TIP3    H267635   5.856   1.965  12.549  0.9674 -1.2595 -0.5313
15382TIP3   OH267636   6.044   1.833   0.393 -0.8665  0.1121 -0.5800
15382TIP3    H167637   6.068   1.815   0.302  0.3937 -0.9532 -0.0628
15382TIP3    H267638   6.046   1.748   0.436 -0.8012  0.6851  0.5925
15383TIP3   OH267639   0.583   1.108  13.092  0.3820 -0.5195  0.0312
15383TIP3    H167640   0.512   1.155  13.049  1.4866 -0.6472 -2.0603
15383TIP3    H267641   0.552   1.094  13.181 -2.5458 -1.2500 -0.9935
15384TIP3   OH267642   1.749   3.575   4.125 -0.0064 -0.5567 -0.0488
15384TIP3    H167643   1.783   3.612   4.043  0.5260 -0.1448  0.3561
15384TIP3    H267644   1.661   3.545   4.102 -0.3988  0.8080 -0.4306
15385TIP3   OH267645   3.050   1.584  14.333  0.2272  0.8372 -0.3545
15385TIP3    H167646   3.144   1.595  14.350  0.0647  0.5142  0.8836
15385TIP3    H267647   3.045   1.511  14.272  0.8854  2.4015 -2.3774
15386TIP3   OH267648   3.240   3.082   1.875 -0.0707 -0.2532 -0.0607
15386TIP3    H167649   3.202   3.146   1.936 -0.0096  0.9617 -1.2433
15386TIP3    H267650   3.259   3.006   1.929 -2.5238 -0.2653  0.9371
15387TIP3   OH267651   5.296   3.624  10.570 -1.2533  0.2348  0.3798
15387TIP3    H167652   5.257   3.541  10.545  1.0682 -0.5653 -0.8800
15387TIP3    H267653   5.303   3.674  10.489  0.0456  0.4494  0.5992
15388TIP3   OH267654   4.721   2.186   0.973  0.2128 -0.5469  0.1248
15388TIP3    H167655   4.638   2.216   0.936 -0.3016 -1.4166  0.5357
15388TIP3    H267656   4.749   2.116   0.914  1.0458  0.2430 -0.4343
15389TIP3   OH267657   4.382   4.790   1.448  0.3089  0.1382  0.3029
15389TIP3    H167658   4.470   4.797   1.410  0.1255 -0.8897 -0.3377
15389TIP3    H267659   4.351   4.880   1.452  1.3378  0.5045  0.4174
15390TIP3   OH267660   4.205   2.885   0.626 -0.0556 -0.1748  0.1968
15390TIP3    H167661   4.184   2.794   0.602 -1.5195  0.0171  0.6375
15390TIP3    H267662   4.144   2.906   0.697  1.2545  0.6949  1.1012
15391TIP3   OH267663   2.782   1.413  13.081 -0.8070  0.4003 -0.1623
15391TIP3    H167664   2.855   1.351  13.077 -1.3912 -0.2239 -2.0293
15391TIP3    H267665   2.769   1.441  12.991 -1.3070  2.4062  0.4723
15392TIP3   OH267666   4.537   3.871  16.435  0.0127 -0.3750  0.1648
15392TIP3    H167667   4.471   3.940  16.433  0.3562 -0.0478 -0.3556
15392TIP3    H267668   4.565   3.867  16.526  1.3867  1.5675 -0.0974
15393TIP3   OH267669   6.487   3.027   0.172 -0.0507  0.0295  0.7530
15393TIP3    H167670   6.460   3.066   0.255  1.2946  3.5486 -0.2960
15393TIP3    H267671   6.579   3.006   0.183 -0.4271 -1.7599  0.8420
15394TIP3   OH267672   3.248   3.644  11.418 -0.3564  0.4566  0.0668
15394TIP3    H167673   3.232   3.693  11.337 -1.3494  0.6913  0.3853
15394TIP3    H267674   3.339   3.616  11.412 -0.5802 -0.0825 -1.4409
15395TIP3   OH267675   4.003   4.841  12.767 -0.0035  0.1226  0.0981
15395TIP3    H167676   4.041   4.890  12.695  0.2425  0.7770  0.6647
15395TIP3    H267677   3.938   4.900  12.805 -1.8143 -1.0481 -1.0001
15396TIP3   OH267678   3.933   3.829   3.091  0.4772 -0.2545 -0.3275
15396TIP3    H167679   4.012   3.880   3.073  0.2408 -0.3992 -1.9695
15396TIP3    H267680   3.886   3.881   3.157  0.8561  1.0012 -1.0050
15397TIP3   OH267681   0.734   1.932  16.820 -0.3522  0.0965 -0.0376
15397TIP3    H167682   0.682   1.906  16.896  1.8397 -0.3007  1.4271
15397TIP3    H267683   0.718   2.026  16.810 -2.3264 -0.2412 -0.4970
15398TIP3   OH267684   0.476   3.327  14.231  0.0765 -0.2976  0.4266
15398TIP3    H167685   0.569   3.313  14.251  0.0628 -1.3695 -0.1617
15398TIP3    H267686   0.438   3.239  14.233 -0.5767 -0.0702 -1.0538
15399TIP3   OH267687   6.764   6.750  10.891 -0.0808 -0.2024  0.4075
15399TIP3    H167688   6.786   6.714  10.977 -0.5315 -2.2898 -0.2933
15399TIP3    H267689   6.849   6.774  10.853  0.0841  1.2587  1.5946
15400TIP3   OH267690   4.526   4.917  11.432 -0.7228  0.6713 -0.4627
15400TIP3    H167691   4.606   4.864  11.425 -1.6530 -0.7905 -0.4381
15400TIP3    H267692   4.554   5.005  11.406  1.1061  0.4262  0.4906
15401TIP3   OH267693   6.773   2.218  12.637 -0.1772 -0.4346  0.2595
15401TIP3    H167694   6.868   2.215  12.625 -0.1427 -1.3920  0.6500
15401TIP3    H267695   6.743   2.131  12.609 -1.2183  0.5669 -1.9860
15402TIP3   OH267696   1.688   4.133  15.969  0.0609 -0.4214  0.8458
15402TIP3    H167697   1.658   4.045  15.945  0.1487 -0.1781 -0.1835
15402TIP3    H267698   1.644   4.191  15.907 -0.6338  0.3556  2.0228
15403TIP3   OH267699   3.985   1.009   5.844 -0.4098  0.3870  0.0589
15403TIP3    H167700   3.911   1.063   5.870 -0.7178 -0.2663  0.5615
15403TIP3    H267701   4.022   0.977   5.926  0.3246  0.5610 -0.1931
15404TIP3   OH267702   5.202   4.174   4.792 -0.1174 -0.7024 -0.5709
15404TIP3    H167703   5.153   4.094   4.773 -1.3363  0.0367 -0.6495
15404TIP3    H267704   5.137   4.244   4.787  0.8417  0.2565 -0.1050
15405TIP3   OH267705   1.434   1.290  14.680 -0.1346  0.5357 -0.1816
15405TIP3    H167706   1.364   1.347  14.711 -1.9329 -1.3367 -0.5162
15405TIP3    H267707   1.388   1.219  14.635  1.9976 -0.9186 -0.2089
15406TIP3   OH267708   0.199   1.086   4.571  0.0351 -0.1360  0.5504
15406TIP3    H167709   0.117   1.041   4.587 -0.7529  0.3233 -1.7583
15406TIP3    H267710   0.266   1.018   4.578 -1.0069 -1.5115 -1.6818
15407TIP3   OH267711   3.295   5.402   5.730 -0.4826 -0.3218  0.0585
15407TIP3    H167712   3.284   5.362   5.644 -0.7913 -0.9931  0.4064
15407TIP3    H267713   3.285   5.330   5.791  4.1733 -0.8790  0.5576
15408TIP3   OH267714   3.839   4.151   4.899  0.1318  0.4431  0.4385
15408TIP3    H167715   3.869   4.128   4.811  2.2549  0.4814  1.0959
15408TIP3    H267716   3.779   4.224   4.886 -0.3262 -0.1590 -1.0324
15409TIP3   OH267717   4.265   0.119  16.640 -0.6409 -0.1808  0.4461
15409TIP3    H167718   4.252   0.176  16.716  1.8984 -0.5722  1.2827
15409TIP3    H267719   4.208   0.155  16.573 -1.1143  1.7039  1.7718
15410TIP3   OH267720   5.809   0.003   4.299 -0.1656 -0.2231  0.5513
15410TIP3    H167721   5.890   0.022   4.347 -0.9658  1.5256  1.2921
15410TIP3    H267722   5.821  -0.086   4.267  2.6881  0.4643 -0.6512
15411TIP3   OH267723   0.209   2.593   5.667  0.4827 -0.3872 -0.2207
15411TIP3    H167724   0.177   2.676   5.701  2.4498 -0.1550  1.2341
15411TIP3    H267725   0.232   2.542   5.745 -0.4237 -2.2362 -1.0836
15412TIP3   OH267726   3.850   4.950  12.046 -1.5336 -0.5457 -0.2491
15412TIP3    H167727   3.797   5.023  12.075 -1.5307 -1.1784  1.4508
15412TIP3    H267728   3.861   4.964  11.952  0.4251  2.8868  0.3449
15413TIP3   OH267729   2.615   4.836   0.639  0.0911 -0.7914 -0.0406
15413TIP3    H167730   2.643   4.856   0.728 -1.9273  0.8834  0.3110
15413TIP3    H267731   2.683   4.873   0.583  0.2881  0.1871  0.8052
15414TIP3   OH267732   3.298   6.763   5.875  0.0263 -0.0225  0.1452
15414TIP3    H167733   3.281   6.768   5.969  1.9592 -0.2554  0.5662
15414TIP3    H267734   3.367   6.828   5.860  2.1940 -2.2834 -0.4138
15415TIP3   OH267735   5.322   5.079   4.349 -0.0102  0.5350  0.4150
15415TIP3    H167736   5.411   5.084   4.384  0.1260  1.4017 -0.0290
15415TIP3    H267737   5.330   5.029   4.268 -0.2667 -1.1489  1.3910
15416TIP3   OH267738   0.140   5.079   1.873 -0.0266 -0.3031  0.1353
15416TIP3    H167739   0.226   5.110   1.900  0.3554  0.3382 -1.7140
15416TIP3    H267740   0.079   5.124   1.931  0.7936  0.2638  0.5795
15417TIP3   OH267741   2.751   1.049  10.853 -0.4516  0.2990 -0.0437
15417TIP3    H167742   2.700   1.129  10.856 -2.4163 -0.7864 -1.6843
15417TIP3    H267743   2.714   0.994  10.922 -1.2575 -0.3137 -0.9314
15418TIP3   OH267744   2.483   1.280   2.661 -0.2650 -0.2125  0.4974
15418TIP3    H167745   2.435   1.352   2.702 -1.6490 -1.9850  2.1725
15418TIP3    H267746   2.508   1.224   2.734  1.7209 -0.9449 -0.6536
15419TIP3   OH267747   6.671   5.109  14.434 -1.0347  0.5593 -0.3456
15419TIP3    H167748   6.635   5.143  14.516 -0.9688 -1.8763  0.7816
15419TIP3    H267749   6.700   5.020  14.455 -1.5748 -0.3996 -3.1874
15420TIP3   OH267750   4.972   6.749  16.500 -0.3701 -0.2129  0.4401
15420TIP3    H167751   5.050   6.783  16.544 -0.9090  1.6017  0.0751
15420TIP3    H267752   4.930   6.826  16.463 -1.1472 -1.4221 -1.3217
15421TIP3   OH267753   2.694   3.126   0.128 -0.3559  0.0861 -0.0246
15421TIP3    H167754   2.608   3.097   0.100 -0.9458  0.6055  1.1676
15421TIP3    H267755   2.736   3.159   0.048 -2.1455  1.9552 -0.2767
15422TIP3   OH267756   4.560   6.815   4.080 -0.2259  0.1552 -0.2267
15422TIP3    H167757   4.595   6.878   4.143  2.0066 -0.5347 -0.6845
15422TIP3    H267758   4.468   6.838   4.072 -0.1754  1.3827  1.9353
15423TIP3   OH267759   4.303   3.758  11.525 -0.0713 -0.4119  0.2415
15423TIP3    H167760   4.351   3.675  11.523  0.8798  0.1315 -1.1710
15423TIP3    H267761   4.218   3.735  11.562 -0.4483 -2.3680 -1.6402
15424TIP3   OH267762   2.125   0.951   3.545  0.4465 -0.8791 -0.0479
15424TIP3    H167763   2.068   0.911   3.611  2.0102 -1.7844  0.7930
15424TIP3    H267764   2.212   0.948   3.583  0.9553  1.3303 -0.9264
15425TIP3   OH267765   6.498   6.061   2.935  0.8778  0.1052  0.4350
15425TIP3    H167766   6.463   6.145   2.962 -0.8841 -0.7839  1.0504
15425TIP3    H267767   6.445   6.035   2.861 -0.1831 -1.5011  1.6944
15426TIP3   OH267768   3.147   1.125   4.467  0.2238  0.1117  0.2741
15426TIP3    H167769   3.077   1.169   4.418 -0.2500 -0.5537  0.3369
15426TIP3    H267770   3.222   1.126   4.408 -0.2526 -0.4036 -0.3530
15427TIP3   OH267771   1.744   3.166   6.168  0.2362  0.5694 -0.3045
15427TIP3    H167772   1.690   3.138   6.241  1.5088  0.4025  0.6039
15427TIP3    H267773   1.725   3.104   6.098 -1.1291  0.8373 -0.1968
15428TIP3   OH267774   1.214   3.647   0.146 -0.0258  0.4861 -0.3531
15428TIP3    H167775   1.234   3.639   0.239  0.6169 -1.6325 -0.6251
15428TIP3    H267776   1.178   3.562   0.122 -0.0374  0.9501 -2.0731
15429TIP3   OH267777   5.935   3.090   1.025  0.2267 -0.1884  0.1084
15429TIP3    H167778   5.894   3.041   0.954  0.3974  1.1755 -0.9738
15429TIP3    H267779   5.937   3.029   1.098 -2.3806 -0.7835 -0.2211
15430TIP3   OH267780   5.468   2.100  12.569  0.4569 -0.1396  0.2596
15430TIP3    H167781   5.424   2.036  12.513  0.6182  0.0050 -0.0316
15430TIP3    H267782   5.525   2.149  12.510 -0.3967  0.9361  0.2897
15431TIP3   OH267783   3.568   2.095   1.661 -0.0276 -0.5444  0.4568
15431TIP3    H167784   3.540   2.185   1.645 -1.2974 -1.2735 -1.8836
15431TIP3    H267785   3.501   2.058   1.718 -1.3062 -0.8698 -1.1779
15432TIP3   OH267786   1.738   2.644   2.308  0.0293 -0.3735 -0.2381
15432TIP3    H167787   1.795   2.705   2.355 -0.7174  0.9132 -0.9696
15432TIP3    H267788   1.711   2.581   2.375  0.0549  0.6443  0.7596
15433TIP3   OH267789   4.504   5.856  11.064 -0.1580  0.2642  0.4411
15433TIP3    H167790   4.528   5.926  11.003  0.7572  1.3510  1.9673
15433TIP3    H267791   4.569   5.788  11.049 -0.0875  0.4225  0.0301
15434TIP3   OH267792   2.996   4.961   1.473 -0.8250  0.1158 -0.5176
15434TIP3    H167793   3.004   4.868   1.495 -1.5706 -0.0210 -0.7929
15434TIP3    H267794   2.951   4.999   1.549 -0.2254  0.3272 -0.2555
15435TIP3   OH267795   2.036   5.701   0.532  0.1146 -0.2455 -0.1277
15435TIP3    H167796   2.030   5.609   0.559 -0.9259 -0.5733 -1.3530
15435TIP3    H267797   1.958   5.742   0.570  0.7753  0.2445  0.7385
15436TIP3   OH267798   6.783   6.378  15.784  0.4162  0.6465  0.3653
15436TIP3    H167799   6.829   6.417  15.710  1.4806 -1.5987 -0.2400
15436TIP3    H267800   6.848   6.376  15.854 -0.6893  3.0960  1.5887
15437TIP3   OH267801   4.767   5.267   4.987  0.7207 -0.1084  0.6221
15437TIP3    H167802   4.749   5.358   4.964 -0.3118 -0.0178  1.6816
15437TIP3    H267803   4.862   5.262   4.994  0.8682  0.5765 -0.6305
15438TIP3   OH267804   0.361   3.851   3.401 -0.0149 -0.1907 -0.6400
15438TIP3    H167805   0.288   3.903   3.368 -0.0417 -0.6688 -1.3657
15438TIP3    H267806   0.416   3.836   3.324  2.1213  2.1508  0.2865
15439TIP3   OH267807   4.332   4.079  16.386 -0.4694 -0.0118 -0.1443
15439TIP3    H167808   4.351   4.164  16.346 -2.9349  0.5301 -0.2654
15439TIP3    H267809   4.292   4.100  16.470 -0.9499 -1.0704 -0.0948
15440TIP3   OH267810   5.046   0.451  16.855 -0.0711 -0.3677 -0.4032
15440TIP3    H167811   5.012   0.394  16.924  0.2237  1.5608  1.4184
15440TIP3    H267812   5.011   0.538  16.875 -0.5545  0.1754 -3.1144
15441TIP3   OH267813   2.422   4.102  15.756 -0.8283  0.2315 -0.1401
15441TIP3    H167814   2.445   4.099  15.663 -2.9533 -0.9149 -0.7000
15441TIP3    H267815   2.503   4.128  15.800  0.3453  0.3974 -2.2535
15442TIP3   OH267816   2.619   2.813  12.787  0.3046 -0.1097 -0.0714
15442TIP3    H167817   2.560   2.846  12.854 -0.0088 -0.4954 -0.1478
15442TIP3    H267818   2.563   2.760  12.730  0.8045 -0.8406  0.1032
15443TIP3   OH267819   3.458   2.950  12.689  0.3750  0.5100 -0.2027
15443TIP3    H167820   3.534   2.994  12.651 -0.3662  1.2457 -0.8735
15443TIP3    H267821   3.435   2.883  12.624  1.3578 -0.7614  0.7057
15444TIP3   OH267822   3.659   0.594   0.475  0.9724 -0.2580 -0.1756
15444TIP3    H167823   3.700   0.626   0.556 -0.0633  2.1195 -0.5210
15444TIP3    H267824   3.565   0.595   0.494  0.7692 -0.5202 -1.1210
15445TIP3   OH267825   6.297   3.482   1.055  0.2749  0.5901 -0.2056
15445TIP3    H167826   6.218   3.428   1.058 -0.4347  1.5298 -1.0838
15445TIP3    H267827   6.276   3.559   1.108  0.1788  1.3485 -1.3095
15446TIP3   OH267828   4.220   5.079  14.329  0.5951 -0.1542  0.2966
15446TIP3    H167829   4.314   5.081  14.342  0.5299 -0.8511  0.9219
15446TIP3    H267830   4.186   5.145  14.390  0.7053  0.5278 -0.3518
15447TIP3   OH267831   2.985   3.066   0.474  0.0800  0.2512 -0.3059
15447TIP3    H167832   3.050   3.135   0.487 -0.1492  0.4942 -0.4303
15447TIP3    H267833   2.909   3.112   0.437  0.0567 -0.1280 -0.7333
15448TIP3   OH267834   6.445   3.132   0.423 -0.3116 -0.5140 -0.2263
15448TIP3    H167835   6.467   3.199   0.488 -0.5313 -0.4242 -0.2459
15448TIP3    H267836   6.358   3.101   0.448 -0.2542 -0.7242 -0.2759
15449TIP3   OH267837   5.152   5.272   3.669  0.8257 -0.5024  0.0410
15449TIP3    H167838   5.132   5.230   3.753 -0.1933  1.2481  0.7204
15449TIP3    H267839   5.247   5.276   3.666  0.9004 -1.4795  0.6498
15450TIP3   OH267840   0.334   4.990  12.098  0.0337  0.4568  0.3441
15450TIP3    H167841   0.333   4.950  12.185 -1.1696 -0.2550  0.0188
15450TIP3    H267842   0.424   5.019  12.086  0.0986  1.0540  2.0450
15451TIP3   OH267843   6.001   5.147  13.734  0.0212 -0.0950 -0.1793
15451TIP3    H167844   6.059   5.077  13.764 -0.1645  0.5349  1.8142
15451TIP3    H267845   6.059   5.212  13.695  0.4271 -0.4058 -0.0960
15452TIP3   OH267846   3.932   5.325  16.171  0.2816 -0.0136 -0.1672
15452TIP3    H167847   3.951   5.392  16.105 -0.8234  0.2909 -0.1952
15452TIP3    H267848   3.859   5.360  16.221  0.3276 -0.7745  0.4580
15453TIP3   OH267849   3.147   3.995   0.153  0.2265 -0.4521 -0.0502
15453TIP3    H167850   3.147   4.091   0.146  1.9369 -0.5390 -2.1308
15453TIP3    H267851   3.181   3.978   0.240  2.1007  0.8734 -0.4527
15454TIP3   OH267852   2.199   5.786   3.318  0.4354  0.3569 -0.3538
15454TIP3    H167853   2.162   5.822   3.237  2.3578 -0.8421 -1.8568
15454TIP3    H267854   2.167   5.696   3.320 -0.2432  0.5989  0.6946
15455TIP3   OH267855   1.791   4.399  15.775  0.1258  0.0685 -0.1835
15455TIP3    H167856   1.788   4.461  15.702  2.6615  2.7954  1.7726
15455TIP3    H267857   1.737   4.440  15.843  0.8441 -0.4756  0.7442
15456TIP3   OH267858   2.918   0.891   5.449  0.0195  0.0372 -0.5946
15456TIP3    H167859   3.004   0.866   5.414  0.4431  1.5028 -0.6383
15456TIP3    H267860   2.936   0.918   5.539 -0.4690 -0.0677 -0.4659
15457TIP3   OH267861   2.200   6.590   4.152  0.0853  0.0257  0.3579
15457TIP3    H167862   2.135   6.524   4.127  0.9273 -0.1730 -1.4700
15457TIP3    H267863   2.221   6.569   4.243 -1.4554 -0.6910  0.5806
15458TIP3   OH267864   0.133   2.971  11.246  0.2446 -0.1755 -0.2926
15458TIP3    H167865   0.170   2.961  11.333  0.9201  0.4261 -0.4955
15458TIP3    H267866   0.209   2.975  11.188 -0.2031 -1.6309 -1.0474
15459TIP3   OH267867   3.682   5.951  11.501 -0.7599  0.7317  0.0180
15459TIP3    H167868   3.647   5.865  11.523  1.7382 -0.0801  1.2294
15459TIP3    H267869   3.735   5.935  11.423  1.6086  0.5754  1.5711
15460TIP3   OH267870   2.471   4.474   4.786 -0.4169  0.4624  0.1750
15460TIP3    H167871   2.455   4.497   4.878  0.9142 -0.9163  0.8011
15460TIP3    H267872   2.412   4.401   4.769  0.3828 -0.2690  0.4347
15461TIP3   OH267873   5.384   6.653  14.298 -0.2480 -0.3666  0.3916
15461TIP3    H167874   5.362   6.570  14.254 -0.0256  0.5181 -1.4908
15461TIP3    H267875   5.359   6.638  14.389 -1.7774 -1.9461 -0.2042
15462TIP3   OH267876   2.768   4.997   0.472  0.1379 -0.3066  0.1574
15462TIP3    H167877   2.710   5.003   0.397 -0.6496 -1.4449  0.6470
15462TIP3    H267878   2.746   5.073   0.526  0.8997  0.6710 -0.8544
15463TIP3   OH267879   0.344   0.130  11.457  0.0386  1.1617 -0.1808
15463TIP3    H167880   0.370   0.130  11.365 -1.1038  2.1782 -0.5330
15463TIP3    H267881   0.256   0.094  11.458  0.2655  0.5918  0.6023
15464TIP3   OH267882   2.371   1.957   0.253 -0.3062  0.3085 -0.9575
15464TIP3    H167883   2.454   1.987   0.289  0.2039 -0.9682 -1.0343
15464TIP3    H267884   2.395   1.888   0.191 -1.5120 -1.5346  0.5175
15465TIP3   OH267885   3.387   0.483   4.333 -0.2092  0.3918  0.5344
15465TIP3    H167886   3.329   0.560   4.331 -0.6507  0.0582  0.1972
15465TIP3    H267887   3.356   0.429   4.260 -0.1733 -0.3021  1.0241
15466TIP3   OH267888   3.128   2.552  14.676  0.6942  0.2183  0.3363
15466TIP3    H167889   3.096   2.632  14.718  1.1636  0.6404 -0.1017
15466TIP3    H267890   3.053   2.492  14.679  0.7453  0.1884  1.8712
15467TIP3   OH267891   0.261   6.757   0.599 -0.4996 -0.7210 -1.3621
15467TIP3    H167892   0.286   6.683   0.544 -0.7773 -0.2799 -2.1102
15467TIP3    H267893   0.192   6.801   0.549  0.2146  0.5023 -1.3201
15468TIP3   OH267894   6.358   1.759  11.266 -0.1476 -0.0197  0.3605
15468TIP3    H167895   6.409   1.776  11.187 -1.6215  0.6766 -0.4838
15468TIP3    H267896   6.356   1.843  11.313 -1.2299  0.2145 -0.0687
15469TIP3   OH267897   3.656   5.808  16.987  0.0610 -0.5891 -0.7461
15469TIP3    H167898   3.716   5.882  16.976 -0.8958  0.6456  1.6078
15469TIP3    H267899   3.676   5.775  17.075 -1.8785 -0.8910 -0.3779
15470TIP3   OH267900   4.674   1.260   2.209 -0.2529  0.3502 -0.2176
15470TIP3    H167901   4.627   1.283   2.290 -0.1842 -2.8289  0.8829
15470TIP3    H267902   4.767   1.264   2.233 -0.2384 -0.8463  0.0030
15471TIP3   OH267903   6.734   2.127   4.239  0.0229 -0.3375 -0.1767
15471TIP3    H167904   6.722   2.044   4.194  0.0458 -1.8306  2.3561
15471TIP3    H267905   6.805   2.110   4.301  0.8112  1.9535 -0.3610
15472TIP3   OH267906   5.624   4.467  14.737 -0.0299 -0.2064  0.2312
15472TIP3    H167907   5.698   4.407  14.742 -1.3933 -1.8419  2.0157
15472TIP3    H267908   5.662   4.553  14.756  1.7724 -0.5980 -1.2763
15473TIP3   OH267909   3.108   0.863  11.445 -0.5860 -0.4342  0.2272
15473TIP3    H167910   3.075   0.811  11.519 -1.9007  0.8877  0.6342
15473TIP3    H267911   3.038   0.927  11.429  1.0228  1.3155 -0.1045
15474TIP3   OH267912   4.391   5.859   5.222 -0.1281 -0.1153 -0.2669
15474TIP3    H167913   4.389   5.900   5.135 -1.9766 -0.9424 -0.6414
15474TIP3    H267914   4.468   5.899   5.264 -0.4613  1.9706 -1.4548
15475TIP3   OH267915   6.383   5.913  13.585 -0.4026 -0.2984  0.6475
15475TIP3    H167916   6.470   5.934  13.552 -0.2872 -0.3716  0.9032
15475TIP3    H267917   6.375   5.818  13.573  0.5836 -0.7345  3.0276
15476TIP3   OH267918   3.437   5.884  13.257 -0.1870 -0.0222  0.0058
15476TIP3    H167919   3.412   5.972  13.228  0.8409  0.3767  0.2616
15476TIP3    H267920   3.356   5.834  13.256 -0.6308  0.6640 -1.1052
15477TIP3   OH267921   0.171   5.515  14.337 -0.2113  0.4171  0.3415
15477TIP3    H167922   0.134   5.430  14.314  0.8252  0.0668 -0.0564
15477TIP3    H267923   0.122   5.541  14.415 -0.4033 -0.6362  0.5952
15478TIP3   OH267924   1.154   2.939   3.020  0.0548  0.2376  0.1393
15478TIP3    H167925   1.127   3.008   3.080 -0.1382 -0.6327  1.0727
15478TIP3    H267926   1.136   2.857   3.066  0.9150 -0.4382 -0.6633
15479TIP3   OH267927   4.087   4.036  15.461  0.0816  0.3461 -0.0765
15479TIP3    H167928   4.182   4.028  15.467  0.0181  0.0060  0.6498
15479TIP3    H267929   4.063   4.097  15.531 -0.1477  1.2083 -0.8878
15480TIP3   OH267930   0.763   1.208   5.073  0.7396  0.0357 -0.2826
15480TIP3    H167931   0.669   1.226   5.080  1.4040  3.6913  3.2992
15480TIP3    H267932   0.772   1.117   5.101 -1.6941  0.0224  0.7547
15481TIP3   OH267933   0.738   0.390   0.817  0.2176 -0.3493 -0.0456
15481TIP3    H167934   0.807   0.402   0.882 -0.1484 -0.8824  0.4501
15481TIP3    H267935   0.725   0.296   0.813  1.6315 -0.5003 -2.3868
15482TIP3   OH267936   0.930   1.438  15.641  0.6712 -0.6931  0.5178
15482TIP3    H167937   0.895   1.363  15.689 -1.1605  0.4255  0.9927
15482TIP3    H267938   0.881   1.440  15.559  0.7128 -0.0392  0.4997
15483TIP3   OH267939   4.149   5.824  17.115 -0.6299 -0.0232  0.2070
15483TIP3    H167940   4.128   5.900  17.169  0.2107  0.2401  0.1781
15483TIP3    H267941   4.165   5.753  17.178  1.8714  0.6572  0.4277
15484TIP3   OH267942   5.366   0.987  16.497 -0.0035 -0.3310 -0.0561
15484TIP3    H167943   5.331   0.898  16.485  1.2166 -0.8474  0.0957
15484TIP3    H267944   5.395   0.990  16.588  2.1279 -0.6054 -0.6734
15485TIP3   OH267945   2.590   4.243   4.370 -0.0713  0.4747 -0.0079
15485TIP3    H167946   2.568   4.280   4.456 -1.4399 -0.4988  0.0902
15485TIP3    H267947   2.520   4.181   4.352  0.0502  0.8581 -1.9748
15486TIP3   OH267948   1.606   5.909  16.222 -0.0395  0.0877 -0.0164
15486TIP3    H167949   1.606   5.938  16.130  0.6418  1.1868  0.3138
15486TIP3    H267950   1.587   5.815  16.217 -0.7543  0.2667 -1.2320
15487TIP3   OH267951   6.702   5.849  13.716  0.5149  0.8419 -0.4605
15487TIP3    H167952   6.622   5.850  13.767  0.5752 -2.1730 -0.1467
15487TIP3    H267953   6.772   5.850  13.781  0.7111  1.2929 -0.6696
15488TIP3   OH267954   0.820   1.658   1.414 -0.0921 -0.1984 -0.1890
15488TIP3    H167955   0.793   1.618   1.497 -0.5106 -1.4152 -0.8967
15488TIP3    H267956   0.910   1.628   1.401 -1.1432 -2.9797 -1.8777
15489TIP3   OH267957   6.690   3.401   1.777  0.0079 -0.0550  0.1480
15489TIP3    H167958   6.648   3.486   1.782 -0.5077 -0.1922 -1.4072
15489TIP3    H267959   6.779   3.416   1.807 -0.3862  0.7885  0.9400
15490TIP3   OH267960   3.228   6.831   4.543 -0.1994 -0.2003  0.3184
15490TIP3    H167961   3.290   6.904   4.548 -0.2291 -0.2465  1.5122
15490TIP3    H267962   3.171   6.842   4.618  0.0447 -1.6666  0.7523
15491TIP3   OH267963   4.639   4.999   5.473 -0.0762  0.0735 -0.4896
15491TIP3    H167964   4.622   5.087   5.505 -0.9594 -0.9435  2.1279
15491TIP3    H267965   4.720   4.972   5.516 -0.2021 -0.6599 -0.6873
15492TIP3   OH267966   3.997   1.858  11.200 -0.0730 -0.4757 -0.5084
15492TIP3    H167967   4.062   1.800  11.161 -0.4318 -0.8063 -0.6196
15492TIP3    H267968   3.914   1.829  11.163 -0.2795 -0.0210 -0.4090
15493TIP3   OH267969   6.315   5.176   6.368  0.1322  0.7131  0.7705
15493TIP3    H167970   6.299   5.241   6.436  0.5606  0.2248  1.3448
15493TIP3    H267971   6.399   5.138   6.390  0.8347  1.3235 -0.6672
15494TIP3   OH267972   2.944   1.780  15.624  0.2166 -0.3973 -0.1872
15494TIP3    H167973   2.999   1.717  15.670  0.5685 -0.4985 -0.7433
15494TIP3    H267974   2.873   1.727  15.587  0.0839 -0.3541  0.0033
15495TIP3   OH267975   1.829   4.461   6.651 -0.5929 -0.7932  0.0919
15495TIP3    H167976   1.875   4.440   6.733 -3.2982  1.1942  2.3014
15495TIP3    H267977   1.778   4.383   6.631  0.7740 -1.6263 -0.2739
15496TIP3   OH267978   3.085   3.422   3.030 -0.5160  0.3036  0.6080
15496TIP3    H167979   3.091   3.374   3.113  1.5635  0.7088  0.7423
15496TIP3    H267980   3.141   3.499   3.043 -1.6395  1.3488 -0.5452
15497TIP3   OH267981   3.905   5.562  11.504  0.0076  0.0486  0.0019
15497TIP3    H167982   3.978   5.624  11.511  0.8505 -0.9830  0.7074
15497TIP3    H267983   3.941   5.489  11.452 -0.3020 -0.7395  0.8591
15498TIP3   OH267984   1.368   5.452  16.589 -0.1496 -0.2884 -0.0820
15498TIP3    H167985   1.277   5.474  16.606  0.0860  0.9305 -0.3379
15498TIP3    H267986   1.365   5.397  16.510 -0.6088  0.3494 -0.5188
15499TIP3   OH267987   0.078   3.651  14.892 -0.3186 -0.0532 -0.5176
15499TIP3    H167988   0.030   3.682  14.970  0.4182  0.8378 -0.4038
15499TIP3    H267989   0.111   3.731  14.851  2.0907 -0.6571  0.0674
15500TIP3   OH267990   2.798   2.121  11.778  0.3790  0.6753  0.1149
15500TIP3    H167991   2.816   2.205  11.736 -0.0413  1.2076  0.9800
15500TIP3    H267992   2.710   2.097  11.747  1.1888 -0.3430 -1.5415
15501TIP3   OH267993   4.698   2.203  11.851  0.2453 -0.1518 -0.2118
15501TIP3    H167994   4.770   2.225  11.792  1.7296 -1.6955  0.9311
15501TIP3    H267995   4.663   2.121  11.817 -2.7314  1.7334 -2.2103
15502TIP3   OH267996   0.951   4.035   0.049  0.1352 -0.2356  0.1658
15502TIP3    H167997   0.927   4.118   0.006 -0.2097  0.7638  2.1689
15502TIP3    H267998   0.873   3.981   0.043 -0.7312  0.7946  1.5275
15503TIP3   OH267999   6.764   1.215   4.491 -0.0032 -0.3515  0.3315
15503TIP3    H168000   6.686   1.164   4.467 -1.5493  2.6702 -1.7612
15503TIP3    H268001   6.742   1.255   4.575 -0.5049  0.0319  0.0252
15504TIP3   OH268002   0.203   6.754  16.644 -0.3247  0.2431 -0.2810
15504TIP3    H168003   0.214   6.848  16.628 -0.2563 -0.0448 -2.0861
15504TIP3    H268004   0.117   6.747  16.686 -0.5299  1.0635 -0.5452
15505TIP3   OH268005   0.678   6.099  11.032 -0.0131 -0.2456 -0.1724
15505TIP3    H168006   0.706   6.011  11.060 -1.2845 -0.1355  1.6575
15505TIP3    H268007   0.757   6.152  11.036  0.6472 -1.1727 -0.6895
15506TIP3   OH268008   6.279   2.659  10.121 -0.3474 -0.1672  0.6021
15506TIP3    H168009   6.217   2.604  10.169 -0.4200 -0.2599  0.4075
15506TIP3    H268010   6.225   2.731  10.088 -0.4271 -0.4333  0.1340
15507TIP3   OH268011   1.320   0.591   3.045  0.2212  0.0724 -0.1746
15507TIP3    H168012   1.281   0.678   3.051 -0.2546 -0.1077 -0.6218
15507TIP3    H268013   1.304   0.551   3.131 -0.5905 -0.0050 -0.3583
15508TIP3   OH268014   6.475   1.744   6.059  0.0042 -0.4207  0.0649
15508TIP3    H168015   6.436   1.791   6.133  1.3306  0.9068 -0.0414
15508TIP3    H268016   6.409   1.680   6.035 -1.2333  0.3579  1.2142
15509TIP3   OH268017   4.711   5.339  16.173  0.9310 -0.4266  0.3114
15509TIP3    H168018   4.767   5.410  16.140  0.8408 -0.5641 -0.1408
15509TIP3    H268019   4.736   5.262  16.122  2.1610 -1.1377  1.8839
15510TIP3   OH268020   6.007   2.739   1.287  0.0118 -0.2218  0.5372
15510TIP3    H168021   6.062   2.682   1.233  1.0533 -0.2910  1.6249
15510TIP3    H268022   6.059   2.753   1.366 -1.1147  0.5755  1.1490
15511TIP3   OH268023   1.033   1.583  13.888  0.2849  0.5892 -0.2317
15511TIP3    H168024   1.022   1.542  13.803 -1.3439  0.5037 -0.0064
15511TIP3    H268025   1.127   1.576  13.906  0.4103 -0.8169 -1.2842
15512TIP3   OH268026   0.115   2.310   3.031 -0.1532  0.9823  0.1754
15512TIP3    H168027   0.121   2.391   2.981 -0.0830 -0.1091 -1.6867
15512TIP3    H268028   0.173   2.249   2.984 -0.3866 -0.2139  1.3821
15513TIP3   OH268029   4.567   3.000   1.114 -0.2826  0.2187 -0.7939
15513TIP3    H168030   4.617   3.018   1.034 -1.2558 -2.2248 -2.0497
15513TIP3    H268031   4.601   2.916   1.145  0.8790  1.5981  2.1317
15514TIP3   OH268032   1.281   2.717  10.369 -0.0469  0.7821 -0.3802
15514TIP3    H168033   1.241   2.736  10.284  0.2912  1.2471 -0.4423
15514TIP3    H268034   1.271   2.623  10.380 -0.6015  0.8016 -0.6754
15515TIP3   OH268035   4.846   1.766  13.891 -0.1133  0.3592 -0.3357
15515TIP3    H168036   4.883   1.853  13.879  0.5180 -0.1576 -2.5220
15515TIP3    H268037   4.758   1.772  13.856 -0.8176  0.5958  1.3733
15516TIP3   OH268038   3.130   5.749   1.667 -0.0657 -0.0502 -0.3143
15516TIP3    H168039   3.222   5.774   1.672 -0.0595 -0.1827  0.3263
15516TIP3    H268040   3.083   5.832   1.654  0.1136  0.0604 -0.2543
15517TIP3   OH268041   2.683   0.722  16.448  0.4550  0.0944  0.1669
15517TIP3    H168042   2.726   0.802  16.418 -0.4074  0.3534 -0.4050
15517TIP3    H268043   2.734   0.695  16.525  1.8275  0.2059 -0.6790
15518TIP3   OH268044   4.104   5.868  12.429  0.2243 -0.3487  0.3923
15518TIP3    H168045   4.106   5.779  12.394 -1.5990 -0.2342 -0.1237
15518TIP3    H268046   4.165   5.917  12.374 -1.0100 -0.6457 -1.3339
15519TIP3   OH268047   4.120   4.516   2.439 -0.2421 -0.0689 -0.2836
15519TIP3    H168048   4.078   4.541   2.356 -1.6068  0.1372  0.4401
15519TIP3    H268049   4.051   4.528   2.505  0.7063 -0.5978  0.8305
15520TIP3   OH268050   1.863   5.801  13.798  0.9749 -0.4829  0.4445
15520TIP3    H168051   1.952   5.788  13.766  1.5583  0.5454  1.5921
15520TIP3    H268052   1.872   5.860  13.872 -0.6054 -0.8539  0.9768
15521TIP3   OH268053   4.178   0.249  11.627 -0.3724  0.5372 -0.0833
15521TIP3    H168054   4.209   0.158  11.620 -1.9409 -0.0748  0.5060
15521TIP3    H268055   4.214   0.292  11.550  1.0717 -0.3771  0.0512
15522TIP3   OH268056   3.965   5.734   0.930 -0.5238 -0.2864 -0.4711
15522TIP3    H168057   3.990   5.812   0.978 -0.0772 -0.5627 -0.2538
15522TIP3    H268058   3.963   5.762   0.838 -0.4124 -0.0108 -0.3888
15523TIP3   OH268059   4.699   5.350  10.996 -0.3778  0.0527 -0.0741
15523TIP3    H168060   4.617   5.314  10.964  1.0700 -3.3351 -0.3636
15523TIP3    H268061   4.709   5.314  11.084  0.4303  1.0934  0.2827
15524TIP3   OH268062   0.427   1.273  14.264 -0.3089  0.1278 -0.1539
15524TIP3    H168063   0.481   1.351  14.279  1.3810 -1.3112  1.8813
15524TIP3    H268064   0.367   1.271  14.339 -0.9376 -0.0745 -0.6549
15525TIP3   OH268065   6.479   1.949   4.101  0.4976 -0.0850 -0.2748
15525TIP3    H168066   6.433   2.010   4.159 -1.6286 -2.9299  1.3457
15525TIP3    H268067   6.546   1.909   4.156  0.1930 -0.9612 -0.5145
15526TIP3   OH268068   1.887   6.218   3.470  0.1914 -0.3969  0.8465
15526TIP3    H168069   1.930   6.283   3.526 -0.5165  0.2942  0.6143
15526TIP3    H268070   1.816   6.266   3.428  0.7952 -0.8702 -0.7688
15527TIP3   OH268071   4.370   2.530  13.481 -0.2717 -0.0821 -0.0395
15527TIP3    H168072   4.345   2.613  13.441  0.6356 -0.0115 -0.4817
15527TIP3    H268073   4.465   2.534  13.485 -0.3227  0.4810  3.3350
15528TIP3   OH268074   6.441   5.916  11.177  0.7319 -0.2243  0.6747
15528TIP3    H168075   6.442   5.884  11.087  2.4902  1.2400  0.1179
15528TIP3    H268076   6.517   5.874  11.218 -0.4108 -1.3777  1.7146
15529TIP3   OH268077   0.223   6.105   2.878  0.2136  0.7422 -0.5847
15529TIP3    H168078   0.172   6.132   2.802 -1.5900  0.4118  0.4651
15529TIP3    H268079   0.166   6.121   2.953 -0.0977 -3.4850  0.3686
15530TIP3   OH268080   2.553   4.240   3.977  0.1928 -0.1788  0.0454
15530TIP3    H168081   2.618   4.292   4.023  0.5370 -0.5834  0.0268
15530TIP3    H268082   2.577   4.248   3.885 -0.2155  0.2501 -0.0277
15531TIP3   OH268083   4.226   2.166  16.733  0.3950  0.1315 -0.3364
15531TIP3    H168084   4.259   2.214  16.657 -0.3800 -0.7907 -1.2826
15531TIP3    H268085   4.293   2.178  16.800  1.5208  0.2280 -1.4512
15532TIP3   OH268086   2.791   3.891   2.635 -0.0143  0.1740 -0.5140
15532TIP3    H168087   2.801   3.797   2.621  0.5003  0.5147 -2.6635
15532TIP3    H268088   2.725   3.897   2.705 -0.6746 -1.7440 -0.8946
15533TIP3   OH268089   4.452   2.810   2.551  0.3973  0.2919  0.6035
15533TIP3    H168090   4.398   2.805   2.629  0.4041  1.0410  0.6662
15533TIP3    H268091   4.469   2.904   2.539  2.5456  0.0426  1.1886
15534TIP3   OH268092   2.951   2.457   0.439  0.2240  0.0077  0.0074
15534TIP3    H168093   2.930   2.512   0.364 -0.3939 -0.9731 -0.5568
15534TIP3    H268094   3.035   2.416   0.417  0.4529  0.3508  0.2250
15535TIP3   OH268095   4.541   4.533  12.589 -0.1132 -0.0354 -0.0326
15535TIP3    H168096   4.546   4.458  12.529  0.0224  1.0813 -1.4785
15535TIP3    H268097   4.467   4.584  12.557  0.6509  1.1635  0.0591
15536TIP3   OH268098   2.854   1.710  14.471 -0.1010  0.2414 -0.0540
15536TIP3    H168099   2.932   1.677  14.426  0.9539 -0.9266  2.4454
15536TIP3    H268100   2.821   1.779  14.413  0.9435 -1.3225 -2.7051
15537TIP3   OH268101   6.254   3.076  11.401  0.0385  0.2386  0.1767
15537TIP3    H168102   6.281   3.166  11.384  0.5620  0.0812  0.1272
15537TIP3    H268103   6.234   3.073  11.494 -0.0187  0.4135  0.1703
15538TIP3   OH268104   2.518   5.592   2.695  0.3839  0.0359  0.3901
15538TIP3    H168105   2.533   5.595   2.790 -0.5027 -1.7960  0.6544
15538TIP3    H268106   2.526   5.499   2.673  2.4036  0.6179 -1.7032
15539TIP3   OH268107   3.827   2.304  12.319 -0.0724 -0.6076 -0.6511
15539TIP3    H168108   3.862   2.371  12.379  1.0224 -2.3578  0.7636
15539TIP3    H268109   3.743   2.340  12.291 -0.8160  0.2206  2.2160
15540TIP3   OH268110   4.247   5.683   3.548  0.7337 -0.6801 -0.6304
15540TIP3    H168111   4.155   5.709   3.544 -0.0606 -2.1087  3.4418
15540TIP3    H268112   4.245   5.587   3.545  1.6142 -0.9251  2.4654
15541TIP3   OH268113   6.156   4.826   2.227  0.9050  0.3455 -0.3649
15541TIP3    H168114   6.175   4.744   2.272 -2.1118 -1.5619 -2.1789
15541TIP3    H268115   6.229   4.837   2.165  0.2434 -2.4281 -1.7985
15542TIP3   OH268116   1.054   0.064  12.450 -0.2359 -0.0445  0.2646
15542TIP3    H168117   1.046   0.097  12.360  0.9546 -3.4792 -1.2829
15542TIP3    H268118   0.963   0.059  12.481 -1.1221 -2.1029 -2.2187
15543TIP3   OH268119   0.619   3.811   2.804 -0.3728 -0.2081 -0.3255
15543TIP3    H168120   0.688   3.859   2.852 -1.2544 -0.5993  1.4020
15543TIP3    H268121   0.543   3.816   2.861 -1.5383 -0.5565 -1.8085
15544TIP3   OH268122   6.296   3.252   5.501  0.3622  0.6114  0.5226
15544TIP3    H168123   6.344   3.281   5.579 -0.3128 -0.0754  1.2073
15544TIP3    H268124   6.204   3.265   5.524  0.1871  1.2888 -0.5265
15545TIP3   OH268125   5.109   0.199   4.133 -0.2461 -0.3260 -0.4812
15545TIP3    H168126   5.149   0.206   4.046 -0.8150 -0.0618 -0.7287
15545TIP3    H268127   5.154   0.266   4.184  1.0344 -1.3715 -0.1804
15546TIP3   OH268128   3.039   0.231   0.901 -0.7392  0.0413 -0.1568
15546TIP3    H168129   3.057   0.138   0.916 -0.7918 -0.1786 -1.3532
15546TIP3    H268130   2.945   0.241   0.915 -0.8867 -0.2732 -0.9134
15547TIP3   OH268131   5.878   2.636   4.390  0.6461  0.4238 -0.2016
15547TIP3    H168132   5.905   2.718   4.434  0.7114  0.6914 -0.7331
15547TIP3    H268133   5.897   2.568   4.455  1.7990  0.6951 -0.2180
15548TIP3   OH268134   1.743   4.047   0.882 -0.5220  0.1722  0.0048
15548TIP3    H168135   1.796   4.026   0.959 -1.4079  1.0658  0.9008
15548TIP3    H268136   1.806   4.075   0.816  0.2058  0.2396  0.7124
15549TIP3   OH268137   6.472   3.205   4.118  0.7000 -0.0284 -0.7302
15549TIP3    H168138   6.408   3.140   4.088 -0.9979 -0.4502  3.1016
15549TIP3    H268139   6.474   3.271   4.049 -1.1112 -1.8101 -2.6489
15550TIP3   OH268140   3.383   4.039  15.318  0.1388  0.2399 -0.5603
15550TIP3    H168141   3.349   3.950  15.324 -0.9528  0.7283  1.4178
15550TIP3    H268142   3.464   4.036  15.369 -0.8199  0.7418  1.0578
15551TIP3   OH268143   3.811   0.214  11.747  0.2827 -0.0949  0.5295
15551TIP3    H168144   3.804   0.282  11.814  0.0689 -0.5195  0.9457
15551TIP3    H268145   3.777   0.135  11.790  1.2605 -0.6480  0.3240
15552TIP3   OH268146   1.051   4.785   5.694  0.3060  0.2262 -0.5084
15552TIP3    H168147   1.031   4.842   5.620 -2.2214 -1.0319 -0.9255
15552TIP3    H268148   0.982   4.804   5.758 -0.1886 -1.7975 -0.3749
15553TIP3   OH268149   2.185   4.258   2.266 -0.0201  0.1017 -0.3463
15553TIP3    H168150   2.256   4.317   2.291 -0.1078 -0.2061  0.6559
15553TIP3    H268151   2.119   4.268   2.334 -0.7886  0.1022 -1.0665
15554TIP3   OH268152   1.194   6.479   4.907 -0.0917 -0.2180  0.0489
15554TIP3    H168153   1.131   6.474   4.979  0.5535 -0.9835  0.5739
15554TIP3    H268154   1.204   6.389   4.878 -0.8569  0.1648 -1.4675
15555TIP3   OH268155   2.575   5.560  14.043 -0.1091  0.4671 -0.3514
15555TIP3    H168156   2.514   5.609  14.099 -1.4042  1.0599 -2.2007
15555TIP3    H268157   2.615   5.626  13.987  0.6802 -0.1988 -0.5952
15556TIP3   OH268158   1.125   0.046   0.125  0.2794 -0.8132  0.3134
15556TIP3    H168159   1.163  -0.026   0.074 -2.0728 -0.1151 -2.6785
15556TIP3    H268160   1.061   0.003   0.182  1.2735 -1.3622  1.0566
15557TIP3   OH268161   6.373   0.768  13.899 -0.5658 -0.5465 -0.2000
15557TIP3    H168162   6.453   0.809  13.934  0.4434 -0.1681 -2.7351
15557TIP3    H268163   6.302   0.810  13.948  0.6929  0.5006  0.8278
15558TIP3   OH268164   1.923   3.423   1.659  0.4968  0.0732 -0.1820
15558TIP3    H168165   1.959   3.414   1.571  1.1926 -0.2774  0.1397
15558TIP3    H268166   1.936   3.515   1.681  0.8574  0.0286 -0.2106
15559TIP3   OH268167   1.516   5.172   1.332 -0.5049 -0.1112 -0.7256
15559TIP3    H168168   1.433   5.203   1.294 -0.0355  2.2319  0.0213
15559TIP3    H268169   1.580   5.184   1.262 -0.3561  0.4520 -0.4965
15560TIP3   OH268170   3.618   3.752  12.457  0.0134 -0.4715 -0.0251
15560TIP3    H168171   3.666   3.671  12.473  0.5660 -0.0013  0.7435
15560TIP3    H268172   3.528   3.732  12.483  0.4798 -0.3411  1.8243
15561TIP3   OH268173   2.776   0.878  11.285  0.0479  0.8345  0.1712
15561TIP3    H168174   2.852   0.922  11.323 -0.2216 -0.1071  1.8967
15561TIP3    H268175   2.800   0.785  11.284 -0.0731  0.7916 -1.7583
15562TIP3   OH268176   0.187   0.364  16.033  0.1292 -0.0825  0.3060
15562TIP3    H168177   0.231   0.392  16.113  0.4967 -0.2188  0.1553
15562TIP3    H268178   0.202   0.270  16.028  0.5379 -0.0018 -0.1716
15563TIP3   OH268179   6.252   5.340   1.492  0.3191  0.2841 -0.0811
15563TIP3    H168180   6.229   5.274   1.557 -0.0190  1.0847  0.6213
15563TIP3    H268181   6.260   5.290   1.410  0.8284 -0.7454  0.5679
15564TIP3   OH268182   5.975   2.709   5.248 -0.0897 -0.5659 -0.3614
15564TIP3    H168183   5.972   2.772   5.320  0.5307 -1.3522  0.3700
15564TIP3    H268184   5.887   2.670   5.247 -0.0257 -0.7216  0.1228
15565TIP3   OH268185   1.022   1.312   3.814 -0.3010 -0.4258 -0.5605
15565TIP3    H168186   1.038   1.276   3.901 -1.4297 -0.6449 -0.4256
15565TIP3    H268187   1.051   1.403   3.820 -2.7187  0.3467  0.8652
15566TIP3   OH268188   5.470   3.571   0.825  0.1949  0.3459 -0.4105
15566TIP3    H168189   5.386   3.527   0.817 -0.3141  1.1455  0.3418
15566TIP3    H268190   5.525   3.532   0.757 -0.9620  0.2315 -1.3042
15567TIP3   OH268191   2.005   5.622  12.855  0.3083 -0.3140  0.4414
15567TIP3    H168192   1.971   5.703  12.816  0.0582 -0.4679  0.3347
15567TIP3    H268193   2.099   5.624  12.836  0.1016 -0.6617 -0.6804
15568TIP3   OH268194   3.785   2.142  10.701 -0.3112 -0.1917 -0.5206
15568TIP3    H168195   3.857   2.116  10.643 -0.1300 -0.3586 -0.2250
15568TIP3    H268196   3.813   2.225  10.739 -0.3603 -0.1637 -0.5442
15569TIP3   OH268197   1.612   6.097  14.157 -0.0504  0.2858  0.4313
15569TIP3    H168198   1.684   6.140  14.111  0.8333 -0.8881  0.6654
15569TIP3    H268199   1.579   6.033  14.095  0.4040 -0.5200  1.0043
15570TIP3   OH268200   1.226   2.034  13.315 -0.2518 -0.5510 -0.1445
15570TIP3    H168201   1.299   2.005  13.369  0.1359  1.3962  0.4495
15570TIP3    H268202   1.148   2.008  13.364  0.0796 -0.2716  0.5413
15571TIP3   OH268203   6.240   5.786   5.637 -0.5030 -0.2287  0.3383
15571TIP3    H168204   6.252   5.702   5.681  2.8272 -0.7622 -1.2705
15571TIP3    H268205   6.253   5.851   5.706  1.3876 -1.0598  0.8436
15572TIP3   OH268206   2.882   3.507   3.217 -0.6651  0.0876 -0.2197
15572TIP3    H168207   2.966   3.516   3.174 -0.4533 -2.1481 -0.3848
15572TIP3    H268208   2.903   3.498   3.310 -0.9975  2.9161  0.2110
15573TIP3   OH268209   1.382   2.180  15.403 -0.3638  0.1749 -0.0297
15573TIP3    H168210   1.415   2.270  15.397 -0.6854  0.3268  0.4565
15573TIP3    H268211   1.352   2.172  15.493  2.7065 -1.4774  1.0016
15574TIP3   OH268212   2.556   0.241  11.512  0.1814  0.4000 -0.2406
15574TIP3    H168213   2.470   0.199  11.503 -0.5411  1.9038 -0.6301
15574TIP3    H268214   2.561   0.265  11.605  0.4062 -0.1221 -0.1123
15575TIP3   OH268215   3.691   5.604  14.170  0.4886  0.5963  0.0434
15575TIP3    H168216   3.752   5.605  14.096 -0.0053 -1.1975 -0.4420
15575TIP3    H268217   3.682   5.696  14.195  0.9947  1.2184 -1.8640
15576TIP3   OH268218   2.021   4.381  12.238 -0.2775 -0.0314 -0.1459
15576TIP3    H168219   2.086   4.383  12.309  0.4575  0.0759 -0.8069
15576TIP3    H268220   1.963   4.309  12.262  0.7607 -0.8849 -0.1027
15577TIP3   OH268221   5.341   5.219  16.324 -0.1684  0.0811  0.1638
15577TIP3    H168222   5.422   5.209  16.272  0.6935  0.3909  1.4042
15577TIP3    H268223   5.316   5.311  16.310  0.9736  0.6377  1.5292
15578TIP3   OH268224   1.867   4.461  16.994 -0.5589 -0.1045 -0.1257
15578TIP3    H168225   1.809   4.537  16.995 -0.8547 -0.3254 -0.2655
15578TIP3    H268226   1.809   4.386  16.980 -0.4126 -0.4801  1.1393
15579TIP3   OH268227   6.409   3.463  12.415  0.6989 -0.1054  0.0205
15579TIP3    H168228   6.376   3.376  12.395  0.6615 -0.5484  1.8381
15579TIP3    H268229   6.340   3.522  12.387 -0.6015 -0.8716  1.4946
15580TIP3   OH268230   5.028   4.848  11.492 -0.1527 -0.2566 -0.8935
15580TIP3    H168231   5.111   4.840  11.445 -0.5754  0.5736 -1.8134
15580TIP3    H268232   5.029   4.776  11.555  0.6927 -1.0512 -1.7843
15581TIP3   OH268233   3.691   2.899   4.306 -0.1166 -0.6164 -0.0477
15581TIP3    H168234   3.637   2.869   4.234 -0.3400  2.9318 -1.5758
15581TIP3    H268235   3.779   2.907   4.268  0.1084 -0.2456  0.5358
15582TIP3   OH268236   2.019   0.119  13.201  0.1672 -0.6876  0.2525
15582TIP3    H168237   1.937   0.112  13.153 -0.1132 -2.1805  0.8994
15582TIP3    H268238   2.000   0.084  13.287  0.7970  1.4638  1.3467
15583TIP3   OH268239   4.492   3.556   4.536 -0.4317 -0.3321  0.1346
15583TIP3    H168240   4.487   3.511   4.452  0.1225 -2.2735  1.0881
15583TIP3    H268241   4.423   3.516   4.589  1.0862 -1.2368  1.5147
15584TIP3   OH268242   3.053   6.256   2.002  0.0353  0.0787  0.2726
15584TIP3    H168243   3.122   6.309   2.041  1.1381  1.0938 -2.7259
15584TIP3    H268244   3.085   6.166   2.006  0.8196  0.3557  0.3449
15585TIP3   OH268245   5.991   6.065  14.116  0.0292 -0.2067 -0.7051
15585TIP3    H168246   6.065   6.094  14.170 -0.4655 -0.4491  0.1078
15585TIP3    H268247   5.962   6.144  14.071  0.1103  0.1068 -0.2105
15586TIP3   OH268248   3.028   3.591  12.131  0.5466 -0.0975  0.4575
15586TIP3    H168249   2.939   3.599  12.097  0.3480  1.6216  1.2683
15586TIP3    H268250   3.026   3.636  12.215  2.4307  0.9355  0.0226
15587TIP3   OH268251   1.795   0.988  14.106 -0.1052 -0.0765  0.1051
15587TIP3    H168252   1.750   1.015  14.026  0.2038 -1.3455 -0.5337
15587TIP3    H268253   1.888   1.002  14.087 -0.0803  0.4144  0.5700
15588TIP3   OH268254   4.373   1.285  14.319  0.0237  1.0814  0.8264
15588TIP3    H168255   4.280   1.284  14.295 -0.2713  0.7712  1.9362
15588TIP3    H268256   4.417   1.321  14.242 -0.9593  0.7828  0.1075
15589TIP3   OH268257   1.572   0.167  15.504  0.2454 -0.4531 -0.6550
15589TIP3    H168258   1.562   0.089  15.558 -0.7260  0.2916  0.2977
15589TIP3    H268259   1.530   0.145  15.421  1.9035 -1.6684 -1.2167
15590TIP3   OH268260   6.324   2.999  17.111  0.5397  0.1303 -0.3650
15590TIP3    H168261   6.245   2.954  17.141  0.8693 -0.5293 -0.4722
15590TIP3    H268262   6.376   3.011  17.191  0.2431  0.7509 -0.2617
15591TIP3   OH268263   6.682   5.003   3.106  0.1596 -0.6633 -0.4281
15591TIP3    H168264   6.760   4.981   3.056  1.5063  1.1844  0.7120
15591TIP3    H268265   6.635   4.920   3.116  1.9453 -1.8221 -1.1965
15592TIP3   OH268266   0.856   2.772  12.341 -0.3688  0.3141 -0.1319
15592TIP3    H168267   0.946   2.745  12.323 -0.9613 -0.1326 -2.8042
15592TIP3    H268268   0.804   2.692  12.334 -0.9771  0.4635  1.9387
15593TIP3   OH268269   3.793   5.195   3.847 -0.3711  0.0084  0.4651
15593TIP3    H168270   3.780   5.233   3.934 -0.3677  0.6025  0.2111
15593TIP3    H268271   3.725   5.128   3.841 -0.4520  0.0460  0.8781
15594TIP3   OH268272   2.939   4.666  13.954  0.0396 -0.1651 -0.2064
15594TIP3    H168273   3.027   4.702  13.958 -0.7919  1.9246  0.1664
15594TIP3    H268274   2.922   4.635  14.043  0.2931 -0.3373 -0.2164
15595TIP3   OH268275   3.971   5.115   1.659 -0.1230 -0.1015  0.1048
15595TIP3    H168276   3.879   5.094   1.646 -0.2501 -0.8013  1.8959
15595TIP3    H268277   3.984   5.197   1.611 -1.9062  0.5221  0.6013
15596TIP3   OH268278   6.399   0.326   3.561 -0.1745 -0.4265 -0.2735
15596TIP3    H168279   6.304   0.326   3.572 -0.2303  1.3539 -0.5637
15596TIP3    H268280   6.414   0.274   3.482 -0.9163 -0.4573 -0.3966
15597TIP3   OH268281   4.774   4.356   0.422  0.2218  0.0378 -0.0390
15597TIP3    H168282   4.774   4.388   0.512 -1.6255  0.7405 -0.2410
15597TIP3    H268283   4.768   4.436   0.369  3.2269 -0.2112 -0.9339
15598TIP3   OH268284   3.185   1.617   2.709  0.4087 -0.1373  0.0769
15598TIP3    H168285   3.239   1.598   2.786 -0.5411  0.8265  1.0025
15598TIP3    H268286   3.098   1.585   2.732 -0.0802  0.9178 -0.2621
15599TIP3   OH268287   5.247   5.223  14.554 -0.0015 -0.0071 -0.2914
15599TIP3    H168288   5.189   5.280  14.604  0.4789 -0.7237  1.1602
15599TIP3    H268289   5.301   5.284  14.502 -0.5611  0.7638  0.0060
15600TIP3   OH268290   3.799   5.679  12.386 -0.6050  0.2543 -0.4201
15600TIP3    H168291   3.812   5.611  12.320 -1.5705  0.6220 -1.0089
15600TIP3    H268292   3.754   5.750  12.340 -0.9694  0.6760  0.5408
15601TIP3   OH268293   6.347   4.265  13.341 -0.0926 -0.0744 -0.0908
15601TIP3    H168294   6.368   4.358  13.353 -0.5595  0.6854 -3.8812
15601TIP3    H268295   6.431   4.225  13.316 -0.1321 -0.4032  0.3067
15602TIP3   OH268296   6.394   4.305  14.251  0.4813  0.1629  0.5706
15602TIP3    H168297   6.364   4.396  14.246 -2.2429 -0.6841 -0.6121
15602TIP3    H268298   6.316   4.257  14.279  1.1116 -2.0726 -1.2390
15603TIP3   OH268299   6.321   1.939  13.604 -0.2186  0.9233  0.8372
15603TIP3    H168300   6.329   2.016  13.660 -0.3084  2.4469 -1.1267
15603TIP3    H268301   6.383   1.876  13.641  0.3406  2.1626  2.1260
15604TIP3   OH268302   2.968   0.075   5.518  0.0048  0.4488 -0.6833
15604TIP3    H168303   3.009   0.111   5.597  0.2396  2.6927 -1.7307
15604TIP3    H268304   3.001   0.130   5.447 -3.1170  1.0134 -1.8505
15605TIP3   OH268305   4.660   6.412   4.581  0.1245  0.6412 -0.6011
15605TIP3    H168306   4.589   6.399   4.644  0.4029  0.6622 -0.2803
15605TIP3    H268307   4.621   6.464   4.511 -0.3551  0.1171 -0.7397
15606TIP3   OH268308   4.795   4.230  14.519 -0.0156 -0.4494  0.0666
15606TIP3    H168309   4.746   4.282  14.582  0.3776 -0.0350  0.0372
15606TIP3    H268310   4.817   4.149  14.565 -1.2202 -0.8890 -0.1104
15607TIP3   OH268311   2.943   6.372  14.017  0.4184  0.5730  0.4576
15607TIP3    H168312   2.949   6.376  14.113 -0.8393  1.2169  0.5368
15607TIP3    H268313   3.032   6.356  13.988  0.4777 -2.2531  1.8572
15608TIP3   OH268314   0.657   5.771   5.187 -0.3082 -0.0228  0.4409
15608TIP3    H168315   0.593   5.719   5.138 -0.6467  1.1981 -0.4516
15608TIP3    H268316   0.605   5.835   5.235  0.1568  0.0455  0.8648
15609TIP3   OH268317   3.472   6.181  12.853 -0.5002 -0.2720  0.2643
15609TIP3    H168318   3.547   6.185  12.795 -0.6202 -0.8482  0.0606
15609TIP3    H268319   3.498   6.117  12.920  0.0666  1.1785  1.4734
15610TIP3   OH268320   2.385   1.960   2.193 -0.1434 -0.0266 -0.3639
15610TIP3    H168321   2.398   1.922   2.280  0.4058 -0.8725 -0.8036
15610TIP3    H268322   2.456   1.924   2.140 -0.0713  1.0061 -1.0015
15611TIP3   OH268323   2.704   1.591   4.256 -0.4152  0.6580 -0.1445
15611TIP3    H168324   2.618   1.585   4.216 -1.2733  0.0757  1.6836
15611TIP3    H268325   2.706   1.520   4.320  0.6044  1.9199  1.3170
15612TIP3   OH268326   1.391   2.833   0.653  0.0396 -0.3207 -0.5797
15612TIP3    H168327   1.390   2.840   0.748  2.8149 -0.3480 -0.4715
15612TIP3    H268328   1.337   2.756   0.634 -0.6476 -0.2477  0.9415
15613TIP3   OH268329   1.332   0.864   2.900  0.6921  0.2374  0.4885
15613TIP3    H168330   1.353   0.919   2.824 -0.8460  0.3833  0.1475
15613TIP3    H268331   1.416   0.852   2.944  1.3887  1.2491 -0.5059
15614TIP3   OH268332   6.486   1.958   1.508 -0.1212 -0.1026 -0.1781
15614TIP3    H168333   6.558   1.949   1.570 -1.6334  1.0362  1.8711
15614TIP3    H268334   6.435   1.878   1.519  1.1914 -1.3413 -2.2922
15615TIP3   OH268335   5.884   5.015   3.560  0.0120 -0.2564  0.5093
15615TIP3    H168336   5.980   5.023   3.556 -0.0425 -0.0844 -0.6327
15615TIP3    H268337   5.857   5.084   3.620  0.3674  1.9069 -1.6768
15616TIP3   OH268338   2.188   0.362   5.389  0.4125  0.3777  0.2523
15616TIP3    H168339   2.262   0.310   5.421  0.0044 -0.4172 -0.0833
15616TIP3    H268340   2.229   0.433   5.338  1.0599  1.4477  2.1575
15617TIP3   OH268341   1.586   4.912   3.495  0.0715 -0.4229  0.6412
15617TIP3    H168342   1.660   4.903   3.555  1.1005 -0.7617 -0.6170
15617TIP3    H268343   1.627   4.917   3.408 -1.4337 -3.5091 -0.4107
15618TIP3   OH268344   1.547   6.393  12.394 -0.6131  0.4649 -0.3117
15618TIP3    H168345   1.528   6.475  12.440 -2.0106  0.4236 -0.7991
15618TIP3    H268346   1.500   6.399  12.312  0.4425 -0.2284 -0.9952
15619TIP3   OH268347   2.739   5.393   0.769  0.5185  0.4783  0.1990
15619TIP3    H168348   2.695   5.467   0.811  0.6463  1.7602 -1.7810
15619TIP3    H268349   2.829   5.423   0.756  1.0481 -0.7306  0.9748
15620TIP3   OH268350   0.094   3.628   2.536 -0.1134 -0.3348  0.5509
15620TIP3    H168351   0.129   3.621   2.447  2.1944 -1.4261  1.4786
15620TIP3    H268352   0.078   3.722   2.547  0.2853 -0.0900 -0.7454
15621TIP3   OH268353   4.930   2.679  16.891 -0.4276 -0.1374  0.6469
15621TIP3    H168354   4.850   2.732  16.894  0.0610  0.7903 -1.1913
15621TIP3    H268355   5.001   2.742  16.895  0.1860 -0.8034  0.4523
15622TIP3   OH268356   1.970   5.241  15.619  0.4446 -0.4270  0.8978
15622TIP3    H168357   2.025   5.163  15.605  0.7087  0.0945 -1.3940
15622TIP3    H268358   1.935   5.261  15.532 -1.9076  0.3773  1.9611
15623TIP3   OH268359   1.673   4.663   1.630  0.8302 -0.2148  0.7825
15623TIP3    H168360   1.727   4.658   1.709  3.7532  0.0612 -1.0159
15623TIP3    H268361   1.735   4.648   1.559 -1.5284  0.2482 -1.5080
15624TIP3   OH268362   6.204   4.061   2.654  0.0839 -0.8548 -0.5930
15624TIP3    H168363   6.161   3.977   2.641 -0.2091 -0.9933  1.0744
15624TIP3    H268364   6.258   4.049   2.732  0.7312  0.2399 -0.8522
15625TIP3   OH268365   0.106   0.472  11.808  0.2494 -0.4638  0.0315
15625TIP3    H168366   0.108   0.568  11.799  1.1536 -0.6047 -1.9172
15625TIP3    H268367   0.028   0.454  11.859 -0.8131  1.2484 -0.9012
15626TIP3   OH268368   1.904   3.254  12.181  0.5616 -0.0458  0.2725
15626TIP3    H168369   1.819   3.262  12.138  0.8592  0.9991 -0.1712
15626TIP3    H268370   1.928   3.162  12.170  0.0069 -0.0965 -0.6066
15627TIP3   OH268371   0.499   3.414  13.978  0.4183 -0.2045  0.1666
15627TIP3    H168372   0.577   3.360  13.960  0.8472  0.3425  0.3615
15627TIP3    H268373   0.478   3.395  14.070  0.0680 -0.6671 -0.0058
15628TIP3   OH268374   4.435   3.978  13.738  0.1915  0.5757 -0.1411
15628TIP3    H168375   4.403   3.905  13.792  1.2933  0.6806  0.6912
15628TIP3    H268376   4.493   3.937  13.674  0.6906  0.6914  0.2297
15629TIP3   OH268377   1.572   4.509   2.009  0.2241 -0.3086  0.4116
15629TIP3    H168378   1.508   4.543   1.947 -0.1731 -2.7269 -0.6340
15629TIP3    H268379   1.641   4.576   2.012 -0.4540  0.5573 -1.5197
15630TIP3   OH268380   0.737   0.752  12.682  0.3140  0.1130 -0.9427
15630TIP3    H168381   0.784   0.669  12.690 -0.7067 -0.3604  0.6201
15630TIP3    H268382   0.750   0.796  12.766 -2.2994 -0.2302 -0.2681
15631TIP3   OH268383   1.664   1.396   0.610  0.0698  0.5140  0.4876
15631TIP3    H168384   1.655   1.486   0.641 -2.4602  0.3698  0.4289
15631TIP3    H268385   1.651   1.401   0.516 -0.9365  0.0279  0.5841
15632TIP3   OH268386   6.574   5.271  12.329  0.1186  0.1542 -0.3405
15632TIP3    H168387   6.612   5.316  12.253 -2.2458  3.2484  0.1110
15632TIP3    H268388   6.626   5.302  12.403  2.0265 -2.3872 -0.4843
15633TIP3   OH268389   0.674   0.810  15.702 -0.1473  0.2208  0.0654
15633TIP3    H168390   0.705   0.834  15.614 -0.5440 -1.6592 -0.6377
15633TIP3    H268391   0.752   0.776  15.746 -0.2096 -0.0211 -0.0100
15634TIP3   OH268392   4.988   1.915   2.600 -0.1372 -0.6047 -0.4989
15634TIP3    H168393   5.066   1.866   2.625 -0.0618 -0.4173 -0.3684
15634TIP3    H268394   4.923   1.847   2.579  0.6931 -0.8138 -2.7013
15635TIP3   OH268395   6.761   6.129  13.298  0.2772  0.3249  0.4727
15635TIP3    H168396   6.715   6.070  13.358  0.6388  0.1158  0.5456
15635TIP3    H268397   6.845   6.087  13.283 -0.6044 -0.8020 -1.9716
15636TIP3   OH268398   0.331   1.106  12.372 -0.1377 -0.3817  0.3785
15636TIP3    H168399   0.375   1.037  12.322  0.4806  0.2332  0.0529
15636TIP3    H268400   0.241   1.075  12.382 -0.4619 -0.2564 -1.6685
15637TIP3   OH268401   4.355   1.560  11.510  0.6478  0.1096 -0.5485
15637TIP3    H168402   4.309   1.606  11.580 -1.7189 -0.4829 -1.6387
15637TIP3    H268403   4.416   1.626  11.475  1.0059  0.7738  1.2455
15638TIP3   OH268404   4.155   3.829  13.914 -0.0061 -0.0784  0.5709
15638TIP3    H168405   4.084   3.785  13.962 -1.0985  0.5528 -0.4055
15638TIP3    H268406   4.111   3.871  13.840  1.2419  1.2568  0.5514
15639TIP3   OH268407   6.754   0.809   4.446  0.3626  0.3908  0.2803
15639TIP3    H168408   6.736   0.732   4.392 -1.6864  0.9224  0.1204
15639TIP3    H268409   6.797   0.870   4.386 -2.0302  1.0410 -0.9215
15640TIP3   OH268410   1.254   6.127  11.269 -0.1431  0.1474  0.0243
15640TIP3    H168411   1.244   6.217  11.238  1.0440  0.6504  1.0242
15640TIP3    H268412   1.335   6.096  11.228  1.5390  0.8692  2.5507
15641TIP3   OH268413   4.708   6.554   4.061  0.4008 -0.6609  0.4114
15641TIP3    H168414   4.630   6.501   4.079 -0.8943  0.8727 -0.4367
15641TIP3    H268415   4.678   6.645   4.072  2.1112 -0.0475  0.1949
15642TIP3   OH268416   3.281   4.012  10.268  0.3578 -0.1944  0.5212
15642TIP3    H168417   3.358   4.068  10.260  0.5552 -0.6263 -0.7940
15642TIP3    H268418   3.289   3.949  10.197 -1.2265 -0.2312  0.3374
15643TIP3   OH268419   3.886   4.702   4.286  0.3320 -0.0774  0.5539
15643TIP3    H168420   3.795   4.727   4.272  0.4377  0.5461  0.9660
15643TIP3    H268421   3.880   4.618   4.334 -0.0143 -0.8583 -0.8094
15644TIP3   OH268422   0.674   5.727   3.479 -0.2307 -0.7409  0.1532
15644TIP3    H168423   0.687   5.799   3.418 -2.3031  0.5316  1.0692
15644TIP3    H268424   0.735   5.659   3.451 -0.9733 -0.1871 -3.2268
15645TIP3   OH268425   4.066   0.228  12.931 -0.2682  0.0960 -0.2042
15645TIP3    H168426   4.123   0.225  13.008 -1.2912  2.0253  0.7092
15645TIP3    H268427   4.120   0.267  12.863  0.0451  0.2648  0.1358
15646TIP3   OH268428   5.891   6.407  14.283  0.3938  0.2248  0.3100
15646TIP3    H168429   5.873   6.325  14.328 -2.3599  0.4681 -0.1567
15646TIP3    H268430   5.926   6.465  14.351 -0.3209 -0.4788  1.3035
15647TIP3   OH268431   5.101   3.791   1.688 -0.4382  0.0041 -0.0822
15647TIP3    H168432   5.016   3.819   1.652 -0.4258 -1.2599 -1.1837
15647TIP3    H268433   5.086   3.701   1.717 -0.0340  0.4937  1.7841
15648TIP3   OH268434   4.405   5.361   4.176  0.1072  0.4799  0.3121
15648TIP3    H168435   4.458   5.306   4.118 -0.8953  1.1739 -1.3290
15648TIP3    H268436   4.367   5.299   4.239 -0.4888 -0.6377 -1.0919
15649TIP3   OH268437   4.690   0.630   2.034  0.1132  0.3727  0.1636
15649TIP3    H168438   4.676   0.621   1.940  0.9388 -1.5363  0.1767
15649TIP3    H268439   4.612   0.592   2.074  1.2559 -2.0982  0.2081
15650TIP3   OH268440   0.896   4.696  16.555 -0.1140  0.0002  0.6472
15650TIP3    H168441   0.804   4.720  16.566 -0.3500  0.3808 -1.6292
15650TIP3    H268442   0.895   4.605  16.526  0.0331  0.5476 -1.2448
15651TIP3   OH268443   4.149   2.697   3.911 -0.9488 -0.5355 -0.4728
15651TIP3    H168444   4.227   2.677   3.859  0.4319 -0.0856  1.3417
15651TIP3    H268445   4.169   2.667   3.999 -2.5922  0.1480  0.1893
15652TIP3   OH268446   4.226   2.687   4.164 -0.4201 -0.7902 -0.1760
15652TIP3    H168447   4.170   2.645   4.230 -0.6980 -0.6231 -0.3013
15652TIP3    H268448   4.236   2.777   4.195 -0.5060 -0.7268 -0.3318
15653TIP3   OH268449   2.732   5.807   2.952  0.1182  0.5760  0.3443
15653TIP3    H168450   2.725   5.857   2.871  0.7339 -1.7788 -1.2387
15653TIP3    H268451   2.825   5.786   2.960 -0.1519 -0.5129  0.8419
15654TIP3   OH268452   3.098   4.506   3.904 -0.2530 -0.1922  0.5486
15654TIP3    H168453   3.065   4.416   3.910  1.2558 -0.6642  2.6090
15654TIP3    H268454   3.181   4.498   3.857  1.1757 -0.3301  2.9457
15655TIP3   OH268455   3.241   5.351  10.720 -0.4218 -0.1871  0.5061
15655TIP3    H168456   3.242   5.317  10.810  0.1435 -0.3877  0.4273
15655TIP3    H268457   3.166   5.307  10.679 -0.1882 -0.7176  0.6406
15656TIP3   OH268458   3.936   3.468   1.424  0.0929 -0.0144  0.2103
15656TIP3    H168459   3.988   3.530   1.475  0.8114  0.1974 -0.7474
15656TIP3    H268460   4.000   3.405   1.390 -0.3698 -0.1618 -0.4066
15657TIP3   OH268461   2.476   6.812   5.579  0.0547 -0.1566 -1.1170
15657TIP3    H168462   2.494   6.756   5.504 -0.0352 -1.2457 -0.3343
15657TIP3    H268463   2.549   6.797   5.639 -0.9641 -0.9586 -0.0366
15658TIP3   OH268464   6.394   1.255  15.021  0.2388  0.0859  0.4991
15658TIP3    H168465   6.427   1.307  14.949 -0.5631 -0.1695 -0.0727
15658TIP3    H268466   6.349   1.317  15.078  2.5662  0.6205  1.8681
15659TIP3   OH268467   4.734   6.547  11.408  0.6288 -0.1255  0.2291
15659TIP3    H168468   4.683   6.504  11.476  0.1637  1.1022  0.6878
15659TIP3    H268469   4.789   6.478  11.371  0.2900 -0.9803  1.2880
15660TIP3   OH268470   1.781   2.317  14.592 -0.1063  0.0034  0.4337
15660TIP3    H168471   1.753   2.408  14.605 -0.3375 -0.2904  2.3956
15660TIP3    H268472   1.729   2.286  14.518  0.4160  1.6281 -0.6563
15661TIP3   OH268473   2.749   5.118   1.280  0.2644 -0.4408  0.3556
15661TIP3    H168474   2.834   5.128   1.238 -0.2624  0.9158 -0.4673
15661TIP3    H268475   2.750   5.180   1.352  0.0994 -0.6868  0.5737
15662TIP3   OH268476   1.548   1.366  15.723 -0.4520  0.2176 -0.2517
15662TIP3    H168477   1.459   1.332  15.726 -0.3382 -0.0663 -0.0282
15662TIP3    H268478   1.575   1.372  15.815  1.0702 -3.1868 -0.3399
15663TIP3   OH268479   0.793   0.857  10.855  0.0145 -0.2205  0.1552
15663TIP3    H168480   0.874   0.846  10.806  0.2429  1.0205  0.2354
15663TIP3    H268481   0.800   0.793  10.926 -0.2409 -1.9165 -1.2660
15664TIP3   OH268482   4.038   3.351   5.793 -0.0009  0.3801  0.2183
15664TIP3    H168483   4.098   3.418   5.826  1.7644 -0.6368 -0.7237
15664TIP3    H268484   4.061   3.343   5.700  0.7356 -2.3393  0.5526
15665TIP3   OH268485   3.616   6.060  13.053 -0.3703 -0.3884 -0.3132
15665TIP3    H168486   3.581   6.017  13.131 -0.5356 -0.1693 -0.2685
15665TIP3    H268487   3.711   6.049  13.061 -0.4379 -1.3150 -0.6270
15666TIP3   OH268488   5.133   4.035  16.312  0.3662  0.1511 -0.1591
15666TIP3    H168489   5.109   3.988  16.392  0.0992  0.1237 -0.2516
15666TIP3    H268490   5.228   4.035  16.311  0.4114  1.3371  0.8795
15667TIP3   OH268491   1.023   5.437   3.113 -0.5575  0.0441  0.2595
15667TIP3    H168492   1.100   5.491   3.098 -1.3701  0.7061 -1.9477
15667TIP3    H268493   1.023   5.374   3.040 -1.5550 -0.6022  0.7923
15668TIP3   OH268494   0.717   1.942   0.122 -0.0792 -0.1386 -0.2946
15668TIP3    H168495   0.635   1.987   0.101 -0.2367  0.3410  1.1895
15668TIP3    H268496   0.691   1.853   0.143 -0.1191 -0.1885 -0.5515
15669TIP3   OH268497   5.493   3.195   3.024  0.0363 -0.4156 -0.6419
15669TIP3    H168498   5.567   3.136   3.040  1.1136  0.9065 -0.5632
15669TIP3    H268499   5.420   3.156   3.072  1.3980 -0.2535  1.7327
15670TIP3   OH268500   0.981   1.383  12.297  0.4259  0.2174 -0.1650
15670TIP3    H168501   1.053   1.345  12.347  1.5174  1.0099 -1.0705
15670TIP3    H268502   1.001   1.477  12.294 -0.4493  0.4019 -0.7560
15671TIP3   OH268503   4.558   4.585  15.914  0.1538  0.7897  0.3481
15671TIP3    H168504   4.481   4.552  15.962  1.3162  0.5195  2.1158
15671TIP3    H268505   4.532   4.671  15.882 -1.1801  0.3291  0.1222
15672TIP3   OH268506   2.106   4.199   1.036  0.7466  0.0342  0.0706
15672TIP3    H168507   2.181   4.150   1.002 -1.3347 -2.7127 -1.0005
15672TIP3    H268508   2.082   4.258   0.965  1.2290  0.1506 -0.0006
15673TIP3   OH268509   1.767   4.441   2.891 -0.4902  0.0017  0.1389
15673TIP3    H168510   1.863   4.435   2.892 -0.5461 -1.1209  1.3641
15673TIP3    H268511   1.749   4.534   2.902  0.4691  0.1378  0.7113
15674TIP3   OH268512   6.436   5.182  15.708 -0.2010  0.5870  0.6231
15674TIP3    H168513   6.388   5.242  15.651  2.6473  0.9536 -1.6308
15674TIP3    H268514   6.494   5.134  15.649  1.0363 -0.9503  2.9403
15675TIP3   OH268515   6.559   5.536  16.709  0.3854 -0.4455  0.3483
15675TIP3    H168516   6.588   5.584  16.786 -0.3759 -0.8217  0.8794
15675TIP3    H268517   6.482   5.584  16.678  0.3517 -0.6263  0.1482
15676TIP3   OH268518   3.775   0.240  15.264  0.1909 -0.6836 -0.2709
15676TIP3    H168519   3.706   0.179  15.237 -0.5645  0.2540 -0.5351
15676TIP3    H268520   3.729   0.322  15.279  1.3087  0.0543 -0.7781
15677TIP3   OH268521   2.385   1.172  13.858 -0.2795 -0.5218  0.1613
15677TIP3    H168522   2.394   1.266  13.873 -1.3572 -0.3290 -0.2928
15677TIP3    H268523   2.291   1.157  13.855 -0.1247 -1.7263  0.8256
15678TIP3   OH268524   1.610   1.913  15.046  0.0181 -0.0018  0.3032
15678TIP3    H168525   1.685   1.900  15.105  1.5851  0.8879 -1.3646
15678TIP3    H268526   1.590   1.825  15.013  0.8473 -0.1600  0.1944
15679TIP3   OH268527   5.650   3.488   4.467 -0.1997  0.1186 -0.4671
15679TIP3    H168528   5.585   3.423   4.495  1.5872 -1.7672 -0.4091
15679TIP3    H268529   5.663   3.543   4.544  0.3859 -1.3566  0.5516
15680TIP3   OH268530   0.711   0.865   6.028 -0.0725  0.3088  0.2701
15680TIP3    H168531   0.710   0.907   6.114 -0.7899  0.1196  0.3572
15680TIP3    H268532   0.676   0.777   6.044  2.5544 -0.8163  0.3322
15681TIP3   OH268533   2.882   3.643  17.138  0.1654 -0.1719 -0.6085
15681TIP3    H168534   2.871   3.583  17.212  1.0308  1.0001  0.5266
15681TIP3    H268535   2.794   3.676  17.120  0.1574  0.8307  1.0714
15682TIP3   OH268536   1.714   3.995   5.168 -0.2908 -0.0735 -0.5960
15682TIP3    H168537   1.739   4.022   5.257  1.1851 -0.4211 -0.8887
15682TIP3    H268538   1.618   3.992   5.171 -0.3478  1.4990  0.5184
15683TIP3   OH268539   1.355   0.693   5.509 -0.5537  0.3770  0.2038
15683TIP3    H168540   1.266   0.659   5.499 -0.5306  0.5922 -0.8644
15683TIP3    H268541   1.412   0.620   5.483 -0.3128 -0.4680  2.8564
15684TIP3   OH268542   2.408   3.069   2.235  0.0707  0.0696 -0.1387
15684TIP3    H168543   2.498   3.071   2.202 -0.1212 -1.5467 -0.8803
15684TIP3    H268544   2.416   3.042   2.326  0.2938 -2.2317 -0.7591
15685TIP3   OH268545   0.058   6.663  12.742 -0.1197 -0.3788 -0.1498
15685TIP3    H168546   0.072   6.748  12.785 -1.6433 -0.0762 -0.1965
15685TIP3    H268547  -0.029   6.670  12.702  0.1733 -1.5975 -1.0530
15686TIP3   OH268548   1.863   4.812   2.992 -0.2856 -0.0827  0.0498
15686TIP3    H168549   1.891   4.766   2.914  1.5364  0.9560  0.0234
15686TIP3    H268550   1.860   4.745   3.060 -0.8902 -0.8035 -0.6652
15687TIP3   OH268551   1.319   0.157   2.696 -0.0881  0.2529  0.1918
15687TIP3    H168552   1.315   0.210   2.616  1.6949 -0.0192 -0.1213
15687TIP3    H268553   1.324   0.222   2.766 -1.0567  0.4951  0.0423
15688TIP3   OH268554   6.264   5.994  10.744  0.1093  0.4018  0.1758
15688TIP3    H168555   6.255   5.911  10.698  1.7412  0.3779 -0.1650
15688TIP3    H268556   6.180   6.038  10.733  0.3948  0.3810 -2.8425
15689TIP3   OH268557   1.842   3.252   5.929  0.3968 -0.1415 -0.0242
15689TIP3    H168558   1.880   3.167   5.908 -0.0672 -0.5120  0.6046
15689TIP3    H268559   1.800   3.239   6.014  1.6925  1.1338  0.8691
15690TIP3   OH268560   2.867   1.532  12.047 -0.6199 -0.4943 -0.3552
15690TIP3    H168561   2.845   1.539  12.140 -0.1444 -0.7760 -0.2182
15690TIP3    H268562   2.806   1.591  12.003 -0.7817 -0.2858  0.1475
15691TIP3   OH268563   5.964   4.009   4.494  0.1099 -0.3271  0.2644
15691TIP3    H168564   6.059   4.010   4.500  0.1556 -0.4764 -0.3742
15691TIP3    H268565   5.938   3.928   4.538  0.3184 -0.5600 -0.0324
15692TIP3   OH268566   4.905   5.740  14.056  0.0777  0.1072  0.1708
15692TIP3    H168567   4.833   5.794  14.088 -1.4482  0.3777 -3.2819
15692TIP3    H268568   4.941   5.789  13.982  1.6987 -1.5546 -0.2166
15693TIP3   OH268569   0.656   5.942   4.743 -0.4920 -0.3923 -0.2745
15693TIP3    H168570   0.649   5.853   4.776 -2.1399  0.3119  1.4693
15693TIP3    H268571   0.688   5.993   4.817  0.0521  0.5602 -1.1260
15694TIP3   OH268572   1.010   6.732   6.115 -0.4117 -0.5847 -0.2673
15694TIP3    H168573   0.977   6.796   6.179 -2.6211  0.1800 -2.0477
15694TIP3    H268574   0.999   6.647   6.158 -1.1380 -0.0425  0.6650
15695TIP3   OH268575   1.543   0.440  14.281  0.1543  0.1761 -0.1516
15695TIP3    H168576   1.478   0.451  14.351  0.7608 -0.5062  0.5438
15695TIP3    H268577   1.613   0.501  14.303 -0.4731  1.3304 -1.2152
15696TIP3   OH268578   3.287   6.785   2.068 -0.1434  0.0398 -0.1633
15696TIP3    H168579   3.321   6.703   2.101 -0.4302  0.0213  0.0921
15696TIP3    H268580   3.198   6.790   2.102 -0.3175  0.1958 -0.6287
15697TIP3   OH268581   3.331   0.671   2.729 -0.5835  0.0224 -0.1362
15697TIP3    H168582   3.398   0.733   2.699 -0.6580 -0.2374 -0.8726
15697TIP3    H268583   3.322   0.688   2.823  0.3439  0.2243 -0.0731
15698TIP3   OH268584   6.705   5.378  12.587 -0.1261  0.0613  0.6057
15698TIP3    H168585   6.688   5.472  12.587 -1.1244 -0.1052  0.6604
15698TIP3    H268586   6.794   5.370  12.621 -0.7013  0.8748  2.4082
15699TIP3   OH268587   6.582   1.217  15.682  0.1928  0.2975 -0.0514
15699TIP3    H168588   6.616   1.184  15.599  1.8387 -0.8370  1.0158
15699TIP3    H268589   6.597   1.311  15.678  0.9355  0.1675 -0.7626
15700TIP3   OH268590   4.584   2.964  10.670  0.5188  0.4424  0.0220
15700TIP3    H168591   4.594   3.058  10.659  1.2440  0.3320 -0.2962
15700TIP3    H268592   4.620   2.926  10.590 -1.5440 -0.0440 -0.7537
15701TIP3   OH268593   2.722   2.341  15.307  0.1652  0.5369  0.1523
15701TIP3    H168594   2.700   2.413  15.367 -3.0857  0.9174 -1.2871
15701TIP3    H268595   2.648   2.280  15.314  1.2005 -0.9500 -1.1777
15702TIP3   OH268596   6.093   4.578   1.885 -0.5772 -0.5641 -0.7399
15702TIP3    H168597   6.052   4.510   1.831 -1.0651 -0.4028 -0.5780
15702TIP3    H268598   6.177   4.595   1.842 -1.5424  0.5721 -2.2721
15703TIP3   OH268599   0.039   5.347   1.311  0.6435 -0.1896  0.4183
15703TIP3    H168600  -0.044   5.385   1.342  1.1646  0.7078  0.7586
15703TIP3    H268601   0.102   5.371   1.379  1.0175 -1.6318  0.6061
15704TIP3   OH268602   3.263   3.928  12.944 -0.9718  0.8937  0.4472
15704TIP3    H168603   3.356   3.950  12.941 -0.9460  0.7366  0.0160
15704TIP3    H268604   3.260   3.839  12.979 -0.8779  0.4659 -0.5843
15705TIP3   OH268605   3.985   2.404  13.962 -0.1086  0.2906 -0.4395
15705TIP3    H168606   4.047   2.472  13.936 -1.6586  1.6784 -0.6225
15705TIP3    H268607   3.985   2.342  13.889  3.3900 -1.5609  0.8441
15706TIP3   OH268608   5.700   3.957  15.470 -0.2279  0.1404 -0.0857
15706TIP3    H168609   5.639   3.965  15.543 -0.2324  0.7295 -0.1518
15706TIP3    H268610   5.723   4.047  15.447 -0.4135 -0.0198 -0.9643
15707TIP3   OH268611   0.850   2.135   3.962 -0.3438  0.0917 -0.4851
15707TIP3    H168612   0.756   2.144   3.945 -0.8845  0.4199  2.1189
15707TIP3    H268613   0.883   2.225   3.960 -0.6384  0.2664  0.9839
15708TIP3   OH268614   2.097   3.804   0.372 -0.1105  0.6249  0.1482
15708TIP3    H168615   2.120   3.716   0.342  1.3875  1.2164 -0.5802
15708TIP3    H268616   2.009   3.820   0.339 -0.0237 -0.2439 -0.5083
15709TIP3   OH268617   4.119   4.862   3.684  0.5949  0.5992 -0.5881
15709TIP3    H168618   4.039   4.898   3.646 -0.3899  0.0643  0.8695
15709TIP3    H268619   4.174   4.938   3.701 -0.3876  1.1843  0.0799
15710TIP3   OH268620   0.155   3.871   2.134 -0.1842  0.4965  0.0343
15710TIP3    H168621   0.144   3.797   2.194 -0.8334  0.9881  0.5430
15710TIP3    H268622   0.243   3.860   2.098 -0.0796 -0.2383  0.4900
15711TIP3   OH268623   1.219   2.182   4.883  0.2182 -0.4696  0.5535
15711TIP3    H168624   1.280   2.255   4.876 -2.4617  1.7396 -2.5445
15711TIP3    H268625   1.170   2.199   4.964 -0.8432  1.6727 -0.4825
15712TIP3   OH268626   2.112   6.462   5.183 -0.0117 -0.3608 -0.4016
15712TIP3    H168627   2.200   6.441   5.154  0.2194  1.3296 -1.0315
15712TIP3    H268628   2.119   6.550   5.221 -1.0566 -0.9786  1.3536
15713TIP3   OH268629   3.875   3.945  15.706  0.0142  0.3450  0.1087
15713TIP3    H168630   3.920   4.030  15.706  0.7875 -0.0366  2.1133
15713TIP3    H268631   3.872   3.919  15.798 -1.7234 -1.0329 -0.2853
15714TIP3   OH268632   0.866   6.026  16.265  0.2172 -0.4122 -0.2296
15714TIP3    H168633   0.889   6.030  16.172  0.3317 -2.3506 -0.3152
15714TIP3    H268634   0.774   6.054  16.268  0.5636  0.8605 -0.7330
15715TIP3   OH268635   4.366   2.865   1.328 -0.8645  0.5160 -0.0255
15715TIP3    H168636   4.331   2.780   1.356  1.3041  0.7018  4.1360
15715TIP3    H268637   4.437   2.842   1.267 -1.7042 -0.4578 -0.6741
15716TIP3   OH268638   5.722   0.352   6.607 -0.2622 -0.4195  0.5530
15716TIP3    H168639   5.741   0.306   6.525 -1.2544  0.8632 -0.4407
15716TIP3    H268640   5.761   0.297   6.675  0.1722 -1.7657 -0.7309
15717TIP3   OH268641   5.105   5.583  11.134  0.4364 -0.2340  0.1530
15717TIP3    H168642   5.052   5.655  11.100  0.8677 -0.4829 -1.0700
15717TIP3    H268643   5.193   5.597  11.098  0.7976 -0.7705  0.7820
15718TIP3   OH268644   0.046   0.308   3.936 -0.0624  0.0903  0.2416
15718TIP3    H168645   0.118   0.283   3.878 -0.3838  0.0522 -0.1395
15718TIP3    H268646   0.066   0.397   3.962 -0.5613  0.5560 -0.9188
15719TIP3   OH268647   2.035   0.162  16.151  0.1949  0.1531 -0.9004
15719TIP3    H168648   2.035   0.124  16.063  0.8659 -2.5794  0.1830
15719TIP3    H268649   2.086   0.100  16.204  1.3439  2.5969  1.0784
15720TIP3   OH268650   4.470   3.602  10.290  0.0231 -0.4606  0.1418
15720TIP3    H168651   4.491   3.649  10.371  0.8326 -1.4909  0.5525
15720TIP3    H268652   4.454   3.671  10.226  3.3394  0.4748  0.1497
15721TIP3   OH268653   5.112   0.868  13.690 -0.4912  0.2436 -0.2410
15721TIP3    H168654   5.124   0.868  13.595 -0.7036 -1.8612 -0.3161
15721TIP3    H268655   5.198   0.893  13.725  0.3960 -1.5304 -0.9880
15722TIP3   OH268656   5.605   3.233   0.379 -0.2339  0.1240 -0.5628
15722TIP3    H168657   5.580   3.306   0.436 -0.6727  1.0674 -1.9175
15722TIP3    H268658   5.680   3.265   0.329 -0.8704 -0.0727 -1.6855
15723TIP3   OH268659   2.168   0.737   6.712 -0.2710 -0.2810  0.5269
15723TIP3    H168660   2.120   0.659   6.685 -2.3089  0.5009  1.6841
15723TIP3    H268661   2.104   0.789   6.761  1.1186  1.9766  0.0761
15724TIP3   OH268662   0.001   0.917   4.692 -0.5668 -0.1388  0.6691
15724TIP3    H168663  -0.072   0.907   4.754 -1.4860 -0.1156 -0.3699
15724TIP3    H268664  -0.033   0.883   4.610  0.6306 -0.1618  0.1640
15725TIP3   OH268665   2.311   2.745   0.146  0.0646  0.2755 -0.3961
15725TIP3    H168666   2.224   2.719   0.115 -0.3106  0.0325  0.8130
15725TIP3    H268667   2.369   2.674   0.117  0.4237  1.6815 -3.5731
15726TIP3   OH268668   3.230   6.697  11.600 -0.4038  0.0118  0.2495
15726TIP3    H168669   3.214   6.660  11.687 -0.0210  1.7480  1.1083
15726TIP3    H268670   3.146   6.733  11.573 -0.1262  1.1078  0.7592
15727TIP3   OH268671   4.418   1.725   4.360  0.2940  0.0133  0.1653
15727TIP3    H168672   4.463   1.678   4.289 -0.7526 -1.4843  0.4524
15727TIP3    H268673   4.396   1.810   4.321  2.8287  0.5960 -0.1484
15728TIP3   OH268674   2.677   3.802  17.011  0.4117 -0.2825  0.5784
15728TIP3    H168675   2.586   3.773  17.014  1.2292 -3.1150  0.3167
15728TIP3    H268676   2.689   3.832  16.921  0.1158 -1.2340  0.2183
15729TIP3   OH268677   2.727   1.096   6.324 -0.1322 -0.4435  0.0380
15729TIP3    H168678   2.640   1.084   6.363  0.5508 -2.9708  0.9695
15729TIP3    H268679   2.787   1.098   6.399  0.6170  2.3416 -0.5103
15730TIP3   OH268680   4.938   6.735  11.775 -0.3654  0.5736  0.0920
15730TIP3    H168681   4.870   6.757  11.838 -1.2947 -0.0269 -0.6644
15730TIP3    H268682   4.948   6.640  11.783  0.1835  0.6195 -0.0075
15731TIP3   OH268683   1.808   4.595  13.578 -0.4938  0.0268 -0.0555
15731TIP3    H168684   1.828   4.563  13.489  2.9408 -0.9334  0.9041
15731TIP3    H268685   1.796   4.689  13.568 -0.8840 -0.1565 -1.6068
15732TIP3   OH268686   6.367   2.224  10.640 -0.2819 -0.4673  0.3462
15732TIP3    H168687   6.272   2.225  10.642 -0.2815 -0.6455  1.8471
15732TIP3    H268688   6.392   2.191  10.726  1.1387 -0.0364  0.1272
15733TIP3   OH268689   1.911   4.684  16.523  0.8099 -0.0375 -0.5611
15733TIP3    H168690   1.928   4.590  16.526  0.7687 -0.0355 -0.0683
15733TIP3    H268691   1.978   4.722  16.580 -0.4311  0.0194  0.9479
15734TIP3   OH268692   0.690   2.156   1.361 -0.1049  0.4552  0.7305
15734TIP3    H168693   0.702   2.179   1.453 -0.2021 -0.2628  0.9219
15734TIP3    H268694   0.738   2.074   1.350  0.5799  0.9437 -0.0507
15735TIP3   OH268695   5.639   3.889  16.275  0.0615 -0.1236  0.1230
15735TIP3    H168696   5.703   3.891  16.346 -0.4425 -0.6385  0.6039
15735TIP3    H268697   5.668   3.957  16.214  1.6590 -1.0232 -0.1840
15736TIP3   OH268698   6.619   4.114  16.572  0.6988  0.4496 -0.4087
15736TIP3    H168699   6.559   4.189  16.576  2.0414  1.8515 -3.3325
15736TIP3    H268700   6.576   4.051  16.514  0.4344 -0.2300  0.5025
15737TIP3   OH268701   5.526   2.742  12.974 -0.2722 -0.7775  0.6789
15737TIP3    H168702   5.524   2.782  13.061  1.0188 -0.9103  0.7919
15737TIP3    H268703   5.441   2.700  12.965 -1.2055  0.9197  1.0611
15738TIP3   OH268704   5.760   2.495   0.112 -0.4805 -0.0565  0.5786
15738TIP3    H168705   5.839   2.550   0.111 -1.4227  1.4344 -1.5049
15738TIP3    H268706   5.689   2.557   0.098 -1.9476 -1.4886  1.4498
15739TIP3   OH268707   0.066   3.995  15.653 -0.1132 -0.6144 -0.2123
15739TIP3    H168708   0.116   3.977  15.732 -0.4017 -1.4255 -0.2073
15739TIP3    H268709  -0.014   4.038  15.684  0.3665  0.2974 -0.1873
15740TIP3   OH268710   2.638   2.204   4.554 -0.1355 -0.5131  0.6377
15740TIP3    H168711   2.684   2.239   4.478 -0.5464 -0.9084  0.1962
15740TIP3    H268712   2.705   2.199   4.623 -0.1483  1.4405  0.8314
15741TIP3   OH268713   2.791   3.342  11.128 -0.0491  0.0709 -0.4547
15741TIP3    H168714   2.718   3.305  11.079 -0.7852  0.7886  0.0687
15741TIP3    H268715   2.765   3.336  11.220  0.6206  0.1931 -0.2455
15742TIP3   OH268716   5.377   2.219  11.728  0.0765 -0.3176  0.1144
15742TIP3    H168717   5.409   2.309  11.729  0.3938 -0.4321  0.1556
15742TIP3    H268718   5.455   2.165  11.741 -0.1822 -0.5807  0.6154
15743TIP3   OH268719   3.856   2.034   5.833 -0.3760 -0.6059  0.1482
15743TIP3    H168720   3.886   2.040   5.742 -0.7420 -0.1198  0.0540
15743TIP3    H268721   3.833   1.942   5.845 -0.4345 -0.6494 -0.2867
15744TIP3   OH268722   1.947   1.000   6.154  0.0906  0.3024 -0.0598
15744TIP3    H168723   2.036   0.968   6.138  0.2780  1.1107 -0.7492
15744TIP3    H268724   1.899   0.977   6.074 -0.0724  0.6803 -0.0729
15745TIP3   OH268725   0.946   3.342   1.632  0.6692 -0.2381  0.4995
15745TIP3    H168726   0.968   3.398   1.558  0.0333  0.0583  0.5285
15745TIP3    H268727   0.954   3.398   1.709  0.2220 -0.2355  0.5474
15746TIP3   OH268728   3.344   6.649  15.871  0.1915  0.0204 -0.4734
15746TIP3    H168729   3.355   6.738  15.838 -1.0449  1.7198  3.1050
15746TIP3    H268730   3.249   6.639  15.882  0.4512 -0.0994  2.7232
15747TIP3   OH268731   2.255   1.773   0.874 -0.3996 -0.1374 -0.0660
15747TIP3    H168732   2.342   1.794   0.908 -0.3167  2.1566 -1.4949
15747TIP3    H268733   2.206   1.856   0.878 -1.7163 -0.7737 -1.5514
15748TIP3   OH268734   6.668   0.553  16.279  0.1187  0.4133  0.0090
15748TIP3    H168735   6.703   0.464  16.292  0.7254  0.7879  1.1084
15748TIP3    H268736   6.724   0.591  16.211 -0.1564 -0.0404 -0.4826
15749TIP3   OH268737   0.025   2.160  11.795  0.2573  0.0936 -0.4093
15749TIP3    H168738   0.045   2.067  11.783  0.7689 -0.0256  1.2151
15749TIP3    H268739   0.110   2.200  11.816 -0.3437  0.4879  1.3759
15750TIP3   OH268740   4.418   4.652   3.050  0.4357 -0.0378  0.1685
15750TIP3    H168741   4.350   4.609   2.999  0.3457  0.0387  0.2238
15750TIP3    H268742   4.470   4.581   3.087 -0.1150 -0.1076  0.8061
15751TIP3   OH268743   4.870   1.545  15.518  1.0606  0.1953  0.7231
15751TIP3    H168744   4.841   1.587  15.599  0.9256 -0.9828  1.3021
15751TIP3    H268745   4.861   1.451  15.535  0.4140 -0.0663 -0.8853
15752TIP3   OH268746   2.803   3.260  12.007  1.1112 -0.0978 -0.0477
15752TIP3    H168747   2.781   3.291  11.919 -0.5324 -1.1330 -0.0354
15752TIP3    H268748   2.788   3.336  12.063 -2.2799 -0.6017 -0.0987
15753TIP3   OH268749   4.909   3.914  12.469 -0.1270  0.0032  0.2282
15753TIP3    H168750   4.998   3.930  12.437 -1.1670  1.9250 -2.0417
15753TIP3    H268751   4.892   3.986  12.530 -0.4854  0.3057 -0.2204
15754TIP3   OH268752   2.009   1.347   6.135 -0.1194  0.1456  0.7495
15754TIP3    H168753   2.016   1.323   6.042 -2.0141  1.9956  0.0485
15754TIP3    H268754   2.032   1.440   6.137 -0.0529  0.1170  2.1566
15755TIP3   OH268755   4.913   2.500   4.652 -0.1066 -0.0430  0.1147
15755TIP3    H168756   4.990   2.444   4.666 -0.7368 -0.9844 -0.0417
15755TIP3    H268757   4.869   2.461   4.577  0.3420  1.7129 -1.1045
15756TIP3   OH268758   4.519   1.317   0.932  0.7908 -0.5882 -0.3913
15756TIP3    H168759   4.496   1.398   0.978  0.0394 -0.2924 -1.2592
15756TIP3    H268760   4.609   1.331   0.904  1.2063 -0.7050  0.8192
15757TIP3   OH268761   5.962   6.045   0.502 -0.0109  0.1130 -0.8251
15757TIP3    H168762   6.022   6.119   0.511  1.9314 -1.3229 -1.3950
15757TIP3    H268763   5.878   6.085   0.477  0.1983  2.3210  1.5907
15758TIP3   OH268764   1.973   5.132   1.369  0.1693 -0.2823  0.1601
15758TIP3    H168765   1.972   5.088   1.284 -0.6204  1.7942 -0.9910
15758TIP3    H268766   2.019   5.214   1.352 -1.9323  1.1814  1.1418
15759TIP3   OH268767   4.699   2.077  16.868  0.3576 -0.0382  0.5612
15759TIP3    H168768   4.638   2.004  16.858 -0.5651  0.5898  1.5434
15759TIP3    H268769   4.645   2.155  16.860  1.4313  0.5997 -1.1336
15760TIP3   OH268770   0.330   3.219  11.359  0.4300 -0.2856  0.2676
15760TIP3    H168771   0.351   3.163  11.284  0.5188 -0.2041  0.2323
15760TIP3    H268772   0.343   3.162  11.435 -1.1927 -0.8495  0.1530
15761TIP3   OH268773   5.955   4.352  15.680 -0.8019  0.4521 -0.0286
15761TIP3    H168774   5.990   4.322  15.596 -1.5787 -0.4001 -0.0564
15761TIP3    H268775   5.861   4.355  15.668 -1.0009 -0.6085  1.1076
15762TIP3   OH268776   1.035   5.729  16.788 -0.4935 -0.0665  0.1108
15762TIP3    H168777   1.000   5.762  16.706 -0.7857  0.0738  0.2906
15762TIP3    H268778   0.979   5.767  16.855  1.6249  2.4179  0.6111
15763TIP3   OH268779   4.050   0.640  11.086  0.0314 -0.3043 -0.4697
15763TIP3    H168780   4.133   0.597  11.064  0.3578  1.1058 -2.2695
15763TIP3    H268781   3.996   0.628  11.008 -1.5884 -1.3928  0.7574
15764TIP3   OH268782   3.938   0.278   6.207 -0.1840 -0.2443 -0.4839
15764TIP3    H168783   3.980   0.345   6.153 -0.0449 -0.1957 -0.3148
15764TIP3    H268784   4.009   0.220   6.234  0.1425  0.9716  1.4836
15765TIP3   OH268785   2.048   3.328  14.137 -0.0157  0.0139  0.0499
15765TIP3    H168786   2.027   3.235  14.147 -0.0324 -0.0277 -0.3600
15765TIP3    H268787   2.080   3.355  14.223  0.3865 -0.4743  0.0542
15766TIP3   OH268788   5.545   2.620   3.571  0.3191  0.0632 -0.4797
15766TIP3    H168789   5.551   2.710   3.603 -1.2338  0.1564 -0.3616
15766TIP3    H268790   5.554   2.628   3.476  0.6936  0.2782 -0.4279
15767TIP3   OH268791   0.216   3.211  13.301  0.2000 -0.1749  0.9111
15767TIP3    H168792   0.190   3.286  13.248  0.4540 -2.0838 -2.1824
15767TIP3    H268793   0.311   3.208  13.294  0.1576 -1.0541  0.5223
15768TIP3   OH268794   6.612   2.557   0.127 -0.0737 -0.0192 -0.1913
15768TIP3    H168795   6.624   2.630   0.188 -1.0115 -0.7034  0.8534
15768TIP3    H268796   6.624   2.479   0.181  3.3462 -0.7456 -1.7523
15769TIP3   OH268797   5.848   6.548  11.866 -0.7222 -0.2922 -0.2559
15769TIP3    H168798   5.898   6.564  11.946  0.6993 -1.6476 -0.8355
15769TIP3    H268799   5.758   6.539  11.896 -0.9438  3.2818  0.6987
15770TIP3   OH268800   1.536   2.776  10.370 -0.0519  0.6849  0.2152
15770TIP3    H168801   1.521   2.681  10.378 -0.0467  0.6899  0.2847
15770TIP3    H268802   1.453   2.816  10.398  0.2518  0.7278  1.0949
15771TIP3   OH268803   1.420   3.979  14.797 -0.0460 -0.3656 -0.4079
15771TIP3    H168804   1.344   3.931  14.763 -0.7301 -0.3116  0.9857
15771TIP3    H268805   1.430   3.949  14.887  1.3920 -0.1130 -0.4538
15772TIP3   OH268806   4.134   0.182   2.337  0.1381  0.1848 -0.1519
15772TIP3    H168807   4.163   0.231   2.259 -0.6137  1.9604  0.6445
15772TIP3    H268808   4.181   0.222   2.409  1.0043 -1.6056  0.3454
15773TIP3   OH268809   5.411   3.245   4.380  0.0996  0.4354 -0.2952
15773TIP3    H168810   5.479   3.247   4.447 -1.4648  1.3930  1.3632
15773TIP3    H268811   5.348   3.180   4.412  0.5092 -0.9516 -2.1410
15774TIP3   OH268812   2.111   4.028  14.968  0.5778 -0.0138 -0.1265
15774TIP3    H168813   2.131   4.013  14.876 -0.2581  0.3105 -0.3722
15774TIP3    H268814   2.055   4.107  14.968  0.8308  0.1752  0.6806
15775TIP3   OH268815   5.321   1.709  16.910  0.2068 -0.8010  0.0779
15775TIP3    H168816   5.280   1.623  16.904 -0.9645 -0.1793 -3.0633
15775TIP3    H268817   5.256   1.770  16.875  1.5095  1.1749  0.8642
15776TIP3   OH268818   6.320   2.283  13.590  0.1869 -0.2576 -0.0943
15776TIP3    H168819   6.414   2.266  13.588  0.2971  0.2750  0.2001
15776TIP3    H268820   6.302   2.309  13.680 -0.0068  0.8569 -0.4332
15777TIP3   OH268821   3.828   3.356   1.706 -0.1953 -0.3806 -0.0568
15777TIP3    H168822   3.919   3.328   1.710 -0.7010 -2.1106  0.4983
15777TIP3    H268823   3.826   3.426   1.641  1.4347 -0.6947 -0.4753
15778TIP3   OH268824   4.384   4.757   4.568  0.1637 -0.0237 -0.3135
15778TIP3    H168825   4.441   4.811   4.623 -2.0455  0.6573  1.4485
15778TIP3    H268826   4.329   4.821   4.522 -0.8441 -0.6938 -0.0640
15779TIP3   OH268827   6.509   2.098  13.116  0.3133  0.3775 -0.2235
15779TIP3    H168828   6.547   2.137  13.038  0.3777  1.3846  0.2955
15779TIP3    H268829   6.415   2.111  13.107  0.4843  3.5088  1.3632
15780TIP3   OH268830   3.334   0.012  12.143  0.0216 -0.3720 -0.0217
15780TIP3    H168831   3.414   0.043  12.100  0.6737  0.9565  1.9877
15780TIP3    H268832   3.268   0.077  12.121 -0.1502 -0.7086 -0.5214
15781TIP3   OH268833   6.615   1.921  13.471 -0.3360  0.5000  0.8746
15781TIP3    H168834   6.580   1.865  13.540  1.0908 -1.5880 -0.0074
15781TIP3    H268835   6.652   1.996  13.518  0.4094 -0.7584  2.3936
15782TIP3   OH268836   2.258   2.488   0.964 -0.5174 -0.1710  0.0405
15782TIP3    H168837   2.209   2.412   0.933  0.7354 -0.4290 -1.4142
15782TIP3    H268838   2.347   2.473   0.934 -0.1955  1.7841 -0.0957
15783TIP3   OH268839   0.939   2.520  16.680  0.0193 -0.0828  0.3310
15783TIP3    H168840   0.916   2.495  16.770 -1.4375 -0.5387 -0.1446
15783TIP3    H268841   0.945   2.616  16.683 -0.3486 -0.0701  0.8461
15784TIP3   OH268842   1.003   1.982   3.580  0.5297  0.0300 -0.0508
15784TIP3    H168843   1.006   1.962   3.487  0.3645  1.4519 -0.3839
15784TIP3    H268844   0.928   1.934   3.613 -2.4589  3.2093 -1.6442
15785TIP3   OH268845   5.570   2.162  15.601 -0.2655  0.2417 -0.4959
15785TIP3    H168846   5.547   2.126  15.687 -0.0904  1.3131  0.0202
15785TIP3    H268847   5.507   2.122  15.541  0.0711 -1.0903 -0.0013
15786TIP3   OH268848   3.041   1.754  15.025  0.3250  0.2127 -0.4527
15786TIP3    H168849   3.023   1.759  14.931  1.7484 -1.1281 -0.8465
15786TIP3    H268850   3.136   1.769  15.031 -0.0072  2.0958  0.9755
15787TIP3   OH268851   5.251   3.874   3.052 -0.2922 -0.2083  0.4013
15787TIP3    H168852   5.225   3.861   2.961 -2.5211  2.6686  0.4737
15787TIP3    H268853   5.213   3.799   3.099  1.4735 -2.1000 -1.0116
15788TIP3   OH268854   0.813   1.486  14.851 -0.1771  0.0289 -0.4088
15788TIP3    H168855   0.739   1.545  14.841 -0.4855 -0.5047 -1.3788
15788TIP3    H268856   0.773   1.399  14.861  0.3042 -0.4943 -2.5512
15789TIP3   OH268857   1.355   6.339  13.876  0.2027 -0.5194 -0.0852
15789TIP3    H168858   1.439   6.346  13.831  0.9906 -0.9492  1.2448
15789TIP3    H268859   1.353   6.250  13.910  0.4507  0.2394  2.1331
15790TIP3   OH268860   5.736   4.187  13.512 -0.2636 -0.2597 -0.4593
15790TIP3    H168861   5.797   4.221  13.447  1.4143 -0.8664  0.7197
15790TIP3    H268862   5.790   4.133  13.570 -1.5368  0.6627  1.7444
15791TIP3   OH268863   3.692   6.577   0.150  0.2172 -0.4012 -0.8884
15791TIP3    H168864   3.752   6.615   0.215 -2.5436  1.7973  0.6302
15791TIP3    H268865   3.672   6.490   0.184  2.0632 -0.9712 -1.1595
15792TIP3   OH268866   6.607   1.251   0.871 -0.2967  0.0973 -0.3522
15792TIP3    H168867   6.695   1.290   0.874 -0.2084 -0.0545 -0.8045
15792TIP3    H268868   6.613   1.186   0.801 -1.0799  0.8564 -1.1435
15793TIP3   OH268869   4.183   0.274  13.163  0.6501 -0.1856  0.0001
15793TIP3    H168870   4.216   0.354  13.204  1.5567  0.2445 -1.4666
15793TIP3    H268871   4.262   0.226  13.137  0.1784  0.1425 -2.2359
15794TIP3   OH268872   1.513   4.488  14.354 -0.2218 -0.0021  0.0904
15794TIP3    H168873   1.436   4.507  14.407  0.7507 -0.0880  1.6042
15794TIP3    H268874   1.586   4.525  14.403  0.8941 -1.3759 -0.4425
15795TIP3   OH268875   4.058   3.180  13.018  0.7381  0.1828 -0.1463
15795TIP3    H168876   4.101   3.149  13.098  1.6965 -0.6982 -0.9781
15795TIP3    H268877   4.089   3.121  12.950 -0.2824  0.7524 -1.1324
15796TIP3   OH268878   2.070   5.511  11.517  0.3156 -0.0528 -0.2417
15796TIP3    H168879   2.089   5.417  11.506  0.7892 -0.3869  2.6490
15796TIP3    H268880   1.975   5.515  11.523  0.2991 -0.3899 -0.2209
15797TIP3   OH268881   4.572   2.751   3.375  0.5387  0.0779  0.2812
15797TIP3    H168882   4.596   2.772   3.284  1.2942  0.7403  0.6272
15797TIP3    H268883   4.548   2.659   3.372 -1.4900  0.5677 -1.0191
15798TIP3   OH268884   4.289   5.527  16.438  0.1779 -0.3940 -0.2298
15798TIP3    H168885   4.220   5.500  16.499  2.0483 -3.0040  0.9067
15798TIP3    H268886   4.343   5.588  16.490 -1.3091  1.9102 -1.2213
15799TIP3   OH268887   1.970   0.284   1.294  0.2013 -0.0264  0.1845
15799TIP3    H168888   2.061   0.285   1.325  0.4194 -0.9275 -0.4061
15799TIP3    H268889   1.937   0.198   1.318  0.0174 -0.3169 -1.0580
15800TIP3   OH268890   3.447   2.365   1.846  0.1723  0.2668  0.3632
15800TIP3    H168891   3.443   2.454   1.881  0.5000 -0.1547  1.4865
15800TIP3    H268892   3.359   2.349   1.812  0.8576  2.1194 -2.7078
15801TIP3   OH268893   5.260   5.057   3.870  0.1099  0.0166  0.3516
15801TIP3    H168894   5.272   4.968   3.838  2.8717  0.0517  1.0560
15801TIP3    H268895   5.184   5.051   3.929 -0.7949 -1.4526 -0.8753
15802TIP3   OH268896   4.134   3.923  12.585 -0.0530  0.2265  0.1577
15802TIP3    H168897   4.080   4.002  12.591  2.1232  1.7819  0.3625
15802TIP3    H268898   4.095   3.863  12.648 -0.4021  2.0227  1.7597
15803TIP3   OH268899   6.675   6.558  13.990 -0.3629 -0.3953  0.3465
15803TIP3    H168900   6.670   6.519  13.903 -3.2650  0.8010 -0.1466
15803TIP3    H268901   6.667   6.485  14.051 -0.3464 -1.0539 -0.4376
15804TIP3   OH268902   0.509   0.993   4.102  0.8417  0.2198  0.4063
15804TIP3    H168903   0.496   1.074   4.150  2.3985  0.1830  0.9477
15804TIP3    H268904   0.541   1.020   4.016 -1.1359  0.2461 -0.3927
15805TIP3   OH268905   0.471   4.066   4.053  0.0126  0.2862  0.3173
15805TIP3    H168906   0.473   4.117   4.134  0.7870  1.2987 -0.3026
15805TIP3    H268907   0.562   4.043   4.037 -0.4205 -2.2232  1.0936
15806TIP3   OH268908   5.441   2.281   5.993 -0.2801 -0.3896 -0.2122
15806TIP3    H168909   5.364   2.224   5.991  1.1129 -2.5033 -3.6111
15806TIP3    H268910   5.493   2.249   6.067 -1.0932 -1.2536  0.0048
15807TIP3   OH268911   5.572   0.567   2.074  0.0604 -0.0179 -0.0505
15807TIP3    H168912   5.542   0.657   2.066 -0.2722  0.2335  2.8552
15807TIP3    H268913   5.667   0.574   2.089  0.3912 -0.3234 -1.8351
15808TIP3   OH268914   2.686   3.499   6.522  0.0840  0.1266  0.7517
15808TIP3    H168915   2.691   3.426   6.460  1.1933  0.0032  0.9702
15808TIP3    H268916   2.668   3.575   6.468 -1.2856 -0.3126  0.5382
15809TIP3   OH268917   5.811   5.191  10.831 -0.3423  0.1191 -0.5689
15809TIP3    H168918   5.780   5.109  10.792 -1.3786  0.0458  0.3308
15809TIP3    H268919   5.736   5.250  10.825  0.3251  0.9519 -1.0144
15810TIP3   OH268920   0.550   5.506   3.831  0.0435  0.0018 -0.5978
15810TIP3    H168921   0.531   5.515   3.737  1.4467  2.5386 -0.7351
15810TIP3    H268922   0.471   5.539   3.874  0.6654  2.2405 -1.0213
15811TIP3   OH268923   4.778   1.770   2.475  0.1747  0.1627 -0.4272
15811TIP3    H168924   4.719   1.746   2.404  0.6850 -2.6423 -0.0580
15811TIP3    H268925   4.740   1.728   2.553  0.4860  1.7905  0.6538
15812TIP3   OH268926   2.177   1.652   4.442 -0.2191 -0.2493 -0.2207
15812TIP3    H168927   2.242   1.687   4.381  1.0893 -0.0094  1.2279
15812TIP3    H268928   2.099   1.640   4.390  0.2703  1.7179 -1.5315
15813TIP3   OH268929   4.934   2.976   1.981 -0.2701 -0.5897 -0.5480
15813TIP3    H168930   4.952   2.889   1.947  1.8807 -0.3837 -0.0499
15813TIP3    H268931   4.980   3.036   1.922 -2.2476  0.3072 -1.2742
15814TIP3   OH268932   3.591   4.641   4.299  0.2635  0.1267 -0.0704
15814TIP3    H168933   3.565   4.717   4.351 -0.9797 -0.6880  0.5209
15814TIP3    H268934   3.509   4.594   4.282  1.0760 -1.3792  0.0408
15815TIP3   OH268935   5.697   4.775   2.375 -0.3962  0.2295  0.0508
15815TIP3    H168936   5.761   4.767   2.446 -3.1856  1.8840  3.0179
15815TIP3    H268937   5.673   4.684   2.356  0.3924 -0.2817  1.2878
15816TIP3   OH268938   1.780   6.810  14.113  0.2828  0.5967  0.1556
15816TIP3    H168939   1.804   6.898  14.083  0.4408  0.4199 -0.2354
15816TIP3    H268940   1.768   6.820  14.208 -0.4131  1.1934  0.0102
15817TIP3   OH268941   4.866   4.590  10.305  0.0228  0.4648  0.1198
15817TIP3    H168942   4.843   4.545  10.224  2.8128  1.1475 -1.1508
15817TIP3    H268943   4.905   4.522  10.360  0.2791  0.4847 -0.0408
15818TIP3   OH268944   6.433   0.861  12.610 -0.4597 -0.5454  0.0085
15818TIP3    H168945   6.395   0.948  12.594  0.3531 -0.0466  0.6634
15818TIP3    H268946   6.415   0.843  12.702  0.1548 -0.6566  0.1174
15819TIP3   OH268947   5.273   1.340   3.178  0.3267  0.1528  0.1707
15819TIP3    H168948   5.303   1.289   3.103  0.2273 -1.2051  1.0191
15819TIP3    H268949   5.250   1.275   3.244 -0.1464  1.2951  1.1809
15820TIP3   OH268950   3.785   6.455   1.538  0.3807  0.6325  0.3651
15820TIP3    H168951   3.703   6.484   1.578  1.0964 -0.4291  2.7363
15820TIP3    H268952   3.852   6.511   1.576  0.9929  0.2725 -0.1491
15821TIP3   OH268953   4.275   3.982   3.812 -0.3487 -0.1176 -0.2787
15821TIP3    H168954   4.225   3.941   3.742 -1.2201 -2.0749  1.3795
15821TIP3    H268955   4.220   3.973   3.890  1.3554  0.2684  1.0453
15822TIP3   OH268956   5.640   6.803   1.282 -0.3958  0.1081  0.0477
15822TIP3    H168957   5.613   6.724   1.328 -0.1036  0.9997  1.8456
15822TIP3    H268958   5.560   6.854   1.271 -0.3430  0.2618  0.3466
15823TIP3   OH268959   2.715   3.885   4.604  0.1643 -0.0683  0.2915
15823TIP3    H168960   2.672   3.970   4.611  1.2229  0.8420 -2.6529
15823TIP3    H268961   2.669   3.841   4.532  1.1306 -1.0212  0.2328
15824TIP3   OH268962   3.361   3.075   3.008 -0.2068 -0.2196  0.3356
15824TIP3    H168963   3.433   3.056   3.069  1.9762  1.2264 -1.6016
15824TIP3    H268964   3.351   2.995   2.957  1.5639  0.1638 -0.7277
15825TIP3   OH268965   2.050   2.523  14.909  0.7055 -0.3699  0.1762
15825TIP3    H168966   1.968   2.485  14.941  0.4211 -0.4859 -0.6618
15825TIP3    H268967   2.104   2.532  14.987  1.4345 -4.0275  0.2926
15826TIP3   OH268968   4.363   1.731  11.865  0.0313 -0.2537 -0.8604
15826TIP3    H168969   4.343   1.780  11.945  1.5043 -0.1845 -0.4960
15826TIP3    H268970   4.334   1.642  11.885 -0.1169 -0.1176 -0.4493
15827TIP3   OH268971   4.983   3.470   3.720 -0.0170 -0.2461  1.1084
15827TIP3    H168972   5.040   3.401   3.754  0.4032  0.0781  1.0822
15827TIP3    H268973   5.028   3.551   3.744  0.5945 -0.0145 -0.6934
15828TIP3   OH268974   3.477   2.079   3.159 -0.1823 -0.5261  0.2597
15828TIP3    H168975   3.403   2.116   3.208  1.3303  2.4340  0.5361
15828TIP3    H268976   3.541   2.057   3.227 -0.1523 -1.5624 -0.0876
15829TIP3   OH268977   5.757   1.794  15.582 -0.6732  0.8232  0.3297
15829TIP3    H168978   5.787   1.772  15.494  1.0969  3.2376  0.2347
15829TIP3    H268979   5.836   1.792  15.636 -1.9383 -2.2624  2.3818
15830TIP3   OH268980   6.679   6.673   5.020  0.4338  0.1477  0.1393
15830TIP3    H168981   6.644   6.747   5.070  0.1400  1.0808 -1.4090
15830TIP3    H268982   6.618   6.601   5.039 -0.4855  0.8799  0.0299
15831TIP3   OH268983   5.102   2.431  16.363 -0.1837  0.6423 -0.3419
15831TIP3    H168984   5.074   2.358  16.307 -0.8157  1.0766 -0.6160
15831TIP3    H268985   5.101   2.507  16.305 -0.7138  1.0770  0.2234
15832TIP3   OH268986   5.003   5.856  11.491  0.7672 -0.4800  0.3624
15832TIP3    H168987   5.090   5.887  11.517  1.0041  0.0111 -0.9343
15832TIP3    H268988   5.018   5.767  11.458  0.1869 -1.8701  3.4585
15833TIP3   OH268989   6.445   6.298  12.343 -0.0373  0.2790  0.0674
15833TIP3    H168990   6.425   6.367  12.406  1.0484  0.8899 -0.2146
15833TIP3    H268991   6.498   6.235  12.392  1.3802  1.0871 -0.3504
15834TIP3   OH268992   4.245   2.247  11.506 -0.1741 -0.1420  0.3933
15834TIP3    H168993   4.186   2.264  11.579  0.1646 -1.6074  1.0440
15834TIP3    H268994   4.193   2.194  11.446 -0.4893  1.1483 -0.5200
15835TIP3   OH268995   4.086   5.565   0.673  0.6865  0.2296 -0.6797
15835TIP3    H168996   4.009   5.517   0.704 -0.1473  1.4836 -0.7003
15835TIP3    H268997   4.126   5.601   0.752  0.2516  0.9997 -0.8046
15836TIP3   OH268998   3.848   0.442  12.355  0.4163  0.0599 -0.2996
15836TIP3    H168999   3.923   0.499  12.338  1.0756  0.1212  2.2735
15836TIP3    H269000   3.815   0.472  12.440  0.4141 -2.9474  0.8718
15837TIP3   OH269001   1.982   2.883  16.907 -0.1160  0.3608  0.2196
15837TIP3    H169002   1.922   2.912  16.975 -0.1130  0.6400  0.1041
15837TIP3    H269003   1.930   2.823  16.854  0.1990 -0.7404  1.1176
15838TIP3   OH269004   4.818   3.240  12.815 -0.4541 -0.4581  0.0012
15838TIP3    H169005   4.872   3.189  12.876 -0.1328 -0.2151 -0.0805
15838TIP3    H269006   4.755   3.284  12.872  1.7825  2.2776  0.5630
15839TIP3   OH269007   0.113   0.956  12.425 -0.0412 -0.0556 -0.4496
15839TIP3    H169008   0.048   0.909  12.372 -1.5310  1.3978  0.0102
15839TIP3    H269009   0.099   0.923  12.514  0.8625 -0.7786 -0.5585
15840TIP3   OH269010   2.768   5.607   1.457  0.1622  0.4268  0.2521
15840TIP3    H169011   2.806   5.694   1.441  0.2592  0.5092  0.8727
15840TIP3    H269012   2.713   5.620   1.534 -0.9991  0.2665 -0.5327
15841TIP3   OH269013   0.136   4.735   0.134 -0.7195  0.2822  0.3227
15841TIP3    H169014   0.180   4.686   0.065 -1.5086  1.5545 -1.1347
15841TIP3    H269015   0.183   4.818   0.139 -0.9834  0.3998  0.9834
15842TIP3   OH269016   4.675   1.628  16.052 -0.5697 -0.2461 -0.1426
15842TIP3    H169017   4.666   1.652  16.144 -0.9655 -0.1742 -0.1973
15842TIP3    H269018   4.588   1.645  16.015 -0.4058 -0.2521 -0.5336
15843TIP3   OH269019   0.810   3.363   3.681 -0.5253  0.6378  0.0142
15843TIP3    H169020   0.866   3.421   3.630  2.9084 -2.3020 -0.0182
15843TIP3    H269021   0.788   3.292   3.621 -2.4698  0.5491  0.7349
15844TIP3   OH269022   1.770   4.850   0.458 -0.3085  0.0299 -1.2484
15844TIP3    H169023   1.723   4.920   0.412 -0.2268  1.0860  0.1815
15844TIP3    H269024   1.862   4.869   0.443 -0.2882 -0.8113 -2.2961
15845TIP3   OH269025   6.100   3.246  14.778 -0.0178  0.0311 -0.4215
15845TIP3    H169026   6.152   3.314  14.821 -0.1681  0.1827 -0.4750
15845TIP3    H269027   6.086   3.281  14.689 -2.0497  1.0113  0.2228
15846TIP3   OH269028   5.907   4.594  13.647 -0.0029  0.6594 -0.7356
15846TIP3    H169029   5.975   4.528  13.642 -0.1559  0.4944 -0.6577
15846TIP3    H269030   5.921   4.637  13.731 -1.4131 -0.9420  0.3932
15847TIP3   OH269031   3.816   2.579  15.417 -0.5358  0.7461 -0.1002
15847TIP3    H169032   3.894   2.579  15.363 -0.0894 -0.9140  0.4911
15847TIP3    H269033   3.838   2.635  15.491  0.4118 -0.3123  0.4536
15848TIP3   OH269034   3.165   4.712  11.937  0.8072  0.3467  0.6817
15848TIP3    H169035   3.094   4.764  11.974 -0.7805 -0.6831 -0.7242
15848TIP3    H269036   3.138   4.697  11.846  1.8907 -1.6761  0.6433
15849TIP3   OH269037   0.852   5.406  12.886  0.1522 -0.2806  0.0942
15849TIP3    H169038   0.902   5.487  12.897  0.9849 -0.5264 -1.4756
15849TIP3    H269039   0.914   5.346  12.844 -0.2191 -1.9882  1.8542
15850TIP3   OH269040   1.561   0.054  15.796  0.2885  0.5174  0.4899
15850TIP3    H169041   1.630  -0.012  15.808 -0.5772 -0.2994  1.1147
15850TIP3    H269042   1.564   0.107  15.876 -0.0489  0.2494  0.6812
15851TIP3   OH269043   5.779   6.619   6.186 -0.7791  0.2639  0.1794
15851TIP3    H169044   5.806   6.704   6.221 -0.4340  0.8368 -1.4059
15851TIP3    H269045   5.740   6.639   6.101  0.9124 -1.3015 -1.0388
15852TIP3   OH269046   2.047   0.670  15.009  0.7601  0.1474  0.0256
15852TIP3    H169047   2.005   0.599  14.961 -0.1235  0.1038  0.8410
15852TIP3    H269048   2.121   0.629  15.053  1.6295  0.2053 -1.3342
15853TIP3   OH269049   3.066   4.107  12.512  0.0634  0.6883  0.4051
15853TIP3    H169050   3.124   4.117  12.437  0.9986  1.4266  1.2013
15853TIP3    H269051   3.125   4.100  12.587 -0.8597  1.6652  1.2577
15854TIP3   OH269052   5.496   6.235   3.423  0.5491  0.9721  0.5126
15854TIP3    H169053   5.587   6.206   3.433 -0.4106 -2.7724  0.0623
15854TIP3    H269054   5.465   6.186   3.347 -1.6764  2.7524  0.1909
15855TIP3   OH269055   0.944   1.698  14.119  0.2817 -0.1724 -0.3777
15855TIP3    H169056   0.878   1.763  14.095 -1.5637 -1.9282 -0.2015
15855TIP3    H269057   0.966   1.654  14.037  3.2127  1.9923 -0.9578
15856TIP3   OH269058   0.746   0.952   1.149  0.3750 -0.1362  0.1131
15856TIP3    H169059   0.760   0.985   1.061  1.9393  0.3564  0.5096
15856TIP3    H269060   0.783   0.864   1.148  0.2694 -0.1827  0.2392
15857TIP3   OH269061   0.323   5.431   5.312 -0.0772  0.9646 -0.0746
15857TIP3    H169062   0.259   5.386   5.367  0.0736 -0.5432 -1.0634
15857TIP3    H269063   0.357   5.502   5.367 -1.6505  1.0032  0.9108
15858TIP3   OH269064   1.551   1.204   2.238 -0.1385  0.0120 -0.3557
15858TIP3    H169065   1.608   1.156   2.298 -0.0825  0.5120  0.0039
15858TIP3    H269066   1.463   1.172   2.257 -0.0251 -0.4972 -0.6579
15859TIP3   OH269067   3.774   5.306   4.107  0.0281  0.3832 -0.6459
15859TIP3    H169068   3.680   5.310   4.127  0.0361  0.0312 -0.5329
15859TIP3    H269069   3.805   5.396   4.119 -0.2776  0.4847 -0.6026
15860TIP3   OH269070   2.422   4.479  11.782 -0.0557  0.3973 -0.0204
15860TIP3    H169071   2.348   4.421  11.803  0.8445 -0.9102 -0.3961
15860TIP3    H269072   2.391   4.530  11.707 -0.0907 -1.1882 -1.1485
15861TIP3   OH269073   2.322   2.564  15.102  0.1849  0.4712 -0.0481
15861TIP3    H169074   2.380   2.549  15.177  0.2925  0.5407 -0.1167
15861TIP3    H269075   2.348   2.650  15.069  0.7607  0.0483 -0.7235
15862TIP3   OH269076   0.266   4.350  17.088 -0.1954  0.2187 -0.0187
15862TIP3    H169077   0.307   4.289  17.026 -0.6152 -1.4028  1.2289
15862TIP3    H269078   0.273   4.435  17.045  2.9703 -0.2009 -0.6349
15863TIP3   OH269079   4.445   4.970   4.758 -0.1698  0.0108 -0.2261
15863TIP3    H169080   4.361   5.007   4.782 -0.2442 -0.6466  0.5706
15863TIP3    H269081   4.510   5.028   4.798 -0.1133  1.8948 -2.7609
15864TIP3   OH269082   1.677   5.790   1.320 -0.2734 -0.0250 -0.4757
15864TIP3    H169083   1.675   5.722   1.388 -1.0749 -0.8141 -1.2518
15864TIP3    H269084   1.662   5.742   1.239 -1.3220  1.1378 -0.9999
15865TIP3   OH269085   3.320   1.196  16.253 -0.7002 -0.4584  0.0058
15865TIP3    H169086   3.383   1.209  16.183 -0.8238  2.2630  0.2938
15865TIP3    H269087   3.364   1.139  16.316  0.4831 -0.6496 -0.9703
15866TIP3   OH269088   2.271   2.017   3.259 -0.0852 -0.4091  0.6415
15866TIP3    H169089   2.299   1.928   3.282  0.4739  0.0412  1.8288
15866TIP3    H269090   2.316   2.036   3.177 -1.0272 -1.5769 -0.1988
15867TIP3   OH269091   5.562   2.215  16.622  0.3065 -0.0715  0.4904
15867TIP3    H169092   5.539   2.172  16.540 -0.8992  1.3503  0.0576
15867TIP3    H269093   5.630   2.278  16.598 -0.2387  0.5350  0.5277
15868TIP3   OH269094   2.401   1.395   4.451 -0.0029 -0.4153  0.4342
15868TIP3    H169095   2.466   1.383   4.520  1.9467 -1.5566 -1.4945
15868TIP3    H269096   2.325   1.346   4.481 -0.0386  0.8728  2.6958
15869TIP3   OH269097   3.020   4.167   3.437  0.7245 -0.3665  0.3884
15869TIP3    H169098   2.971   4.093   3.472 -0.7908 -0.0971 -1.0138
15869TIP3    H269099   3.039   4.221   3.513 -0.0904 -1.1062  1.1537
15870TIP3   OH269100   2.376   1.842   3.632 -0.1523 -0.1757  0.6394
15870TIP3    H169101   2.352   1.844   3.540 -0.2683 -1.1793  0.6393
15870TIP3    H269102   2.471   1.836   3.633 -0.1311  0.1310  0.5948
15871TIP3   OH269103   2.330   1.863   6.661  0.6277  0.5456  0.4064
15871TIP3    H169104   2.249   1.820   6.635  0.6466  0.3259  0.7038
15871TIP3    H269105   2.393   1.791   6.670  0.8750  0.7220  0.1063
15872TIP3   OH269106   3.811   6.201   1.467  0.1066 -0.0767 -0.1689
15872TIP3    H169107   3.740   6.148   1.504 -1.9738 -0.2339 -3.8776
15872TIP3    H269108   3.789   6.291   1.490 -0.4338 -0.2598  0.0339
15873TIP3   OH269109   6.114   6.455   5.343 -0.4343  1.2318  0.6636
15873TIP3    H169110   6.097   6.501   5.261  0.4298  0.4482  0.0161
15873TIP3    H269111   6.208   6.438   5.342 -0.7913 -1.1676  0.4955
15874TIP3   OH269112   3.390   1.572  13.614 -0.5268 -0.1590  0.0889
15874TIP3    H169113   3.357   1.620  13.690 -0.2476 -0.4488  0.3969
15874TIP3    H269114   3.314   1.565  13.556 -0.3800  1.3115 -0.3036
15875TIP3   OH269115   3.172   3.560   5.483  0.6646 -0.1023  0.2310
15875TIP3    H169116   3.136   3.476   5.451 -1.9396  1.2137 -0.6280
15875TIP3    H269117   3.120   3.579   5.561  1.2115  0.7315  0.3906
15876TIP3   OH269118   3.859   0.097   2.370 -0.3789 -0.6078 -0.0926
15876TIP3    H169119   3.858   0.015   2.321 -1.1141 -0.6180 -0.0808
15876TIP3    H269120   3.951   0.112   2.390 -0.0117 -0.3758 -1.8316
15877TIP3   OH269121   5.615   5.442  11.722  0.0545  0.3397 -0.0960
15877TIP3    H169122   5.586   5.390  11.646  3.3427 -1.6104 -0.2274
15877TIP3    H269123   5.638   5.527  11.685  0.8072 -0.3027 -1.1713
15878TIP3   OH269124   5.761   0.641   5.230  0.5100  0.0079 -0.5961
15878TIP3    H169125   5.751   0.709   5.297 -1.0004 -0.5543 -0.2017
15878TIP3    H269126   5.711   0.673   5.155 -0.2367 -0.6442 -0.3996
15879TIP3   OH269127   5.744   4.342  15.061 -0.0269 -0.3691 -0.2339
15879TIP3    H169128   5.732   4.249  15.039 -1.7808 -0.1614 -0.3233
15879TIP3    H269129   5.670   4.362  15.118  1.8978  0.2910  2.1896
15880TIP3   OH269130   2.073   0.874   1.247 -0.7800 -0.1494 -0.3103
15880TIP3    H169131   2.030   0.910   1.169  1.5341  0.4974 -1.4104
15880TIP3    H269132   2.113   0.951   1.289  0.6039 -0.8763 -0.2528
15881TIP3   OH269133   0.506   6.323  15.343  0.3362  0.0706  0.3468
15881TIP3    H169134   0.459   6.289  15.420  0.6134 -2.2546 -0.4546
15881TIP3    H269135   0.520   6.247  15.288  2.4043  1.2536 -0.8542
15882TIP3   OH269136   2.540   5.845   3.128 -0.3508  0.1005  0.4016
15882TIP3    H169137   2.616   5.828   3.073 -0.8330 -0.2614 -0.1687
15882TIP3    H269138   2.467   5.801   3.083 -0.8694  0.3144  1.0095
15883TIP3   OH269139   4.696   2.785   0.772 -0.2092  0.0293 -0.4043
15883TIP3    H169140   4.756   2.712   0.756  0.6893  0.4896  0.7135
15883TIP3    H269141   4.659   2.804   0.686  1.2528 -0.2775 -1.1482
15884TIP3   OH269142   5.868   0.442   2.285 -0.2402  0.6907 -0.0466
15884TIP3    H169143   5.862   0.538   2.287  0.5519  0.7579 -0.5883
15884TIP3    H269144   5.960   0.424   2.267 -0.3743 -0.1770  0.1181
15885TIP3   OH269145   2.578   4.768  16.572  0.4244  0.2354  0.3198
15885TIP3    H169146   2.562   4.807  16.658 -2.2640  1.0359 -0.4538
15885TIP3    H269147   2.664   4.800  16.547  1.9630 -1.1866  3.2801
15886TIP3   OH269148   4.332   1.119  16.714 -0.0733 -0.0296 -0.1990
15886TIP3    H169149   4.273   1.047  16.737 -1.1528  1.2712  1.3371
15886TIP3    H269150   4.408   1.077  16.676 -1.1216 -1.9075 -0.3277
15887TIP3   OH269151   1.740   3.200   4.213 -0.7663 -0.6510 -0.7492
15887TIP3    H169152   1.743   3.226   4.305  0.9161 -1.5195 -0.5248
15887TIP3    H269153   1.652   3.165   4.201 -0.8879 -0.8989  0.6503
15888TIP3   OH269154   6.257   5.212  14.194 -0.9408  0.6435 -0.1482
15888TIP3    H169155   6.190   5.155  14.158 -3.4441  3.7474 -0.8960
15888TIP3    H269156   6.243   5.210  14.288  0.3994 -1.4375  0.0686
15889TIP3   OH269157   0.134   5.064   4.444 -0.3283 -0.0968  0.1362
15889TIP3    H169158   0.091   5.149   4.443 -1.4222 -0.5645 -2.5604
15889TIP3    H269159   0.068   5.004   4.477 -0.0152 -0.1311  0.7248
15890TIP3   OH269160   0.206   4.489  14.884 -0.3924  0.1306 -0.3362
15890TIP3    H169161   0.227   4.396  14.879  2.4379  0.4607  2.2210
15890TIP3    H269162   0.162   4.500  14.968  0.3789  1.2247 -0.0548
15891TIP3   OH269163   3.098   6.766  12.025  0.1235  0.0719  0.3110
15891TIP3    H169164   3.048   6.702  12.076 -0.0983 -0.3084 -0.3685
15891TIP3    H269165   3.188   6.756  12.056  0.2642 -1.2608 -0.4462
15892TIP3   OH269166   6.583   6.173   1.758 -0.1681 -0.0757 -0.0926
15892TIP3    H169167   6.509   6.202   1.811  0.5405  0.0722  0.8442
15892TIP3    H269168   6.556   6.090   1.721 -0.7561 -0.0828  0.3495
15893TIP3   OH269169   4.826   2.117  17.156 -0.5767  0.4282  0.2703
15893TIP3    H169170   4.737   2.117  17.192 -0.9862  0.9929 -0.7070
15893TIP3    H269171   4.819   2.167  17.075  0.3010 -0.9530 -0.6838
15894TIP3   OH269172   3.396   4.290  16.162  0.2281 -0.4915 -0.4138
15894TIP3    H169173   3.326   4.344  16.199  0.0630  0.1385 -1.6111
15894TIP3    H269174   3.454   4.273  16.236 -1.3256 -1.2769  0.6716
15895TIP3   OH269175   4.799   6.457  16.911  0.3463  0.0123 -0.3574
15895TIP3    H169176   4.819   6.517  16.839  0.4282 -0.8064 -1.0299
15895TIP3    H269177   4.785   6.372  16.869  1.7335 -0.7828  0.6951
15896TIP3   OH269178   3.827   6.036  15.861 -0.8524 -0.5168  0.3325
15896TIP3    H169179   3.813   6.097  15.788 -0.1521 -0.1138  0.5240
15896TIP3    H269180   3.859   6.091  15.932 -1.0574 -0.9835  0.7942
15897TIP3   OH269181   5.914   0.452  16.202 -0.0608 -0.4488  0.1768
15897TIP3    H169182   6.007   0.454  16.178  0.0033 -0.7982  0.3871
15897TIP3    H269183   5.909   0.508  16.279 -0.6020  2.2849 -1.7083
15898TIP3   OH269184   5.530   2.497  10.882 -0.2343 -0.5337 -0.3487
15898TIP3    H169185   5.585   2.448  10.943 -2.3578 -0.0100  2.1734
15898TIP3    H269186   5.587   2.566  10.849  1.1763 -1.1923  0.5976
15899TIP3   OH269187   3.283   1.580  11.572 -0.1528  0.6102  0.3903
15899TIP3    H169188   3.276   1.500  11.624 -1.0062  0.3797 -0.0439
15899TIP3    H269189   3.334   1.641  11.625 -1.0621  0.4089  1.5164
15900TIP3   OH269190   4.900   5.726  10.676  0.0910 -0.7907  0.3002
15900TIP3    H169191   4.878   5.634  10.665 -1.1079 -0.4059 -0.7462
15900TIP3    H269192   4.931   5.733  10.767 -0.4746 -2.0816  0.6108
15901TIP3   OH269193   0.631   3.479   5.707 -0.8444 -0.4019 -0.2992
15901TIP3    H169194   0.649   3.401   5.654 -0.7734 -0.4028 -0.2745
15901TIP3    H269195   0.566   3.528   5.656  2.0509  1.5988 -2.4419
15902TIP3   OH269196   0.958   0.780   5.953  0.5881  0.2504 -0.0590
15902TIP3    H169197   0.868   0.800   5.977  0.5862  0.0630  0.0875
15902TIP3    H269198   0.990   0.724   6.023  0.6831 -0.0386 -0.3315
15903TIP3   OH269199   3.387   1.597   5.857  0.0124 -0.1287  0.3512
15903TIP3    H169200   3.364   1.519   5.807  0.4237 -1.5104  2.2242
15903TIP3    H269201   3.343   1.586   5.941  1.3085  0.8961  1.2150
15904TIP3   OH269202   5.937   4.640   0.335  0.2279 -0.0336  0.1858
15904TIP3    H169203   5.985   4.652   0.253  1.9042 -2.0165  0.7791
15904TIP3    H269204   5.846   4.663   0.314  0.4048 -1.4527 -2.4993
15905TIP3   OH269205   4.561   4.203   2.418  0.0945  0.4109  0.6577
15905TIP3    H169206   4.546   4.196   2.324  2.5627  2.7833 -0.0285
15905TIP3    H269207   4.488   4.256   2.450 -0.5348 -0.0638  0.0470
15906TIP3   OH269208   1.688   4.175   1.341  0.5220  0.2729 -0.0926
15906TIP3    H169209   1.662   4.162   1.250 -0.1014  0.7489  0.0125
15906TIP3    H269210   1.621   4.232   1.378  0.9765  0.4023  0.5631
15907TIP3   OH269211   5.448   4.727   5.209 -1.0106  0.0053  0.0068
15907TIP3    H169212   5.535   4.729   5.250 -1.0763 -1.1071  0.2279
15907TIP3    H269213   5.412   4.642   5.233 -0.8156 -0.9923 -2.8092
15908TIP3   OH269214   6.032   5.507   1.457  0.4298  0.0282 -0.1868
15908TIP3    H169215   6.115   5.475   1.491  0.3534  1.6702  1.7566
15908TIP3    H269216   5.991   5.431   1.416  2.8403 -0.8197 -1.1460
15909TIP3   OH269217   3.660   6.433   5.150  0.2927 -0.3393  0.5615
15909TIP3    H169218   3.627   6.517   5.119 -1.2830 -1.9527 -2.5855
15909TIP3    H269219   3.738   6.417   5.097  0.9705 -0.6097  1.6082
15910TIP3   OH269220   4.903   2.519   3.039 -0.4147  0.1840 -0.2341
15910TIP3    H169221   4.810   2.501   3.027 -0.9921  2.2346  0.6730
15910TIP3    H269222   4.943   2.500   2.954 -1.6490 -0.6742 -0.6400
15911TIP3   OH269223   5.490   4.716  12.181 -0.5566  0.1876  0.2053
15911TIP3    H169224   5.492   4.625  12.153  2.0215  0.8604 -2.2167
15911TIP3    H269225   5.399   4.743  12.168 -1.0339 -1.6319 -0.4350
15912TIP3   OH269226   6.687   1.781   3.612  0.3152  0.4620 -0.0481
15912TIP3    H169227   6.772   1.757   3.575  0.0031  1.3981 -1.4631
15912TIP3    H269228   6.665   1.709   3.671  1.7033 -0.1967 -0.2983
15913TIP3   OH269229   5.349   0.863  11.666 -0.3717 -0.9087  0.1948
15913TIP3    H169230   5.274   0.912  11.699 -0.4783 -0.5460 -0.5711
15913TIP3    H269231   5.312   0.779  11.639 -0.2443 -1.3034  1.1961
15914TIP3   OH269232   4.584   5.632  13.301 -0.5007  0.1624  0.0394
15914TIP3    H169233   4.635   5.712  13.316 -0.0255 -0.0633 -0.3277
15914TIP3    H269234   4.493   5.657  13.320 -0.0796  0.1398  2.2584
15915TIP3   OH269235   5.428   5.367  11.489  0.1393  0.1360 -0.3340
15915TIP3    H169236   5.373   5.375  11.566 -1.0763  1.9508 -1.3103
15915TIP3    H269237   5.369   5.382  11.415  1.4822 -0.3498 -1.5653
15916TIP3   OH269238   2.020   4.557   1.086  0.2417  0.0182  0.1126
15916TIP3    H169239   2.112   4.529   1.079 -0.0682 -1.3274  1.0776
15916TIP3    H269240   1.970   4.476   1.086 -0.9093  0.7058  0.2802
15917TIP3   OH269241   0.979   3.360  15.912 -0.1692 -0.0822 -0.0787
15917TIP3    H169242   0.987   3.385  16.004  1.8146  0.0296 -0.2450
15917TIP3    H269243   0.890   3.326  15.904 -0.6163  0.5871  1.7071
15918TIP3   OH269244   3.614   1.823  16.133 -0.0861  0.3580 -0.0647
15918TIP3    H169245   3.534   1.856  16.175  1.8604  2.7969  2.0779
15918TIP3    H269246   3.656   1.901  16.097  0.6380 -1.0883 -2.5722
15919TIP3   OH269247   5.675   1.608   1.689  0.3517  1.0030  0.5782
15919TIP3    H169248   5.726   1.583   1.766  0.3547  1.4158  0.7135
15919TIP3    H269249   5.738   1.652   1.632  0.4473  0.3274  0.1477
15920TIP3   OH269250   3.219   4.121   2.401  0.1147  0.1505 -0.0507
15920TIP3    H169251   3.146   4.176   2.427 -0.9127 -1.1053 -0.1517
15920TIP3    H269252   3.294   4.153   2.452 -0.1416  2.3521 -0.9699
15921TIP3   OH269253   2.260   3.422   1.883 -0.3716  0.0258  0.4187
15921TIP3    H169254   2.343   3.470   1.892  0.0843 -0.5894 -0.4094
15921TIP3    H269255   2.281   3.349   1.825 -2.3627  1.9748 -3.0507
15922TIP3   OH269256   0.813   2.399   5.194  0.2621  0.2395 -0.5882
15922TIP3    H169257   0.733   2.407   5.142  0.7546  0.9439 -1.2577
15922TIP3    H269258   0.806   2.469   5.259 -0.7775 -1.1894  0.9370
15923TIP3   OH269259   3.986   2.803   4.374 -0.1482 -0.3013  0.0580
15923TIP3    H169260   4.073   2.840   4.388 -0.1775 -0.7747  1.8275
15923TIP3    H269261   4.002   2.711   4.352 -0.1728 -0.1252 -0.6979
15924TIP3   OH269262   0.041   0.087   4.120  0.6517  0.5509  0.4491
15924TIP3    H169263   0.012   0.135   4.197  1.0295  2.2852 -0.4432
15924TIP3    H269264   0.049   0.153   4.052 -1.3674 -1.1765 -1.6178
15925TIP3   OH269265   3.989   2.752  11.338 -0.5833 -0.5479  0.4710
15925TIP3    H169266   3.968   2.679  11.279  1.2735 -1.0470  0.3744
15925TIP3    H269267   4.073   2.785  11.307 -0.5687  0.5356  1.5817
15926TIP3   OH269268   3.419   5.330  14.628 -0.1202  0.4411 -0.0872
15926TIP3    H169269   3.337   5.329  14.678 -1.4514 -1.0154 -2.1499
15926TIP3    H269270   3.486   5.307  14.693 -2.1594 -5.0026  0.6284
15927TIP3   OH269271   3.144   3.049   3.595  0.6785 -0.6631 -0.1218
15927TIP3    H169272   3.116   2.961   3.621 -0.9695 -0.3326 -0.6959
15927TIP3    H269273   3.134   3.050   3.500 -0.1363  0.4204 -0.0344
15928TIP3   OH269274   1.326   1.481   5.917  0.5591  0.3855  0.0750
15928TIP3    H169275   1.318   1.394   5.956  0.8828 -0.0395 -0.7732
15928TIP3    H269276   1.391   1.470   5.848 -1.8160  0.4298 -2.3779
15929TIP3   OH269277   1.463   0.838  11.228  0.1013 -0.1703 -0.2664
15929TIP3    H169278   1.464   0.742  11.222 -0.5524 -0.4253  2.3839
15929TIP3    H269279   1.498   0.867  11.144 -0.2309 -2.7094 -1.3916
15930TIP3   OH269280   5.989   5.074  12.046 -0.0434 -0.4663 -0.2837
15930TIP3    H169281   6.041   4.998  12.019  0.3412  0.2988 -1.7904
15930TIP3    H269282   5.923   5.037  12.105  0.0123 -2.0254 -1.1251
15931TIP3   OH269283   3.154   3.846   2.117  0.0193 -0.3648 -0.5440
15931TIP3    H169284   3.062   3.857   2.143  0.6757  1.6456  1.1755
15931TIP3    H269285   3.174   3.755   2.140 -1.4446 -0.7657 -0.7002
15932TIP3   OH269286   5.718   4.458   6.663 -0.0742  0.2174 -0.5853
15932TIP3    H169287   5.625   4.482   6.673 -0.2436 -1.4437  4.1884
15932TIP3    H269288   5.719   4.396   6.591 -2.8589 -0.3553 -0.2503
15933TIP3   OH269289   4.948   5.548   0.446  0.5683 -0.1082  0.4790
15933TIP3    H169290   5.018   5.590   0.396 -0.8607  2.2440  0.2919
15933TIP3    H269291   4.877   5.537   0.383 -0.6424  1.3159  1.5171
15934TIP3   OH269292   2.492   2.561   5.685  0.0049 -0.2486 -0.3249
15934TIP3    H169293   2.576   2.523   5.712 -0.4583 -0.6694  0.5772
15934TIP3    H269294   2.427   2.496   5.711 -0.5886 -0.0734 -1.3053
15935TIP3   OH269295   0.036   1.216   3.391 -0.2418 -1.2488  0.3131
15935TIP3    H169296  -0.038   1.273   3.408 -0.4749 -1.6428  0.6393
15935TIP3    H269297   0.006   1.157   3.321  0.6801  0.3012 -1.4743
15936TIP3   OH269298   4.672   3.552  10.623  0.3717  0.0073  0.2633
15936TIP3    H169299   4.649   3.622  10.562  0.7664  0.2780  0.4252
15936TIP3    H269300   4.620   3.571  10.702 -0.0478 -0.2762  0.0593
15937TIP3   OH269301   5.256   6.023  13.742 -0.4266 -0.4712 -0.0859
15937TIP3    H169302   5.222   6.080  13.673 -1.7090 -1.1727 -0.0674
15937TIP3    H269303   5.285   6.083  13.811 -0.1370  0.2025 -0.7887
15938TIP3   OH269304   5.805   0.975   2.046  0.1873 -0.5320 -0.2950
15938TIP3    H169305   5.759   0.935   1.972 -2.2481  0.6705  0.4644
15938TIP3    H269306   5.805   1.068   2.026  1.1927 -0.3780  0.3638
15939TIP3   OH269307   3.142   5.726  14.455 -0.0733  0.0258  0.1815
15939TIP3    H169308   3.230   5.718  14.492  0.1807 -0.8969 -0.5874
15939TIP3    H269309   3.102   5.798  14.504  1.2228  0.6983  0.3046
15940TIP3   OH269310   4.460   3.683  11.802 -0.7139 -0.4372 -0.3735
15940TIP3    H169311   4.402   3.715  11.871 -0.1480 -0.8898  0.3208
15940TIP3    H269312   4.547   3.685  11.841 -0.2998 -0.0866 -1.2915
15941TIP3   OH269313   4.479   4.334  14.631 -0.3031 -0.9347  0.0284
15941TIP3    H169314   4.427   4.412  14.614 -0.7184 -1.7185 -2.7851
15941TIP3    H269315   4.419   4.273  14.674 -0.5684 -0.4703  0.3249
15942TIP3   OH269316   3.129   2.402  16.054 -0.4158 -0.3957  0.6430
15942TIP3    H169317   3.160   2.311  16.050 -1.7297 -0.8490 -0.1854
15942TIP3    H269318   3.078   2.413  15.974  0.7161  1.4883  0.1136
15943TIP3   OH269319   5.096   6.569   6.556 -0.2840 -0.0872  0.6239
15943TIP3    H169320   5.022   6.510   6.572 -1.4566  0.7822 -1.2040
15943TIP3    H269321   5.173   6.512   6.557 -0.9348 -1.0329  2.4889
15944TIP3   OH269322   6.352   2.189  12.402  0.3953  0.2702  0.5409
15944TIP3    H169323   6.388   2.194  12.313 -0.2049  0.8051  0.3171
15944TIP3    H269324   6.262   2.159  12.390  0.8512 -1.4635  1.1260
15945TIP3   OH269325   2.889   5.528   3.792  0.3240  0.1888 -0.4811
15945TIP3    H169326   2.892   5.596   3.725  0.8832 -0.6684 -1.3403
15945TIP3    H269327   2.796   5.517   3.811  0.0779 -0.3713 -1.9571
15946TIP3   OH269328   1.091   1.253  13.398  0.0025  0.4124  0.1914
15946TIP3    H169329   1.037   1.212  13.331 -0.2379  1.4410 -0.2643
15946TIP3    H269330   1.072   1.346  13.390  1.7332  0.7844  0.1242
15947TIP3   OH269331   3.154   6.707   1.161  0.0808  0.5009 -0.1159
15947TIP3    H169332   3.187   6.797   1.173 -0.4737  0.7905 -0.7091
15947TIP3    H269333   3.085   6.716   1.095  0.2056 -0.4091 -0.3745
15948TIP3   OH269334   4.831   1.012  16.252  0.5746  0.1131 -1.0137
15948TIP3    H169335   4.836   1.039  16.344 -0.4007 -1.7363 -0.3655
15948TIP3    H269336   4.914   1.039  16.214  1.7918 -0.7474  0.8988
15949TIP3   OH269337   2.244   5.962  13.031 -0.2839 -0.1084 -0.4914
15949TIP3    H169338   2.199   5.943  12.949 -0.2358 -0.6945 -0.3879
15949TIP3    H269339   2.248   5.878  13.076  0.2175  0.0926 -0.1491
15950TIP3   OH269340   5.908   0.728   5.962 -0.1993  0.1818  0.1418
15950TIP3    H169341   5.962   0.720   5.884  0.2641 -0.4290  0.5222
15950TIP3    H269342   5.818   0.717   5.930 -0.0875  0.8644 -0.4363
15951TIP3   OH269343   6.808   2.421   1.416  0.3132  0.8806  0.2527
15951TIP3    H169344   6.758   2.502   1.428  0.3998  0.8398  0.9173
15951TIP3    H269345   6.824   2.389   1.504  1.4154  0.8303  0.0449
15952TIP3   OH269346   2.582   0.977   2.413  0.2499  0.0133 -0.0124
15952TIP3    H169347   2.531   0.911   2.459 -2.2291  1.5356 -0.3853
15952TIP3    H269348   2.640   1.014   2.480 -0.7944 -0.2141  1.0490
15953TIP3   OH269349   0.358   3.703   0.964  0.0675  0.3180  0.0948
15953TIP3    H169350   0.399   3.762   0.901 -2.7261  0.3660 -1.8712
15953TIP3    H269351   0.350   3.755   1.044  0.5522  1.4825 -0.5859
15954TIP3   OH269352   4.585   1.679  16.305  0.0743  1.1170  0.3861
15954TIP3    H169353   4.512   1.653  16.360 -1.1565  1.6302 -0.9606
15954TIP3    H269354   4.572   1.773  16.290  0.5247  1.0372 -0.5792
15955TIP3   OH269355   2.374   4.342   6.121  0.2354  0.4767  0.9452
15955TIP3    H169356   2.353   4.410   6.185 -0.0195  0.5554  0.7793
15955TIP3    H269357   2.467   4.324   6.136  0.3200  0.8995  0.9561
15956TIP3   OH269358   3.998   6.266  16.054 -0.5262 -0.6844  0.5629
15956TIP3    H169359   3.915   6.311  16.041  0.2439  0.3507 -1.4067
15956TIP3    H269360   3.986   6.213  16.132 -2.0152  1.7896  2.1385
15957TIP3   OH269361   3.790   0.279  12.713 -0.2183  0.0240 -0.1247
15957TIP3    H169362   3.816   0.359  12.667  2.5060 -0.5338  0.2948
15957TIP3    H269363   3.723   0.308  12.776 -0.4967  1.6374 -1.1167
15958TIP3   OH269364   1.117   4.570  15.190 -0.1074 -0.0009  0.3572
15958TIP3    H169365   1.168   4.522  15.256  2.6405  0.1407 -1.4768
15958TIP3    H269366   1.046   4.511  15.166  1.1366 -1.6912  0.6589
15959TIP3   OH269367   4.767   5.389  14.368  0.4052 -0.1627 -0.3524
15959TIP3    H169368   4.747   5.450  14.297  1.7683  1.1591  0.3463
15959TIP3    H269369   4.739   5.434  14.448 -4.0016 -2.8180 -0.0277
15960TIP3   OH269370   0.050   4.186   3.933 -0.0428  0.0995  0.2487
15960TIP3    H169371   0.143   4.201   3.919 -0.1486  0.0163 -0.5974
15960TIP3    H269372   0.012   4.186   3.845 -0.5866 -1.5611  0.4504
15961TIP3   OH269373   0.050   6.773   1.235 -0.0159 -0.0717  0.4288
15961TIP3    H169374   0.089   6.762   1.148 -0.2394 -1.3228  0.4703
15961TIP3    H269375  -0.035   6.813   1.219  0.5521  1.0937  0.2049
15962TIP3   OH269376   5.433   5.353  14.784  0.4206  0.1773  0.1607
15962TIP3    H169377   5.507   5.365  14.724  0.1278  1.4875  0.0369
15962TIP3    H269378   5.378   5.431  14.771 -0.1167  0.0433  1.4752
15963TIP3   OH269379   3.390   2.986  15.987  0.1024 -0.2390  0.3101
15963TIP3    H169380   3.417   3.059  15.931  0.5665 -0.6846 -0.0608
15963TIP3    H269381   3.399   3.020  16.076 -2.1813  1.0168  0.1246
15964TIP3   OH269382   0.691   3.892  17.014  0.2769 -0.4257 -0.2819
15964TIP3    H169383   0.766   3.833  17.025  0.0252 -0.4667  1.5382
15964TIP3    H269384   0.665   3.915  17.104  0.1665  2.2170 -0.8957
15965TIP3   OH269385   0.188   0.410   4.553 -0.2499 -0.0191  0.4508
15965TIP3    H169386   0.118   0.427   4.616 -0.1179 -2.8137  1.4964
15965TIP3    H269387   0.208   0.496   4.516 -1.9810  1.3714  2.4689
15966TIP3   OH269388   6.213   2.964  14.928  0.2156  0.0411  0.0511
15966TIP3    H169389   6.229   3.035  14.990 -2.0421  0.1073  0.6536
15966TIP3    H269390   6.246   2.997  14.845 -1.1923  2.0486  0.2117
15967TIP3   OH269391   0.169   5.340  15.345  0.7216  0.1865  0.4513
15967TIP3    H169392   0.248   5.375  15.303  1.4260 -0.3696  1.2947
15967TIP3    H269393   0.174   5.245  15.331 -1.2146  0.3138 -1.8977
15968TIP3   OH269394   3.246   1.478   0.215  0.1188 -0.2953  0.3393
15968TIP3    H169395   3.165   1.518   0.184  0.1717 -0.0825  0.4670
15968TIP3    H269396   3.250   1.393   0.171  0.4392  0.2028 -0.6265
15969TIP3   OH269397   3.951   3.871  17.084  0.6232  0.3216 -0.4500
15969TIP3    H169398   4.022   3.827  17.131  1.2881 -0.2718 -1.9405
15969TIP3    H269399   3.885   3.888  17.151  1.3859 -0.7781  0.6294
15970TIP3   OH269400   0.411   3.068   3.797 -0.2426 -0.7613  0.2592
15970TIP3    H169401   0.327   3.061   3.751 -1.0390  3.0485  0.7820
15970TIP3    H269402   0.390   3.116   3.877  2.2023 -1.3167  1.3192
15971TIP3   OH269403   5.755   5.865  13.435 -0.0543  0.2138  0.6244
15971TIP3    H169404   5.736   5.951  13.397 -1.3745 -0.3631 -0.0817
15971TIP3    H269405   5.847   5.848  13.412  0.0977  1.2589  0.4358
15972TIP3   OH269406   5.816   1.337  12.880  0.3720  0.1539  0.4664
15972TIP3    H169407   5.790   1.394  12.953  0.7551  0.0923  0.6506
15972TIP3    H269408   5.836   1.253  12.922 -2.3104 -0.8374  0.0077
15973TIP3   OH269409   4.659   2.378   0.610 -0.3436  0.5307 -0.6832
15973TIP3    H169410   4.610   2.358   0.690 -0.2417  0.8366 -0.5420
15973TIP3    H269411   4.595   2.413   0.549 -0.2750  1.0909 -0.4397
15974TIP3   OH269412   4.485   3.643   2.840  0.4970 -0.4195 -0.3758
15974TIP3    H169413   4.434   3.678   2.767 -0.6672  0.3782  0.7769
15974TIP3    H269414   4.566   3.611   2.799  0.1727  0.6017 -1.9135
15975TIP3   OH269415   1.815   4.131  16.797  0.0080  0.0725  0.0262
15975TIP3    H169416   1.745   4.173  16.747 -0.1349 -0.5937 -0.3411
15975TIP3    H269417   1.785   4.132  16.887  0.1546  1.0618  0.0795
15976TIP3   OH269418   5.864   6.100  10.994 -0.3162  0.3828 -0.2947
15976TIP3    H169419   5.857   6.139  11.081  0.0087  0.9210 -0.5033
15976TIP3    H269420   5.775   6.106  10.958 -0.6712 -0.7025  0.3430
15977TIP3   OH269421   3.713   3.002  13.345 -0.1315 -0.0292  0.6532
15977TIP3    H169422   3.713   3.026  13.438 -2.1609 -0.4975  0.8115
15977TIP3    H269423   3.765   2.922  13.341 -0.6884 -0.4440  1.5209
15978TIP3   OH269424   6.410   4.769   2.093 -0.3841 -0.4864 -0.3749
15978TIP3    H169425   6.406   4.744   2.001 -0.5311  0.8667 -0.7681
15978TIP3    H269426   6.471   4.707   2.132 -0.0380 -0.8604 -1.4603
15979TIP3   OH269427   0.100   0.136  16.317 -0.1666  0.0012 -0.6392
15979TIP3    H169428   0.151   0.121  16.237  0.0700  0.8762 -0.6575
15979TIP3    H269429   0.145   0.207  16.361 -1.1038  0.4663 -0.4128
15980TIP3   OH269430   4.200   1.593  16.632 -0.1874  0.4993 -0.7828
15980TIP3    H169431   4.128   1.633  16.680  0.8885 -1.1798  2.5657
15980TIP3    H269432   4.163   1.513  16.595 -0.1973 -0.2402  0.7299
15981TIP3   OH269433   4.932   3.914   3.947 -0.1450  0.4644 -0.0791
15981TIP3    H169434   4.922   4.004   3.918 -0.3581  1.9514  4.0547
15981TIP3    H269435   5.026   3.905   3.967  0.9334 -1.9156 -4.6952
15982TIP3   OH269436   3.329   3.822  12.406  1.0551  0.1000  0.0425
15982TIP3    H169437   3.330   3.750  12.343  0.4293  0.0459  0.0823
15982TIP3    H269438   3.355   3.899  12.355  0.4007  0.0851 -0.3308
15983TIP3   OH269439   2.062   3.062   2.820 -0.3073 -0.2328  0.8541
15983TIP3    H169440   2.111   3.016   2.887 -0.0640  0.2261  0.9935
15983TIP3    H269441   2.081   3.154   2.835 -0.4692 -0.1083  0.3292
15984TIP3   OH269442   5.922   4.148  11.720  0.4515  0.0602  0.1324
15984TIP3    H169443   5.884   4.223  11.674 -0.3459 -0.7389 -0.5429
15984TIP3    H269444   6.003   4.130  11.671 -0.0506 -0.3656 -0.5487
15985TIP3   OH269445   0.209   5.626  13.070  0.1162 -0.4461  0.0456
15985TIP3    H169446   0.297   5.597  13.048  0.6303 -0.6406  2.0963
15985TIP3    H269447   0.211   5.636  13.166 -1.6454  1.0203 -0.0158
15986TIP3   OH269448   5.177   2.778   1.019  0.5918  0.4679  0.1779
15986TIP3    H169449   5.244   2.805   0.956  1.2062  2.2578  1.4952
15986TIP3    H269450   5.226   2.760   1.099 -0.4344  1.1984  0.9919
15987TIP3   OH269451   5.005   4.844  16.928 -0.0805 -0.2036 -0.2997
15987TIP3    H169452   4.923   4.795  16.934 -0.6749  0.9270  1.2756
15987TIP3    H269453   5.053   4.820  17.007  0.8140 -0.3220 -0.8677
15988TIP3   OH269454   0.903   5.546  17.132  0.1431  0.0313  0.4298
15988TIP3    H169455   0.970   5.487  17.097 -1.4135 -1.0926 -0.8212
15988TIP3    H269456   0.830   5.537  17.071 -1.0154  1.5100  1.5369
15989TIP3   OH269457   0.374   1.606   2.836 -0.1754  0.1611  0.4843
15989TIP3    H169458   0.379   1.534   2.773 -1.3694 -1.8064  2.4601
15989TIP3    H269459   0.422   1.575   2.912 -1.5736  0.9831  1.7723
15990TIP3   OH269460   4.142   5.293   5.125 -1.0751  0.0658  0.2019
15990TIP3    H169461   4.107   5.379   5.149  1.8709  1.0375  1.3981
15990TIP3    H269462   4.165   5.252   5.208 -0.2762 -0.9131 -0.4766
15991TIP3   OH269463   2.314   0.357  11.767  0.1369 -0.3866 -0.0740
15991TIP3    H169464   2.315   0.408  11.848 -1.0220  0.3053 -0.4659
15991TIP3    H269465   2.318   0.266  11.796  1.5660 -0.1210  0.6634
15992TIP3   OH269466   2.093   3.575  15.585  0.6312 -0.1895  0.3019
15992TIP3    H169467   2.014   3.564  15.639 -0.0051 -0.7071 -0.7046
15992TIP3    H269468   2.157   3.515  15.625  0.2056 -0.4870  0.5559
15993TIP3   OH269469   2.354   5.014  13.268 -0.0766  0.0927 -0.4678
15993TIP3    H169470   2.295   5.066  13.214  0.4034  1.4147  0.2285
15993TIP3    H269471   2.326   4.924  13.255 -0.4233  0.4351 -2.3460
15994TIP3   OH269472   5.080   1.832  15.685  0.1238  0.5685  1.0410
15994TIP3    H169473   5.076   1.858  15.593  2.8754  0.3382  0.7731
15994TIP3    H269474   4.992   1.802  15.705 -0.0626 -1.5120 -2.1827
15995TIP3   OH269475   4.847   1.918  11.855 -0.1736  0.4276  0.1656
15995TIP3    H169476   4.887   1.933  11.769  1.0679 -0.6771  0.5171
15995TIP3    H269477   4.753   1.920  11.838  0.0418 -0.7195 -1.4251
15996TIP3   OH269478   4.645   2.563  11.575  0.5207 -0.8814 -0.1437
15996TIP3    H169479   4.604   2.627  11.633 -0.1591 -2.1365  0.7888
15996TIP3    H269480   4.574   2.505  11.549  0.9388 -0.7451 -1.7461
15997TIP3   OH269481   3.587   0.765   5.851  0.0383  0.0849 -0.4112
15997TIP3    H169482   3.541   0.694   5.896  1.0916  0.3958  1.2522
15997TIP3    H269483   3.665   0.780   5.905  1.1590  0.7701 -2.1586
15998TIP3   OH269484   5.194   0.073   0.516 -0.1807  0.1850 -0.4575
15998TIP3    H169485   5.160   0.152   0.560  0.5606 -0.3474  1.1714
15998TIP3    H269486   5.124   0.008   0.527 -0.7929  0.5912 -1.8032
15999TIP3   OH269487   5.991   5.263  12.272  0.0837 -0.0574  0.0452
15999TIP3    H169488   6.017   5.207  12.345  0.5341 -0.7054 -0.5873
15999TIP3    H269489   6.032   5.222  12.195 -1.5667 -0.2314 -0.7877
16000TIP3   OH269490   1.458   0.009  10.949  0.1577 -0.5486 -0.0597
16000TIP3    H169491   1.415  -0.055  10.891 -0.8557  0.1543 -0.1142
16000TIP3    H269492   1.552  -0.003  10.933 -0.0886 -0.6796 -1.5128
16001TIP3   OH269493   4.150   1.415  15.136 -0.5475 -0.3367  0.6463
16001TIP3    H169494   4.168   1.408  15.230 -1.8491  1.5421  1.0887
16001TIP3    H269495   4.071   1.363  15.123  0.5657 -1.9961  0.2222
16002TIP3   OH269496   2.761   1.755   0.929 -0.4716  0.3475 -0.6493
16002TIP3    H169497   2.801   1.823   0.874  1.8933 -1.8515 -1.8425
16002TIP3    H269498   2.832   1.725   0.985 -2.1687  0.6689  1.8448
16003TIP3   OH269499   2.766   6.699  12.370 -0.8935  0.8196 -0.2291
16003TIP3    H169500   2.694   6.761  12.368 -0.4298  1.3846  0.3552
16003TIP3    H269501   2.829   6.736  12.431 -0.0633  0.3802 -0.7912
16004TIP3   OH269502   4.524   4.650  13.506  0.8031  0.6017 -0.7643
16004TIP3    H169503   4.595   4.633  13.568 -0.7368 -2.2631  0.4239
16004TIP3    H269504   4.458   4.698  13.556  0.4599  0.1865 -0.8119
16005TIP3   OH269505   2.756   3.434   4.605  0.1056  0.1424  0.0979
16005TIP3    H169506   2.791   3.346   4.619 -0.0507 -0.0396 -0.5987
16005TIP3    H269507   2.727   3.463   4.692  2.1548  0.3954  0.7576
16006TIP3   OH269508   3.096   3.990   5.013 -0.0714  0.1047  0.2765
16006TIP3    H169509   3.190   3.976   5.016  0.3159  1.9762 -1.3088
16006TIP3    H269510   3.075   3.996   4.920 -1.8829 -0.8248  0.5613
16007TIP3   OH269511   3.296   2.454  11.986 -0.7862 -0.1068 -0.5753
16007TIP3    H169512   3.280   2.524  11.922 -0.7255 -0.2774 -0.7786
16007TIP3    H269513   3.211   2.415  12.001 -1.1130  1.0225  0.7347
16008TIP3   OH269514   0.839   0.181   6.084  0.2293  0.3687  0.3295
16008TIP3    H169515   0.847   0.136   6.168 -2.4748 -1.3120 -0.2085
16008TIP3    H269516   0.878   0.120   6.021  0.7684  0.9071  0.1269
16009TIP3   OH269517   0.482   4.476   0.250 -0.0928  0.2890 -0.1490
16009TIP3    H169518   0.418   4.540   0.281  0.0321  0.5026 -0.3304
16009TIP3    H269519   0.531   4.522   0.182  0.7749  0.3901  0.5209
16010TIP3   OH269520   5.412   4.226  12.809 -0.5146 -0.1666 -0.6107
16010TIP3    H169521   5.431   4.320  12.815 -0.2863 -0.3057  1.4466
16010TIP3    H269522   5.325   4.217  12.847 -0.1266 -0.9075  0.1259
16011TIP3   OH269523   0.183   5.071  13.811  0.2034  0.2100  0.0940
16011TIP3    H169524   0.272   5.058  13.779  0.2877  0.1603  0.3521
16011TIP3    H269525   0.150   4.983  13.826 -0.8943  0.0235 -2.7146
16012TIP3   OH269526   6.673   0.073   6.274 -0.1268 -0.2328  0.2266
16012TIP3    H169527   6.668   0.131   6.350 -2.2030 -0.5213  0.3502
16012TIP3    H269528   6.740   0.008   6.298  0.9491  1.0317  0.8078
16013TIP3   OH269529   6.754   6.423  13.438 -0.0605 -0.0472 -0.1761
16013TIP3    H169530   6.772   6.472  13.358  0.2595 -0.2128 -0.2087
16013TIP3    H269531   6.791   6.336  13.421 -0.9366 -0.4154 -0.2614
16014TIP3   OH269532   2.280   4.716  13.258 -0.0130  0.5115  0.0259
16014TIP3    H169533   2.194   4.703  13.217  0.0554 -0.3757  0.1282
16014TIP3    H269534   2.338   4.656  13.211  0.2281  0.0381  0.9087
16015TIP3   OH269535   4.208   0.213   4.181 -0.3719 -0.3778 -0.1544
16015TIP3    H169536   4.137   0.263   4.141 -0.7003 -1.2740 -0.7239
16015TIP3    H269537   4.213   0.246   4.271 -0.8067  0.4198 -0.4103
16016TIP3   OH269538   0.842   1.307   4.813 -0.1784  0.0034  0.2265
16016TIP3    H169539   0.831   1.246   4.886  0.4845 -2.3322 -1.5180
16016TIP3    H269540   0.917   1.361   4.838  0.2407 -0.9728  1.1512
16017TIP3   OH269541   0.366   4.850   1.308  0.2075 -0.4992 -0.0155
16017TIP3    H169542   0.409   4.936   1.307 -1.6615  0.4962  0.5843
16017TIP3    H269543   0.273   4.870   1.309 -0.2801 -2.4989  1.9934
16018TIP3   OH269544   0.256   3.018  15.294  0.0025 -0.1212  0.4858
16018TIP3    H169545   0.229   3.069  15.217  2.1187 -0.8690 -0.8200
16018TIP3    H269546   0.183   2.957  15.308 -0.2027 -0.3610 -1.3048
16019TIP3   OH269547   1.158   3.172   3.162  0.2041 -0.1330 -0.0564
16019TIP3    H169548   1.182   3.259   3.130  0.4113 -0.3906 -0.6165
16019TIP3    H269549   1.187   3.171   3.253  3.0901 -0.6597 -0.8685
16020TIP3   OH269550   0.933   6.111   2.882 -0.3527  0.2114  0.2754
16020TIP3    H169551   0.852   6.116   2.831 -1.1812  1.9790  1.6755
16020TIP3    H269552   0.950   6.201   2.910  2.0270 -0.1356  0.1840
16021TIP3   OH269553   3.043   1.074  16.209 -0.8312 -0.2597 -0.1551
16021TIP3    H169554   3.060   1.131  16.284 -2.9116  1.6101 -1.0062
16021TIP3    H269555   3.101   1.108  16.140 -0.9003 -0.2269 -0.1981
16022TIP3   OH269556   2.358   0.977  12.508 -0.5264 -0.2242 -0.4558
16022TIP3    H169557   2.299   0.964  12.582 -0.4608 -3.4685 -0.8327
16022TIP3    H269558   2.446   0.978  12.545 -0.5442 -0.7864 -0.4044
16023TIP3   OH269559   3.567   3.034   3.226 -0.6963  0.1753 -0.2114
16023TIP3    H169560   3.593   3.125   3.217 -1.4166  0.4506  0.4537
16023TIP3    H269561   3.568   3.017   3.320 -0.4930 -0.5232 -0.3328
16024TIP3   OH269562   3.965   1.306   2.485  0.2771  0.1656  0.1974
16024TIP3    H169563   4.048   1.318   2.441  0.4180 -1.6392 -0.1345
16024TIP3    H269564   3.986   1.313   2.578  2.3478 -6.3578  0.7400
16025TIP3   OH269565   3.097   3.866  10.772  0.4400 -0.3398  0.1054
16025TIP3    H169566   3.132   3.878  10.683 -2.1681  1.7833 -0.7985
16025TIP3    H269567   3.093   3.955  10.808  0.0025 -0.9918  1.7578
16026TIP3   OH269568   6.710   4.550   0.833  0.0057  0.3141 -0.7434
16026TIP3    H169569   6.713   4.480   0.899 -0.5916  0.8833 -0.1026
16026TIP3    H269570   6.629   4.534   0.785 -0.1994  0.6433 -0.5085
16027TIP3   OH269571   5.229   2.718   0.552 -0.0606  0.5410 -0.5317
16027TIP3    H169572   5.186   2.775   0.616 -0.4714  0.4592 -0.7290
16027TIP3    H269573   5.163   2.652   0.531  1.3921 -2.0365  2.1488
16028TIP3   OH269574   6.209   3.062  16.416 -0.1590 -0.2340 -0.2344
16028TIP3    H169575   6.190   2.978  16.375 -2.2030  0.7713 -1.4664
16028TIP3    H269576   6.130   3.114  16.405  0.6958  1.5559  1.3482
16029TIP3   OH269577   4.565   3.566  16.548 -0.0711 -0.0024  0.5597
16029TIP3    H169578   4.642   3.550  16.493  0.1213 -0.2465  0.8935
16029TIP3    H269579   4.590   3.641  16.602  0.4923 -0.9361  1.6589
16030TIP3   OH269580   1.634   2.402  15.259  0.2538 -0.0329  0.5384
16030TIP3    H169581   1.662   2.312  15.240 -0.6763 -0.0179 -1.1710
16030TIP3    H269582   1.574   2.394  15.333 -0.3779 -0.9406 -0.0458
16031TIP3   OH269583   5.615   2.447   2.507 -0.5048 -0.1532  0.0595
16031TIP3    H169584   5.582   2.516   2.450 -0.8049 -0.3628 -0.0239
16031TIP3    H269585   5.657   2.494   2.580  1.5849  0.1580 -1.2401
16032TIP3   OH269586   2.734   1.299  13.724 -0.1403  0.3412  0.0094
16032TIP3    H169587   2.784   1.243  13.783  0.1878 -0.7302 -1.2311
16032TIP3    H269588   2.681   1.354  13.782  0.3900 -0.4487  1.2918
16033TIP3   OH269589   0.175   2.532   1.984 -0.2082 -0.3396  0.5833
16033TIP3    H169590   0.110   2.463   1.978 -0.0090 -0.4692 -0.2229
16033TIP3    H269591   0.161   2.571   2.070 -0.3940 -1.3024  0.9954
16034TIP3   OH269592   6.418   2.387   5.029  0.1966 -0.1715  0.7047
16034TIP3    H169593   6.446   2.322   4.964 -0.4637 -0.4227  0.6630
16034TIP3    H269594   6.366   2.450   4.979 -0.6516 -0.5831  1.0459
16035TIP3   OH269595   3.119   2.028  16.590  0.2346  0.5600 -0.4046
16035TIP3    H169596   3.155   2.046  16.504  0.2620  0.7712 -0.3507
16035TIP3    H269597   3.187   1.977  16.634 -0.2714 -0.5959 -0.9215
16036TIP3   OH269598   3.992   5.820   4.684 -0.2471  0.3000 -0.4074
16036TIP3    H169599   3.897   5.812   4.680 -0.3539  0.2189  1.5269
16036TIP3    H269600   4.009   5.914   4.681 -0.7036  0.6161  3.0674
16037TIP3   OH269601   0.712   4.774   3.695 -0.5327  0.2161 -0.3312
16037TIP3    H169602   0.751   4.738   3.615  0.4388  0.9814 -0.2236
16037TIP3    H269603   0.668   4.854   3.666 -0.1744  0.4970 -0.1050
16038TIP3   OH269604   5.628   3.594  15.717  0.5411  0.0056 -0.0877
16038TIP3    H169605   5.698   3.605  15.781 -0.2664 -1.2640  1.0873
16038TIP3    H269606   5.597   3.504  15.731 -1.2448  0.4885 -0.6155
16039TIP3   OH269607   6.803   5.836  13.130 -0.1502  0.1758  0.5881
16039TIP3    H169608   6.860   5.865  13.201 -0.0454 -2.2072  1.5628
16039TIP3    H269609   6.762   5.756  13.163 -2.4675  0.6422 -0.8919
16040TIP3   OH269610   5.101   5.295  16.706 -0.3438  0.2527 -0.0602
16040TIP3    H169611   5.046   5.290  16.629  3.1023 -3.5897 -2.6892
16040TIP3    H269612   5.084   5.214  16.754  0.2940  0.7987  1.1293
16041TIP3   OH269613   4.997   3.530   0.883  0.5883  0.1606 -0.3280
16041TIP3    H169614   5.050   3.609   0.886  0.1751  0.4353 -0.2359
16041TIP3    H269615   5.059   3.459   0.898  0.9480  0.4714 -0.3390
16042TIP3   OH269616   2.949   0.627   2.636 -0.4949 -0.7906 -0.1268
16042TIP3    H169617   2.858   0.595   2.633 -0.5135 -0.9502  1.4642
16042TIP3    H269618   2.988   0.581   2.710  0.3594  0.6251  0.3370
16043TIP3   OH269619   3.649   0.390  12.942  0.1187 -0.3048 -0.4077
16043TIP3    H169620   3.700   0.472  12.945  0.3671 -0.4814  1.6788
16043TIP3    H269621   3.558   0.418  12.953  0.3014 -0.3431  1.4571
16044TIP3   OH269622   2.688   4.024  12.271 -0.4089 -0.5013  0.1952
16044TIP3    H169623   2.711   4.102  12.220  0.5614 -1.1063 -0.3192
16044TIP3    H269624   2.721   4.043  12.359 -0.5634 -0.1538  0.1804
16045TIP3   OH269625   4.939   1.362   2.260  0.6606 -0.4494  0.0139
16045TIP3    H169626   4.948   1.396   2.349 -0.2925 -0.6512  0.1940
16045TIP3    H269627   5.002   1.289   2.256  0.3716 -0.7459  0.6807
16046TIP3   OH269628   3.533   3.384   6.320  0.1592  0.7593  0.2597
16046TIP3    H169629   3.467   3.363   6.254  0.6961  0.6470 -0.2537
16046TIP3    H269630   3.588   3.306   6.325  0.6898  1.1178  0.1462
16047TIP3   OH269631   2.919   3.718   2.348 -0.0346 -0.1638 -0.3086
16047TIP3    H169632   2.855   3.731   2.278  0.6899  1.2070 -0.7673
16047TIP3    H269633   2.870   3.679   2.420 -1.7091  2.0339 -0.1579
16048TIP3   OH269634   3.940   0.959   2.749  0.6865 -0.1719  1.0593
16048TIP3    H169635   4.034   0.952   2.732  0.6666 -2.0706  1.5305
16048TIP3    H269636   3.934   0.979   2.842  0.6258  1.4168  0.7358
16049TIP3   OH269637   2.016   1.131  16.161  0.7703 -0.3197 -0.2097
16049TIP3    H169638   2.042   1.081  16.083 -2.4482 -0.8630 -1.0812
16049TIP3    H269639   1.998   1.219  16.128  0.8907 -0.1276  0.2285
16050TIP3   OH269640   3.176   3.083  11.853  0.2023 -0.5871 -0.1341
16050TIP3    H169641   3.153   3.176  11.853 -1.0870 -0.8030 -2.8073
16050TIP3    H269642   3.121   3.044  11.920  0.7749  0.5308  1.0339
16051TIP3   OH269643   6.156   2.839   0.254  0.2133  0.1489  0.6721
16051TIP3    H169644   6.138   2.873   0.167  1.7944  1.3602  0.7777
16051TIP3    H269645   6.102   2.891   0.312 -0.0289  0.0695  0.5188
16052TIP3   OH269646   3.233   6.503  11.228  0.5531  0.2733 -0.0290
16052TIP3    H169647   3.144   6.498  11.195  1.2711  0.7476 -2.1721
16052TIP3    H269648   3.255   6.413  11.253 -0.6599  0.2426  1.0138
16053TIP3   OH269649   3.179   0.453   3.389 -0.1278  0.3193 -0.1271
16053TIP3    H169650   3.172   0.487   3.478 -2.2590 -2.4898  0.9285
16053TIP3    H269651   3.089   0.456   3.355  0.3817 -0.1560 -1.6098
16054TIP3   OH269652   3.129   5.235  13.156 -0.4799  0.1176 -0.0500
16054TIP3    H169653   3.185   5.214  13.230 -0.7851 -1.4256 -0.2151
16054TIP3    H269654   3.180   5.297  13.103  2.2038 -3.0222 -1.4817
16055TIP3   OH269655   1.100   1.956   5.575  0.2264  0.3430 -0.1019
16055TIP3    H169656   1.041   1.982   5.504 -0.6028  1.4490  0.9606
16055TIP3    H269657   1.042   1.927   5.645  1.0429 -2.8578 -0.5502
16056TIP3   OH269658   5.128   5.115   6.327 -0.5067 -0.1193  0.2590
16056TIP3    H169659   5.199   5.064   6.365  0.1409 -0.1876 -0.9775
16056TIP3    H269660   5.108   5.183   6.392  1.3127  0.4608  0.2546
16057TIP3   OH269661   1.087   2.371   1.929  0.4876 -0.0647  0.4788
16057TIP3    H169662   1.126   2.336   2.009  2.2274 -1.1717 -0.7890
16057TIP3    H269663   1.097   2.301   1.865 -0.7855  0.8302 -0.7647
16058TIP3   OH269664   3.809   6.346   4.268 -0.0120  0.2871 -0.2725
16058TIP3    H169665   3.759   6.301   4.200 -0.2408 -0.1762  0.1942
16058TIP3    H269666   3.877   6.394   4.220 -1.4152  1.6466 -1.0044
16059TIP3   OH269667   2.293   5.850   0.563 -0.6945  0.5681  0.2610
16059TIP3    H169668   2.209   5.805   0.562 -0.5266  0.2324  1.1293
16059TIP3    H269669   2.279   5.927   0.507 -0.5531 -1.2813 -2.5090
16060TIP3   OH269670   4.011   4.476   4.130 -0.2318 -0.5008 -0.3911
16060TIP3    H169671   3.948   4.547   4.122  0.8559  0.3294 -2.4576
16060TIP3    H269672   3.965   4.399   4.097 -1.7054 -1.0509  2.6619
16061TIP3   OH269673   6.688   2.709  13.764  0.5850  0.2076 -0.0587
16061TIP3    H169674   6.714   2.744  13.679  2.1957 -2.6706 -0.9021
16061TIP3    H269675   6.724   2.771  13.828  1.7212  1.0212 -1.4266
16062TIP3   OH269676   1.666   2.128  14.349 -0.6132 -0.1717 -0.4363
16062TIP3    H169677   1.573   2.109  14.337 -1.5336  1.6736  2.7239
16062TIP3    H269678   1.708   2.042  14.351 -3.2143 -1.6719  4.0017
16063TIP3   OH269679   4.155   3.342  12.025 -0.6303  0.3553  0.0540
16063TIP3    H169680   4.109   3.422  12.050 -1.3135  0.1726 -0.5783
16063TIP3    H269681   4.246   3.356  12.053 -0.7038  1.4184 -0.2075
16064TIP3   OH269682   3.829   1.740  12.656  1.1669 -0.4158 -0.1702
16064TIP3    H169683   3.743   1.709  12.684  1.6629 -3.3457 -1.6301
16064TIP3    H269684   3.891   1.677  12.693  2.5943  0.7843 -0.3993
16065TIP3   OH269685   5.540   3.697  10.666  0.0160  0.1574 -0.7761
16065TIP3    H169686   5.449   3.675  10.645  0.0784 -1.6209  0.4825
16065TIP3    H269687   5.583   3.708  10.582 -1.0771 -0.3916 -1.4259
16066TIP3   OH269688   1.188   2.856   0.902  0.0357 -0.8974 -0.4190
16066TIP3    H169689   1.116   2.841   0.963 -0.4181 -0.9810 -0.9696
16066TIP3    H269690   1.173   2.794   0.831  0.4838 -0.7072 -0.6845
16067TIP3   OH269691   2.434   3.309  10.602 -0.1558  0.2562  0.6276
16067TIP3    H169692   2.351   3.323  10.647 -0.8901 -0.9274 -0.2931
16067TIP3    H269693   2.446   3.388  10.548 -1.8161 -0.4627 -0.8883
16068TIP3   OH269694   6.245   6.458   2.222  0.4073  0.0179 -0.1450
16068TIP3    H169695   6.293   6.488   2.145  0.3095  0.4074 -0.0568
16068TIP3    H269696   6.264   6.364   2.227  1.8716  0.3186  0.3842
16069TIP3   OH269697   1.405   4.875   0.114 -0.3062 -0.9972 -0.6270
16069TIP3    H169698   1.467   4.809   0.147  0.1028  0.2064  1.1389
16069TIP3    H269699   1.415   4.950   0.173 -2.0858 -0.0321 -1.4541
16070TIP3   OH269700   5.184   1.408  11.505 -0.1953  0.1273  0.3562
16070TIP3    H169701   5.164   1.350  11.578  0.4507 -0.2703  0.2326
16070TIP3    H269702   5.145   1.492  11.529 -0.7742 -0.2481  0.7327
16071TIP3   OH269703   4.324   4.136   4.815 -0.0866  0.5293 -0.1153
16071TIP3    H169704   4.256   4.074   4.842  0.9667 -0.0601  1.3517
16071TIP3    H269705   4.369   4.092   4.743  0.0944 -0.0379  0.3380
16072TIP3   OH269706   3.683   3.753   4.935 -0.6927 -0.2875  0.7510
16072TIP3    H169707   3.619   3.785   4.872  0.9890 -0.9099 -1.3937
16072TIP3    H269708   3.655   3.663   4.955 -0.2358 -0.7565 -0.6130
16073TIP3   OH269709   4.543   2.567  15.680 -0.2031  0.5911 -0.2406
16073TIP3    H169710   4.551   2.555  15.775 -0.5339  0.0665 -0.2722
16073TIP3    H269711   4.452   2.594  15.668 -0.2568  0.3183 -0.4411
16074TIP3   OH269712   6.134   0.164  16.141  0.0381  0.2916  0.2850
16074TIP3    H169713   6.138   0.158  16.237  0.6307 -0.4688  0.2204
16074TIP3    H269714   6.221   0.196  16.116 -0.2700  0.9561  0.0183
16075TIP3   OH269715   4.487   4.816  16.268  0.9968  0.5138  0.7821
16075TIP3    H169716   4.446   4.749  16.213  0.3170 -0.3917  2.3200
16075TIP3    H269717   4.580   4.813  16.244  1.3152 -2.2266  1.9644
16076TIP3   OH269718   2.376   2.972  15.561  0.5366 -0.4411  0.1873
16076TIP3    H169719   2.410   2.895  15.514  0.6564 -0.4841  0.3415
16076TIP3    H269720   2.434   3.043  15.535 -0.0565 -0.2238 -0.5837
16077TIP3   OH269721   2.686   1.464   0.935  0.1737  0.3564  0.0024
16077TIP3    H169722   2.596   1.449   0.965 -0.6534 -0.5351 -2.6361
16077TIP3    H269723   2.692   1.559   0.924 -0.2022  0.4840  0.8333
16078TIP3   OH269724   1.307   1.941  15.241  0.1145  0.5240 -0.6426
16078TIP3    H169725   1.311   2.002  15.315 -0.7576 -1.7135  1.4085
16078TIP3    H269726   1.214   1.938  15.218  0.3899  1.2338 -1.9085
16079TIP3   OH269727   6.479   1.850   3.458  0.2311  0.9015  0.4977
16079TIP3    H169728   6.426   1.921   3.493  0.0244 -0.0574  2.2521
16079TIP3    H269729   6.563   1.858   3.504  0.7847  0.9581 -0.4877
16080TIP3   OH269730   0.917   2.724  11.480 -0.4872  0.4082 -0.2118
16080TIP3    H169731   0.867   2.650  11.445  0.1166  0.6122 -1.5592
16080TIP3    H269732   1.009   2.698  11.470 -0.2904  0.7828  0.5691
16081TIP3   OH269733   5.517   3.496   1.329  0.4602  0.3193  0.1752
16081TIP3    H169734   5.569   3.457   1.399 -1.0439 -0.1620  1.0781
16081TIP3    H269735   5.433   3.516   1.370 -0.8426 -0.9226 -1.7353
16082TIP3   OH269736   1.047   6.645  11.605  0.0070 -0.3443  0.2676
16082TIP3    H169737   1.098   6.618  11.528  0.4512 -2.2758  1.1927
16082TIP3    H269738   1.007   6.564  11.637 -2.0498  0.7969  0.7494
16083TIP3   OH269739   6.179   4.052  12.750 -0.1069 -0.3310  0.0244
16083TIP3    H169740   6.096   4.068  12.704 -0.7036  0.9400  1.4530
16083TIP3    H269741   6.189   4.127  12.808  2.9392  0.4481 -1.2906
16084TIP3   OH269742   0.579   1.284   2.077 -0.2012 -0.5741  0.0500
16084TIP3    H169743   0.561   1.319   1.990  1.9047  0.7355  0.0676
16084TIP3    H269744   0.633   1.206   2.062  0.2348 -0.3005  0.1612
16085TIP3   OH269745   6.386   2.266  11.649  0.0227 -0.3739  0.2539
16085TIP3    H169746   6.407   2.279  11.742 -1.0153  2.1687  0.2224
16085TIP3    H269747   6.308   2.210  11.650 -1.7269  1.9007  1.1716
16086TIP3   OH269748   0.385   1.921  15.396 -0.5966 -0.3256  0.1357
16086TIP3    H169749   0.427   1.839  15.423  0.3066  0.0083 -0.2354
16086TIP3    H269750   0.330   1.896  15.322 -0.4113 -0.6130  0.0934
16087TIP3   OH269751   0.798   0.855   2.167  0.0509 -0.4194  0.5838
16087TIP3    H169752   0.874   0.906   2.140  0.6380 -0.9782  1.1786
16087TIP3    H269753   0.800   0.777   2.111 -0.8816  0.1952 -0.3691
16088TIP3   OH269754   3.893   5.788  16.610 -0.3598  0.1206 -0.0835
16088TIP3    H169755   3.835   5.860  16.631 -0.6436 -0.2031  0.2556
16088TIP3    H269756   3.890   5.731  16.687 -0.9256 -0.7650 -0.7329
16089TIP3   OH269757   1.717   3.560   1.233  0.4089  0.0947 -0.0204
16089TIP3    H169758   1.690   3.471   1.212  0.7645 -0.0781  0.2449
16089TIP3    H269759   1.698   3.610   1.154  0.1117 -0.1958 -0.1343
16090TIP3   OH269760   5.002   1.952  11.634  0.0485  0.1912  0.2293
16090TIP3    H169761   5.085   1.980  11.673 -0.4276 -0.1911  1.5728
16090TIP3    H269762   5.002   1.993  11.548  0.5383  2.2195  1.1185
16091TIP3   OH269763   1.921   1.194   0.611 -0.4271  0.0988  0.2207
16091TIP3    H169764   1.844   1.250   0.624 -0.8522 -0.6776  1.1248
16091TIP3    H269765   1.885   1.112   0.576  0.2846  0.6825 -2.0580
16092TIP3   OH269766   6.056   4.053  13.874 -0.2114 -0.1656 -0.7027
16092TIP3    H169767   5.961   4.053  13.866 -0.0930  1.6336 -3.1290
16092TIP3    H269768   6.073   4.068  13.967 -2.2880  0.3892 -0.3747
16093TIP3   OH269769   3.009   0.452   2.247 -0.8478 -0.5217  0.0021
16093TIP3    H169770   2.928   0.408   2.221 -0.9764  0.7358 -1.9109
16093TIP3    H269771   2.997   0.543   2.219  0.2538  0.2800  1.9273
16094TIP3   OH269772   1.882   0.038  12.519  0.1136  0.6711  0.7504
16094TIP3    H169773   1.910   0.094  12.592  1.8677 -1.3214  1.7278
16094TIP3    H269774   1.960  -0.014  12.498 -1.4451 -1.5006  0.0451
16095TIP3   OH269775   2.104   3.134  16.060  0.2319  0.2377  0.6383
16095TIP3    H169776   2.122   3.074  15.988 -1.1770  0.1406  0.3398
16095TIP3    H269777   2.074   3.215  16.019  0.2387  0.4760  1.0877
16096TIP3   OH269778   3.679   6.681   3.099 -0.2746 -0.3043  0.0378
16096TIP3    H169779   3.754   6.740   3.088  0.1404 -0.6461  0.9337
16096TIP3    H269780   3.718   6.594   3.104 -0.8768 -0.6555 -1.1097
16097TIP3   OH269781   3.308   4.852  16.709  0.1145  0.2286 -0.4729
16097TIP3    H169782   3.236   4.909  16.733  0.2540  0.7755 -1.2974
16097TIP3    H269783   3.365   4.907  16.655  1.3543 -0.0710  0.4853
16098TIP3   OH269784   6.164   4.364  15.422  0.3533 -0.0370 -0.1176
16098TIP3    H169785   6.090   4.314  15.389  0.1959  1.6284 -2.6201
16098TIP3    H269786   6.236   4.301  15.425 -0.5969 -1.1478  0.0808
16099TIP3   OH269787   1.030   3.253   1.982  0.3898 -0.2727  0.7001
16099TIP3    H169788   0.961   3.187   1.985  0.2188 -0.2966 -1.7582
16099TIP3    H269789   1.058   3.254   1.890 -0.1732  3.6056  0.4254
16100TIP3   OH269790   6.637   4.533   3.971 -0.2567  0.4425 -0.1977
16100TIP3    H169791   6.585   4.604   4.008  0.7790  0.2914  1.6779
16100TIP3    H269792   6.682   4.572   3.896  0.3615  1.8161  0.8480
16101TIP3   OH269793   2.769   4.797   4.277  0.5297  0.4135 -0.5941
16101TIP3    H169794   2.768   4.815   4.371  3.2791  1.6535 -0.7170
16101TIP3    H269795   2.713   4.865   4.239  1.0287  1.1653 -0.0029
16102TIP3   OH269796   4.069   3.392  15.603  0.1624 -0.2286  0.2193
16102TIP3    H169797   3.994   3.357  15.556  0.9859  0.4412 -1.6776
16102TIP3    H269798   4.068   3.486  15.584  0.2445  0.1616  1.9825
16103TIP3   OH269799   3.987   0.808  11.281 -0.2275  0.6484  0.2325
16103TIP3    H169800   4.077   0.811  11.311  0.3085  0.1090 -1.2045
16103TIP3    H269801   3.974   0.717  11.254 -1.2582  0.6841  0.5807
16104TIP3   OH269802   6.656   1.237  16.295  0.1359 -0.1178  0.8934
16104TIP3    H169803   6.661   1.252  16.389  0.2081 -1.1893  1.0747
16104TIP3    H269804   6.684   1.320  16.256 -2.0574  1.1253  1.7667
16105TIP3   OH269805   1.961   6.768  13.871 -0.0748 -0.2168 -0.1611
16105TIP3    H169806   1.914   6.751  13.953 -0.8051 -0.7006 -0.6740
16105TIP3    H269807   1.912   6.720  13.805  1.1639 -0.7593 -0.7085
16106TIP3   OH269808   4.781   2.837  16.687 -0.2929  0.1299 -0.6844
16106TIP3    H169809   4.875   2.839  16.668 -0.1247  0.7779  0.1504
16106TIP3    H269810   4.757   2.929  16.696 -1.0408 -0.0258 -1.0078
16107TIP3   OH269811   1.638   6.016   2.929 -0.1430 -0.2622 -0.4334
16107TIP3    H169812   1.621   6.110   2.926 -2.6378 -0.6136  0.4725
16107TIP3    H269813   1.733   6.009   2.931  0.1391  2.1846 -1.5314
16108TIP3   OH269814   1.685   6.677  12.432 -0.3871  0.0652  0.5896
16108TIP3    H169815   1.733   6.733  12.493 -0.5356 -0.2893  1.0464
16108TIP3    H269816   1.609   6.647  12.483 -0.4517 -0.3272  0.2663
16109TIP3   OH269817   1.872   1.762  12.274  0.1716  0.4668 -0.1293
16109TIP3    H169818   1.800   1.703  12.297  0.2871  0.0908 -0.6870
16109TIP3    H269819   1.876   1.758  12.178 -0.0236  1.6381 -0.1969
16110TIP3   OH269820   3.549   4.772   6.222  0.0477  0.0671 -0.0515
16110TIP3    H169821   3.639   4.744   6.239  0.5029  1.5917  0.2000
16110TIP3    H269822   3.550   4.865   6.241 -0.6718  0.9171 -3.5733
16111TIP3   OH269823   4.665   5.708  10.484  0.4217 -0.6519 -0.1593
16111TIP3    H169824   4.668   5.625  10.531  3.4542 -0.3301  0.4183
16111TIP3    H269825   4.584   5.750  10.514  0.4983 -1.9583  2.0907
16112TIP3   OH269826   4.927   6.070  12.005  0.3491 -0.3987  0.5284
16112TIP3    H169827   4.946   6.144  11.948 -2.9160 -1.4151 -2.2484
16112TIP3    H269828   4.991   6.003  11.979  0.5816  0.0331 -0.0292
16113TIP3   OH269829   2.999   3.118   1.729  0.1622  0.4085  0.2988
16113TIP3    H169830   3.085   3.106   1.768  0.4157 -2.1231 -0.8381
16113TIP3    H269831   3.003   3.072   1.645 -2.7568 -1.3741  0.9653
16114TIP3   OH269832   1.066   5.571  13.507  0.0976  0.3202  0.0995
16114TIP3    H169833   1.109   5.522  13.437 -0.2239 -1.6391  1.2217
16114TIP3    H269834   0.988   5.608  13.465 -0.0018 -0.6814 -0.6330
16115TIP3   OH269835   0.028   5.280  14.490  0.1457 -0.2507  0.2109
16115TIP3    H169836  -0.039   5.228  14.445  0.2447 -0.9179  0.8364
16115TIP3    H269837   0.079   5.217  14.539  0.9374  0.3172  0.1333
16116TIP3   OH269838   3.108   0.998   1.363 -0.1281  0.0937 -0.6087
16116TIP3    H169839   3.157   0.935   1.414 -0.4812 -0.4004 -0.8692
16116TIP3    H269840   3.018   0.990   1.396 -0.5974 -1.0645 -2.0718
16117TIP3   OH269841   1.301   4.308  16.167  0.0697  0.5951 -0.4455
16117TIP3    H169842   1.266   4.395  16.147 -3.0510 -0.1216  1.2200
16117TIP3    H269843   1.265   4.252  16.099  1.0829  0.3745 -0.8178
16118TIP3   OH269844   4.162   5.384  12.561  0.8804 -0.3007  0.5708
16118TIP3    H169845   4.230   5.321  12.537  1.1696 -0.0461  0.7131
16118TIP3    H269846   4.208   5.452  12.609  1.0575  1.3494 -1.7530
16119TIP3   OH269847   4.247   2.019   0.773  0.1996  0.6599  0.2426
16119TIP3    H169848   4.237   1.986   0.862  0.7876  2.3081  0.9684
16119TIP3    H269849   4.339   2.003   0.750 -0.1539 -0.5399 -0.4332
16120TIP3   OH269850   5.310   3.127  11.407 -0.3106 -0.2473 -0.0724
16120TIP3    H169851   5.314   3.032  11.422  1.2336 -0.0367  1.1525
16120TIP3    H269852   5.282   3.136  11.316  0.7687 -1.9232 -0.6148
16121TIP3   OH269853   3.212   1.681  12.478  0.3669  0.0639 -0.3934
16121TIP3    H169854   3.263   1.752  12.517 -1.0770  1.7910 -1.5041
16121TIP3    H269855   3.228   1.688  12.384 -1.7679  0.6244 -0.7775
16122TIP3   OH269856   1.178   4.098  16.742 -0.1127  0.9554  0.7569
16122TIP3    H169857   1.233   4.175  16.760  1.0774  1.0184 -2.5033
16122TIP3    H269858   1.217   4.029  16.796 -0.4780  2.2862  2.8558
16123TIP3   OH269859   1.681   4.070   1.737  0.2675  0.2085  0.0549
16123TIP3    H169860   1.708   3.980   1.757 -0.4263 -0.1699 -0.6524
16123TIP3    H269861   1.731   4.092   1.658 -1.4406 -0.5092 -1.2852
16124TIP3   OH269862   0.029   1.051  14.055 -0.2832 -0.1383  0.9010
16124TIP3    H169863  -0.059   1.082  14.031  0.3870  0.4195 -1.0512
16124TIP3    H269864   0.024   0.956  14.050 -0.9885 -0.1531  1.6819
16125TIP3   OH269865   2.581   1.497   1.394 -0.0486  0.6225  0.3349
16125TIP3    H169866   2.578   1.458   1.481  1.5817 -0.5972 -0.1061
16125TIP3    H269867   2.490   1.497   1.364 -0.2524 -2.0892  0.7066
16126TIP3   OH269868   3.971   6.570   5.484 -0.1577 -0.3513 -0.1073
16126TIP3    H169869   4.007   6.523   5.559 -0.3352 -0.3169 -0.0007
16126TIP3    H269870   3.986   6.511   5.410  2.5919  0.7732 -0.5668
16127TIP3   OH269871   4.710   5.753  11.521 -0.4297 -0.0490  0.3589
16127TIP3    H169872   4.632   5.786  11.476 -0.2055  0.0005 -0.0011
16127TIP3    H269873   4.774   5.824  11.513 -0.7128  0.3871  1.6714
16128TIP3   OH269874   1.179   0.789   6.312 -0.2490  0.0822 -0.2455
16128TIP3    H169875   1.269   0.798   6.345  0.1968  0.0396 -1.3725
16128TIP3    H269876   1.177   0.701   6.273  0.2943  1.2696 -3.1971
16129TIP3   OH269877   5.869   5.167   1.745  0.4931 -0.2875  0.1013
16129TIP3    H169878   5.855   5.237   1.808 -0.0947  1.3418 -1.7248
16129TIP3    H269879   5.940   5.199   1.689  1.0834 -1.7289 -0.0402
16130TIP3   OH269880   3.525   6.534  11.922  0.0856 -0.8604 -0.8082
16130TIP3    H169881   3.561   6.509  11.836  3.9548 -0.1592  0.4085
16130TIP3    H269882   3.588   6.500  11.985 -3.2402 -2.4374  2.0084
16131TIP3   OH269883   0.596   1.495  14.197 -0.0771 -0.1456  0.1614
16131TIP3    H169884   0.539   1.571  14.186 -0.2314 -0.1702  0.7181
16131TIP3    H269885   0.655   1.497  14.123  1.0438  1.4976  1.0456
16132TIP3   OH269886   5.487   3.627   4.855  0.4452  0.5171 -0.1241
16132TIP3    H169887   5.498   3.660   4.945  1.8116  2.0456 -0.8066
16132TIP3    H269888   5.413   3.567   4.861 -1.5328  2.9342  1.4140
16133TIP3   OH269889   4.377   3.912  14.440  0.0569  0.7301  0.0077
16133TIP3    H169890   4.446   3.887  14.501  0.0883  1.7483  0.4051
16133TIP3    H269891   4.362   3.833  14.387 -0.8736 -0.6266  2.1567
16134TIP3   OH269892   1.350   5.316  13.738 -0.0336  0.1160  1.2296
16134TIP3    H169893   1.440   5.292  13.758 -0.0756 -0.7984  0.3642
16134TIP3    H269894   1.319   5.359  13.818  1.4134  1.1927  1.2439
16135TIP3   OH269895   4.670   3.845   1.836  0.0394  0.7890 -0.1615
16135TIP3    H169896   4.595   3.877   1.886 -0.2170 -1.0749  0.7422
16135TIP3    H269897   4.671   3.751   1.852  1.1366  0.4099 -2.1262
16136TIP3   OH269898   2.754   2.944  14.661 -0.4604 -0.0491 -0.1969
16136TIP3    H169899   2.684   2.913  14.603  0.1813 -2.5474  0.2417
16136TIP3    H269900   2.711   2.955  14.746 -1.1393  2.4760 -0.7686
16137TIP3   OH269901   3.385   2.794  12.463  0.1535  0.0596  0.0784
16137TIP3    H169902   3.466   2.805  12.414  0.6471  1.2655  1.1001
16137TIP3    H269903   3.326   2.747  12.404  1.2043  0.1944 -1.0994
16138TIP3   OH269904   5.215   3.911  12.967 -0.2465 -0.3564  0.1794
16138TIP3    H169905   5.136   3.864  12.991  1.3237 -1.7963  3.1034
16138TIP3    H269906   5.190   4.003  12.969 -2.2876 -0.8417 -1.0279
16139TIP3   OH269907   4.060   0.415  11.816  0.2000 -0.1226 -0.9649
16139TIP3    H169908   4.139   0.449  11.858  0.3654 -0.8671 -0.6645
16139TIP3    H269909   4.085   0.330  11.781 -0.5362 -0.4900 -0.6341
16140TIP3   OH269910   0.199   1.390  15.875 -0.5674  0.3035  0.1063
16140TIP3    H169911   0.234   1.379  15.787 -0.1057  0.4264  0.2726
16140TIP3    H269912   0.265   1.353  15.933 -0.6237  0.7084  0.4366
16141TIP3   OH269913   2.554   1.504  13.865  0.6360  0.5814 -0.1663
16141TIP3    H169914   2.569   1.559  13.788 -0.5683  0.0902 -0.7675
16141TIP3    H269915   2.459   1.495  13.871  0.7498 -0.2283  0.7908
16142TIP3   OH269916   3.213   1.218   5.749  0.3298  0.3154 -0.5981
16142TIP3    H169917   3.212   1.138   5.697  1.8602 -0.4101  0.4266
16142TIP3    H269918   3.152   1.201   5.821  2.1491 -0.8035  0.7704
16143TIP3   OH269919   3.037   1.592  11.821  0.1628  0.0131  0.2375
16143TIP3    H169920   2.996   1.586  11.907 -0.6566 -2.1090 -0.2583
16143TIP3    H269921   3.131   1.594  11.840 -0.0301  1.4559  1.2241
16144TIP3   OH269922   0.238   4.747  15.162 -0.0811  0.0237  0.9090
16144TIP3    H169923   0.174   4.807  15.125  0.7739 -0.9045 -2.3940
16144TIP3    H269924   0.192   4.663  15.167  0.3299 -0.2475  0.2224
16145TIP3   OH269925   0.552   5.003  11.903 -0.2801 -0.0854 -0.6562
16145TIP3    H169926   0.576   4.918  11.941 -2.0642 -0.5348 -0.4501
16145TIP3    H269927   0.623   5.062  11.929  0.5092 -1.2884  0.0030
16146TIP3   OH269928   3.304   4.384   5.439  0.0754  0.4128  0.1976
16146TIP3    H169929   3.340   4.297   5.421 -0.2479 -0.2386  2.4453
16146TIP3    H269930   3.253   4.373   5.519 -2.8162  1.9384 -1.2742
16147TIP3   OH269931   2.771   4.082   0.484  0.0038 -0.3336 -0.1238
16147TIP3    H169932   2.696   4.032   0.517 -0.6415 -0.4731 -1.7100
16147TIP3    H269933   2.843   4.019   0.481 -0.6931 -1.1167 -1.7078
16148TIP3   OH269934   4.574   6.764  12.553 -0.7327  0.0259 -0.6224
16148TIP3    H169935   4.540   6.833  12.609 -0.4314  2.3421 -3.0729
16148TIP3    H269936   4.655   6.735  12.596  0.5553  3.0979 -0.7148
16149TIP3   OH269937   0.206   6.238  12.762 -0.1057  0.2162  0.2217
16149TIP3    H169938   0.191   6.148  12.732 -0.4231 -0.2660  1.7270
16149TIP3    H269939   0.299   6.241  12.782  0.3643  0.8884 -1.7813
16150TIP3   OH269940   2.647   4.289   6.163  0.2172 -0.2356  0.3259
16150TIP3    H169941   2.697   4.216   6.126  0.5865  0.4626 -0.6290
16150TIP3    H269942   2.697   4.367   6.136 -0.0058  0.3528  1.5623
16151TIP3   OH269943   2.386   3.046  16.782  0.6219 -0.0084  0.0396
16151TIP3    H169944   2.422   2.967  16.744  2.8940  1.8988 -2.1299
16151TIP3    H269945   2.323   3.078  16.718 -0.8945 -0.4004  1.2683
16152TIP3   OH269946   5.597   0.193   2.680  0.0248  0.0129 -0.4135
16152TIP3    H169947   5.586   0.260   2.613 -1.1115  0.2817  0.0235
16152TIP3    H269948   5.509   0.178   2.714 -0.3288 -3.8001 -2.4760
16153TIP3   OH269949   6.378   5.797  13.169  0.0357  0.0229  0.4318
16153TIP3    H169950   6.318   5.852  13.119 -0.4000 -0.4617  0.4135
16153TIP3    H269951   6.421   5.858  13.229 -0.4110  0.3894  0.3882
16154TIP3   OH269952   2.114   5.757  13.665 -0.1474  0.0842 -0.5587
16154TIP3    H169953   2.055   5.767  13.590  0.1433  0.7674 -0.7022
16154TIP3    H269954   2.202   5.754  13.626 -0.1319 -3.0732 -0.5592
16155TIP3   OH269955   5.614   2.994   2.687  0.0098  0.3022  0.2180
16155TIP3    H169956   5.576   2.906   2.686 -0.7466  0.6060  1.0573
16155TIP3    H269957   5.708   2.979   2.673 -0.1479 -0.6127  0.0751
16156TIP3   OH269958   0.375   1.910  15.779  0.6000  0.2077  0.0899
16156TIP3    H169959   0.324   1.837  15.814 -2.8328  1.0406 -2.6352
16156TIP3    H269960   0.455   1.869  15.745 -1.2091 -2.3962 -1.3757
16157TIP3   OH269961   4.341   3.400   2.362 -0.3683  0.5462  0.4490
16157TIP3    H169962   4.412   3.355   2.315  0.0294 -0.6593  2.1198
16157TIP3    H269963   4.263   3.382   2.310  0.3012  0.7110 -0.6669
16158TIP3   OH269964   3.381   2.004  14.690  0.2130 -0.1058  0.7556
16158TIP3    H169965   3.350   1.977  14.776  0.1092 -1.5044  0.3104
16158TIP3    H269966   3.474   1.982  14.691 -0.1054 -1.6266 -0.0113
16159TIP3   OH269967   4.550   0.904  12.594 -0.2465 -0.2994 -0.4845
16159TIP3    H169968   4.593   0.977  12.639  0.3303 -1.5078  1.0056
16159TIP3    H269969   4.550   0.833  12.658 -2.9083 -0.9197 -1.0381
16160TIP3   OH269970   0.172   1.381  11.276 -0.0870  0.2978 -0.2041
16160TIP3    H169971   0.113   1.341  11.340 -1.1125  0.8811 -0.7660
16160TIP3    H269972   0.176   1.319  11.204  2.0405 -0.9430  0.8867
16161TIP3   OH269973   1.046   4.522  16.128 -0.4695 -0.1490 -0.2632
16161TIP3    H169974   0.972   4.490  16.078 -1.1051 -0.1251  0.6357
16161TIP3    H269975   1.019   4.513  16.220  1.1220 -1.3630  0.1432
16162TIP3   OH269976   2.763   6.460  14.315  0.3470 -0.1998  0.1341
16162TIP3    H169977   2.816   6.484  14.391  1.0563 -0.6737 -0.1989
16162TIP3    H269978   2.718   6.380  14.342 -1.5773  1.1044  1.0381
16163TIP3   OH269979   3.240   5.100   4.215  0.2580  0.1655  0.1493
16163TIP3    H169980   3.272   5.187   4.190 -0.0980  0.4658  0.7211
16163TIP3    H269981   3.148   5.113   4.234  0.3196 -0.2363  0.7240
16164TIP3   OH269982   0.477   4.775  13.566 -0.0954  0.4153 -0.0906
16164TIP3    H169983   0.425   4.718  13.510  2.0563  0.9928 -2.8988
16164TIP3    H269984   0.567   4.763  13.536  0.8383  2.7845  1.4690
16165TIP3   OH269985   0.220   4.101  11.082  0.2241  0.0213  0.0511
16165TIP3    H169986   0.158   4.164  11.119 -0.4536  0.2632 -1.4407
16165TIP3    H269987   0.258   4.145  11.007 -1.8854 -2.0225 -2.3934
16166TIP3   OH269988   2.124   2.052   0.171 -0.3284 -0.2826 -0.2340
16166TIP3    H169989   2.209   2.009   0.183 -0.0901  0.4310  0.7013
16166TIP3    H269990   2.137   2.111   0.098 -0.1919 -0.6072 -0.4746
16167TIP3   OH269991   2.763   1.699  12.596 -1.0248 -0.3988 -0.4259
16167TIP3    H169992   2.802   1.757  12.530  0.0754 -0.1056  0.4511
16167TIP3    H269993   2.671   1.724  12.598 -0.8945  0.1888 -1.2327
16168TIP3   OH269994   1.664   6.723  15.460 -0.3179  0.2866  0.3493
16168TIP3    H169995   1.666   6.662  15.387 -1.2903 -1.5145  1.7250
16168TIP3    H269996   1.582   6.703  15.505 -0.6030  2.5479  0.9662
16169TIP3   OH269997   3.884   4.933   4.441 -0.2894 -0.3907  0.7128
16169TIP3    H169998   3.889   4.895   4.529  4.6035 -0.1694  0.7775
16169TIP3    H269999   3.909   4.861   4.383  0.2342  0.4183 -0.0878
16170TIP3   OH270000   0.114   3.888   3.238 -0.1813  0.3015 -0.1671
16170TIP3    H170001   0.165   3.839   3.173  3.3131  2.2765  0.8709
16170TIP3    H270002   0.062   3.821   3.283  1.2240 -1.8252 -1.5323
16171TIP3   OH270003   5.319   1.033   4.270  0.8940  0.3944  0.0729
16171TIP3    H170004   5.413   1.014   4.280  0.9150  0.6428  0.3562
16171TIP3    H270005   5.312   1.069   4.181  1.0816  0.4713  0.0894
16172TIP3   OH270006   0.360   6.556   3.154 -0.4892  0.3249 -0.3100
16172TIP3    H170007   0.275   6.521   3.182 -0.5928 -0.2605 -1.3061
16172TIP3    H270008   0.417   6.542   3.229 -1.5942  2.0747  0.9556
16173TIP3   OH270009   5.913   3.375   3.217  0.1364  0.1307  0.1014
16173TIP3    H170010   5.992   3.333   3.183 -0.0094  1.0865 -1.5302
16173TIP3    H270011   5.859   3.303   3.249  1.6661 -0.5358  1.2866
16174TIP3   OH270012   3.339   4.514   5.875  0.8973 -0.3531 -0.5864
16174TIP3    H170013   3.350   4.599   5.918  1.2419 -1.4074  1.5087
16174TIP3    H270014   3.273   4.530   5.807  0.1450  1.3197  0.4768
16175TIP3   OH270015   0.493   4.384  14.672  0.5658  0.1162  0.0319
16175TIP3    H170016   0.457   4.334  14.745  1.0290 -0.2181  0.0397
16175TIP3    H270017   0.439   4.360  14.597  0.4105  0.0638  0.1607
16176TIP3   OH270018   1.825   0.990  17.014  0.6330  0.2692  0.0771
16176TIP3    H170019   1.875   0.956  17.088  0.7286  0.2619  0.0085
16176TIP3    H270020   1.772   0.916  16.985 -1.9264  1.1309  2.2147
16177TIP3   OH270021   2.924   5.282   3.625 -0.9131  0.0229  0.3472
16177TIP3    H170022   2.920   5.314   3.535 -0.7379 -0.9633 -0.0260
16177TIP3    H270023   2.919   5.361   3.679 -0.8935  0.6362 -0.5258
16178TIP3   OH270024   3.515   6.658  13.436  0.1149  0.1699  0.3778
16178TIP3    H170025   3.459   6.736  13.431 -0.3491 -0.1831 -0.0547
16178TIP3    H270026   3.505   6.616  13.350 -0.1711 -0.7319  0.8407
16179TIP3   OH270027   4.467   6.789   2.013  0.3554  0.1195 -0.2465
16179TIP3    H170028   4.496   6.699   2.026 -1.1261 -0.1814  1.1995
16179TIP3    H270029   4.530   6.842   2.062  1.8137  0.0186 -1.8999
16180TIP3   OH270030   2.079   0.977  15.161 -0.4055  0.0742 -0.3533
16180TIP3    H170031   2.128   0.925  15.224 -1.1888  0.4623  0.5958
16180TIP3    H270032   1.997   0.997  15.204 -0.9819  0.3266 -1.5171
16181TIP3   OH270033   2.605   5.817   2.257  0.1523 -0.4684  0.2062
16181TIP3    H170034   2.602   5.800   2.351 -0.0399  0.5002  0.3811
16181TIP3    H270035   2.541   5.887   2.243 -0.3718 -1.1075 -0.7596
16182TIP3   OH270036   3.956   4.630   2.245 -0.3664 -0.0752  0.3175
16182TIP3    H170037   3.929   4.689   2.314 -0.3844  1.8470 -1.2362
16182TIP3    H270038   3.880   4.574   2.230 -0.6850  0.1072  1.1999
16183TIP3   OH270039   1.148   0.549  17.081  0.0020 -0.4180  0.5515
16183TIP3    H170040   1.131   0.563  16.988 -0.3197  0.3048  0.7136
16183TIP3    H270041   1.202   0.470  17.084 -0.4137 -0.7409 -0.2111
16184TIP3   OH270042   3.186   2.293  12.632 -0.2266  0.0859  0.8852
16184TIP3    H170043   3.156   2.300  12.722 -1.1579  2.3221  0.4587
16184TIP3    H270044   3.115   2.329  12.579  1.4769  1.6088 -0.4925
16185TIP3   OH270045   5.237   1.809  14.005  0.1782 -0.0882 -0.3896
16185TIP3    H170046   5.224   1.883  14.065  0.0250 -1.9651  2.0925
16185TIP3    H270047   5.158   1.808  13.951 -1.5200 -0.4253  1.9308
16186TIP3   OH270048   4.810   6.666   0.093  0.1601  0.8155  0.1361
16186TIP3    H170049   4.763   6.692   0.173  0.7835  0.8736  0.4895
16186TIP3    H270050   4.747   6.612   0.045 -0.8349  2.1870 -0.1644
16187TIP3   OH270051   0.282   4.991   6.111  0.5620 -0.7002  0.3695
16187TIP3    H170052   0.266   5.073   6.157  1.8343 -0.7749  1.0196
16187TIP3    H270053   0.318   4.933   6.179 -1.1644 -2.1232  0.1550
16188TIP3   OH270054   1.285   0.904   1.683  0.5072 -0.2357 -0.1875
16188TIP3    H170055   1.227   0.963   1.635  0.4237 -0.5452 -0.4771
16188TIP3    H270056   1.225   0.849   1.734  0.5871 -0.0219  0.1379
16189TIP3   OH270057   4.321   3.196  13.477 -0.4436  0.6175  0.6052
16189TIP3    H170058   4.253   3.239  13.529  0.9544  0.1610  2.9475
16189TIP3    H270059   4.397   3.192  13.534  1.3452  0.3455 -1.6223
16190TIP3   OH270060   3.019   3.953   5.441 -0.0096 -1.1497 -1.0624
16190TIP3    H170061   2.953   3.888   5.418  1.8732 -2.4607 -3.1401
16190TIP3    H270062   3.102   3.905   5.440  1.0574  0.5061  1.0875
16191TIP3   OH270063   3.805   1.610   5.070 -0.4023  0.3483 -0.2181
16191TIP3    H170064   3.788   1.604   4.976 -2.2522  2.1319 -0.0567
16191TIP3    H270065   3.749   1.542   5.109 -1.3104  1.0430 -0.2758
16192TIP3   OH270066   5.950   2.474  15.532  0.1628 -0.0628 -0.4029
16192TIP3    H170067   5.876   2.427  15.572  0.0493  0.4008 -0.0679
16192TIP3    H270068   6.002   2.405  15.490  0.3430 -0.5642  0.6354
16193TIP3   OH270069   2.244   6.769  13.696  0.7995 -0.5306  0.4715
16193TIP3    H170070   2.190   6.712  13.642  1.0183 -1.7328  1.4687
16193TIP3    H270071   2.218   6.858  13.671 -1.1237 -1.0666  0.3950
16194TIP3   OH270072   4.138   6.791   3.017 -0.3701  0.5206  1.1615
16194TIP3    H170073   4.078   6.786   2.943  0.0752  0.1436  0.8182
16194TIP3    H270074   4.197   6.863   2.994 -1.8204  2.1734  2.3662
16195TIP3   OH270075   0.394   3.913  16.501 -0.1584  0.1875  0.4379
16195TIP3    H170076   0.439   3.975  16.443  1.4902  0.1420  1.5831
16195TIP3    H270077   0.459   3.844  16.517 -1.2231 -0.7508  0.8845
16196TIP3   OH270078   4.130   4.459   3.422 -0.2696 -0.3141  0.1579
16196TIP3    H170079   4.218   4.462   3.458 -0.6518 -1.2154  1.2104
16196TIP3    H270080   4.131   4.522   3.350  0.9750  0.3262  0.7158
16197TIP3   OH270081   6.209   3.596   4.721  0.4888 -0.2728 -0.2862
16197TIP3    H170082   6.209   3.658   4.648  2.2438 -0.6188 -0.6413
16197TIP3    H270083   6.297   3.557   4.719  1.5649  1.4450  3.4535
16198TIP3   OH270084   6.063   4.387  16.880  0.0215 -0.2934  0.1233
16198TIP3    H170085   5.988   4.440  16.908 -0.3547  0.1340 -1.5815
16198TIP3    H270086   6.026   4.324  16.818  0.8716 -0.9280  0.2534
16199TIP3   OH270087   2.954   1.135   3.579 -0.2858  0.3836 -0.7273
16199TIP3    H170088   3.034   1.151   3.629 -0.7084 -1.4009  0.6062
16199TIP3    H270089   2.895   1.092   3.640 -0.8914 -1.7847 -2.6819
16200TIP3   OH270090   4.304   2.611  16.218  0.8049 -0.6807 -0.2212
16200TIP3    H170091   4.305   2.626  16.312  0.0769 -0.9786 -0.1613
16200TIP3    H270092   4.253   2.685  16.183  0.6820 -0.8166 -0.3305
16201TIP3   OH270093   6.358   0.274  11.193  0.0623 -0.0413 -0.0098
16201TIP3    H170094   6.319   0.336  11.131 -3.9452 -2.1471  0.0762
16201TIP3    H270095   6.328   0.305  11.279  2.0571  0.4867  0.5358
16202TIP3   OH270096   5.977   4.354   0.176  0.2677 -0.2799  0.2663
16202TIP3    H170097   6.052   4.375   0.231  1.1927 -0.0546 -1.0223
16202TIP3    H270098   6.008   4.369   0.086 -1.4828  0.3823 -0.2829
16203TIP3   OH270099   5.485   0.325   4.492  0.3167 -0.2230  0.0942
16203TIP3    H170100   5.526   0.250   4.450  1.1244 -1.0049  2.2044
16203TIP3    H270101   5.558   0.382   4.516 -0.1070  0.0595  0.7227
16204TIP3   OH270102   4.790   2.395   1.507 -0.2759 -0.2159  0.0521
16204TIP3    H170103   4.756   2.312   1.475 -0.1627  0.9166 -3.3981
16204TIP3    H270104   4.884   2.381   1.518 -0.1165 -0.3739 -1.3370
16205TIP3   OH270105   0.519   5.988   5.328  0.1817  0.5175 -0.8645
16205TIP3    H170106   0.554   6.033   5.405  0.2829 -2.1315  0.7802
16205TIP3    H270107   0.435   6.031   5.312 -0.4000  0.4170  1.5051
16206TIP3   OH270108   2.837   3.887  12.719  0.3971 -0.6421  0.0991
16206TIP3    H170109   2.816   3.825  12.649 -0.0339 -1.9725  1.3400
16206TIP3    H270110   2.756   3.893  12.770  0.8614 -0.1464  0.7988
16207TIP3   OH270111   1.750   1.036   0.443 -0.0964  0.1384 -0.2233
16207TIP3    H170112   1.673   1.027   0.387  0.9917  1.0083 -1.9811
16207TIP3    H270113   1.804   0.960   0.422 -0.1373 -0.0804  0.4481
16208TIP3   OH270114   6.364   4.066  12.140 -0.0400 -0.3707  0.1170
16208TIP3    H170115   6.408   4.146  12.110  1.4135 -0.9511  0.6265
16208TIP3    H270116   6.432   4.017  12.187 -0.8566 -1.9895 -0.3200
16209TIP3   OH270117   0.928   5.785   1.380 -0.1823  0.0402 -0.2300
16209TIP3    H170118   0.967   5.727   1.314 -0.2680  1.2073 -1.3474
16209TIP3    H270119   0.838   5.754   1.389 -0.7648  1.0094 -2.1109
16210TIP3   OH270120   5.788   5.000  12.249 -0.4283 -0.0480 -0.0875
16210TIP3    H170121   5.715   5.045  12.291 -0.2358 -0.8206  1.1261
16210TIP3    H270122   5.852   4.989  12.319  0.6729  0.2269 -1.0313
16211TIP3   OH270123   2.658   1.924   6.071  0.8723 -0.0858 -0.7281
16211TIP3    H170124   2.714   1.936   6.147 -1.5762  0.4212  1.1395
16211TIP3    H270125   2.671   1.833   6.045  0.0874 -1.0098  1.8265
16212TIP3   OH270126   2.324   3.906  15.926  0.6883  0.2614 -0.2588
16212TIP3    H170127   2.358   3.977  15.871 -0.6535  1.1465 -0.0107
16212TIP3    H270128   2.256   3.865  15.872 -0.2797  0.8021  0.5076
16213TIP3   OH270129   3.694   5.402  16.002  0.2000  0.0505  0.3283
16213TIP3    H170130   3.644   5.412  16.083  1.3350 -0.3637  1.1065
16213TIP3    H270131   3.648   5.457  15.938 -0.7690  0.3037  1.2215
16214TIP3   OH270132   3.232   0.466   3.678 -0.1884 -0.1561  0.8268
16214TIP3    H170133   3.195   0.553   3.664  0.7003 -0.0189 -0.9980
16214TIP3    H270134   3.295   0.478   3.750  2.2001  1.5009 -1.3870
16215TIP3   OH270135   5.867   1.929   1.453  0.6604 -1.2695 -0.3161
16215TIP3    H170136   5.812   1.900   1.381  0.1925 -2.3239  0.4473
16215TIP3    H270137   5.891   2.019   1.430 -1.7366 -0.5991 -0.4757
16216TIP3   OH270138   4.554   5.038  16.809  0.2593 -0.2082 -0.8335
16216TIP3    H170139   4.607   5.118  16.806 -2.2029  1.5240 -1.2326
16216TIP3    H270140   4.504   5.040  16.727 -2.0252 -0.5392  0.4736
16217TIP3   OH270141   6.821   5.677   1.583 -0.0822 -0.1803 -0.1902
16217TIP3    H170142   6.727   5.669   1.565  0.0435 -2.5914 -0.1187
16217TIP3    H270143   6.835   5.627   1.663  1.2027  0.5645  0.0806
16218TIP3   OH270144   2.514   0.336   2.275  0.6555  0.3886 -0.0595
16218TIP3    H170145   2.434   0.287   2.296  1.4445 -1.4714 -1.1016
16218TIP3    H270146   2.573   0.318   2.349  2.4102 -3.8190 -2.1482
16219TIP3   OH270147   2.140   5.404   0.544 -0.0909  0.4003 -0.0442
16219TIP3    H170148   2.190   5.410   0.625 -0.9449  0.4837  0.4867
16219TIP3    H270149   2.181   5.469   0.486 -0.4671  1.4940  0.8716
16220TIP3   OH270150   6.230   2.084  13.145  0.5378  0.0081 -0.2040
16220TIP3    H170151   6.136   2.102  13.150  0.9701  2.9217 -0.8858
16220TIP3    H270152   6.246   2.019  13.213 -1.6178  1.1911  1.5417
16221TIP3   OH270153   3.829   5.521  10.996  0.2955 -0.0669  0.4184
16221TIP3    H170154   3.889   5.501  10.924 -1.2539  0.2415 -1.0130
16221TIP3    H270155   3.758   5.458  10.987 -1.8322  2.2965 -0.7264
16222TIP3   OH270156   3.372   1.935   0.600  0.0434  0.5809 -0.4856
16222TIP3    H170157   3.449   1.896   0.558  0.4858  0.0793  0.7404
16222TIP3    H270158   3.404   1.966   0.684 -0.8796  1.3341 -0.3971
16223TIP3   OH270159   2.960   6.808   0.047 -0.8507 -0.1124 -0.1177
16223TIP3    H170160   3.053   6.818   0.028 -0.8697 -1.1526 -0.9029
16223TIP3    H270161   2.918   6.881   0.002 -0.4005  0.5139  0.4616
16224TIP3   OH270162   1.960   3.066   2.173 -0.5558  0.0492 -0.0124
16224TIP3    H170163   1.933   3.083   2.263 -1.4700  3.7129 -0.8137
16224TIP3    H270164   2.054   3.087   2.172 -0.7516  0.9715 -0.0674
16225TIP3   OH270165   5.904   5.054  13.487  0.0999 -0.0808 -0.4017
16225TIP3    H170166   5.845   5.130  13.488  1.7661  1.2662  1.1481
16225TIP3    H270167   5.957   5.064  13.566  0.0155 -3.1884  0.1649
16226TIP3   OH270168   5.406   5.912  15.522 -0.0143 -0.0618 -0.0496
16226TIP3    H170169   5.347   5.900  15.596  0.1216 -1.1206 -0.0877
16226TIP3    H270170   5.360   5.872  15.448  1.3521 -2.3683  0.2430
16227TIP3   OH270171   6.080   4.408   2.409  0.1339 -0.0848 -0.9176
16227TIP3    H170172   6.157   4.464   2.407 -0.1845  0.4591  0.6176
16227TIP3    H270173   6.025   4.440   2.338 -0.2767  1.9465  0.2302
16228TIP3   OH270174   2.443   2.506  16.388 -0.9114 -0.4138 -0.3398
16228TIP3    H170175   2.464   2.427  16.436  0.6885 -0.8202 -1.5837
16228TIP3    H270176   2.388   2.477  16.316 -1.3334 -0.1935 -0.1084
16229TIP3   OH270177   1.971   5.733   3.093 -0.1364 -0.1006 -0.1791
16229TIP3    H170178   1.907   5.691   3.150 -1.7185  1.1746 -0.9404
16229TIP3    H270179   2.001   5.663   3.035 -1.8298 -0.4630 -0.6527
16230TIP3   OH270180   4.944   4.586   3.552 -0.5662 -0.5459  0.0237
16230TIP3    H170181   4.863   4.543   3.578 -0.9309 -0.2795 -0.6720
16230TIP3    H270182   4.965   4.645   3.625 -0.7323 -0.9730  0.4175
16231TIP3   OH270183   4.085   0.911   3.410  0.1770 -0.0575 -0.0853
16231TIP3    H170184   4.063   0.998   3.377 -0.2249 -0.6499 -1.4798
16231TIP3    H270185   4.004   0.861   3.401  0.8235 -1.0054 -0.8610
16232TIP3   OH270186   5.719   6.426   0.276  0.1252 -0.0055  0.5232
16232TIP3    H170187   5.807   6.431   0.313  1.1770  0.0716 -1.7665
16232TIP3    H270188   5.725   6.357   0.210 -1.4067  0.2858  0.0367
16233TIP3   OH270189   1.344   3.539  12.362 -0.5273 -0.0814 -0.2053
16233TIP3    H170190   1.253   3.546  12.390 -0.8108  0.7900 -1.2364
16233TIP3    H270191   1.396   3.554  12.441 -1.2282 -2.5167  0.8056
16234TIP3   OH270192   4.079   6.649  13.874  0.3477 -0.0033 -0.5393
16234TIP3    H170193   4.111   6.738  13.862  0.0382  0.4444  1.5909
16234TIP3    H270194   3.993   6.648  13.833  1.1444  0.0705 -2.3150
16235TIP3   OH270195   1.551   5.382  12.107  0.1354  0.0730 -0.5414
16235TIP3    H170196   1.516   5.422  12.187  1.1583  1.3403 -0.6930
16235TIP3    H270197   1.521   5.291  12.110  0.8982 -0.1560  1.7338
16236TIP3   OH270198   1.461   2.666   0.393 -0.2343  0.5101  0.7682
16236TIP3    H170199   1.545   2.629   0.365  0.7193  2.6160  0.6594
16236TIP3    H270200   1.432   2.609   0.464  1.3226 -0.2251  0.8535
16237TIP3   OH270201   3.023   0.355  15.787  0.3055 -0.1659  0.5256
16237TIP3    H170202   2.983   0.281  15.832 -0.9729  0.4718  0.4979
16237TIP3    H270203   3.112   0.361  15.823  0.6266 -2.0205  0.1290
16238TIP3   OH270204   0.050   5.550   2.829  0.5231 -0.2392 -0.0669
16238TIP3    H170205  -0.021   5.608   2.856 -1.6448 -3.6558  2.3545
16238TIP3    H270206   0.118   5.562   2.896  0.0937 -0.4580  0.4107
16239TIP3   OH270207   6.646   1.394  10.701  0.0128 -0.7069 -0.8413
16239TIP3    H170208   6.690   1.479  10.702 -0.4787 -0.4506 -0.7262
16239TIP3    H270209   6.568   1.408  10.647 -0.6858 -0.7712  0.1293
16240TIP3   OH270210   2.623   6.028   3.307 -0.0446 -0.5191  0.5007
16240TIP3    H170211   2.608   5.966   3.236 -0.3279  1.0818 -0.9120
16240TIP3    H270212   2.606   6.114   3.268  2.1871  0.6371  1.8180
16241TIP3   OH270213   6.679   4.554   5.709 -0.1566  0.0882  0.0278
16241TIP3    H170214   6.712   4.495   5.642  0.7750  1.0683 -0.4077
16241TIP3    H270215   6.713   4.517   5.791  2.7998  1.4216 -0.4401
16242TIP3   OH270216   0.969   2.118  14.730 -0.2485 -0.3088  0.0428
16242TIP3    H170217   0.944   2.211  14.727 -1.6549 -0.6900 -1.8123
16242TIP3    H270218   1.020   2.110  14.811 -0.7584  1.9110  0.6655
16243TIP3   OH270219   1.934   5.468   1.783 -0.7124 -0.0202 -0.2497
16243TIP3    H170220   1.884   5.548   1.796  0.8182  0.7064  1.6862
16243TIP3    H270221   2.013   5.495   1.736 -0.3916 -0.4614  0.0202
16244TIP3   OH270222   1.562   2.899  16.946 -0.0522 -0.0492 -0.7084
16244TIP3    H170223   1.557   2.968  17.012 -0.8293 -0.6975 -0.0737
16244TIP3    H270224   1.488   2.915  16.888  0.5208  0.4082 -1.3270
16245TIP3   OH270225   3.388   2.855   0.401 -0.3789  0.3944  0.5516
16245TIP3    H170226   3.396   2.900   0.485 -0.1293  0.7679  0.3335
16245TIP3    H270227   3.468   2.878   0.354 -0.2194 -0.3292  0.4536
16246TIP3   OH270228   0.230   4.082   0.839 -0.3745 -0.1477  0.1475
16246TIP3    H170229   0.196   4.093   0.928  2.9371  0.4309  1.4925
16246TIP3    H270230   0.234   4.171   0.804 -1.2227 -0.3257 -0.4307
16247TIP3   OH270231   1.021   4.445  11.487 -0.4509 -0.1449  0.0816
16247TIP3    H170232   1.059   4.370  11.441 -0.7564 -1.2572  1.5565
16247TIP3    H270233   1.056   4.521  11.442 -1.0797 -1.1521 -2.2432
16248TIP3   OH270234   1.550   1.049  13.697 -0.4204  0.6414 -0.1350
16248TIP3    H170235   1.637   1.029  13.731 -0.6013  0.1780  0.0731
16248TIP3    H270236   1.565   1.116  13.631  0.1047  0.5093 -0.1590
16249TIP3   OH270237   5.635   5.316  15.860  0.6626  0.5426 -0.1941
16249TIP3    H170238   5.586   5.242  15.825  0.1232  2.0165 -2.8710
16249TIP3    H270239   5.573   5.361  15.918 -0.3343  0.9749 -1.5537
16250TIP3   OH270240   3.107   6.149  15.259 -0.3974  0.4571  0.0407
16250TIP3    H170241   3.051   6.135  15.183  2.4196  0.9285 -2.2951
16250TIP3    H270242   3.094   6.241  15.282  0.4347  0.9797 -1.4404
16251TIP3   OH270243   0.023   5.198   6.152 -0.0310 -0.3790  0.1657
16251TIP3    H170244  -0.007   5.223   6.065 -0.5334  0.6200  0.6030
16251TIP3    H270245  -0.048   5.225   6.210  1.3049  1.2172  1.1379
16252TIP3   OH270246   5.048   1.920  14.598 -0.1501  0.0231 -0.4252
16252TIP3    H170247   5.124   1.907  14.656 -0.2542  3.0947  0.5817
16252TIP3    H270248   5.077   1.887  14.513  1.6037 -0.6598  0.3925
16253TIP3   OH270249   3.230   1.240   0.704 -0.1070 -0.7944  0.1602
16253TIP3    H170250   3.324   1.238   0.688  0.1886  0.5724  1.5702
16253TIP3    H270251   3.217   1.181   0.778 -0.2853 -0.5832  0.2979
16254TIP3   OH270252   5.021   3.567   1.190  0.4958 -0.1100 -0.0944
16254TIP3    H170253   4.934   3.548   1.225  0.5404 -2.1305 -0.9466
16254TIP3    H270254   5.005   3.620   1.112  0.2689  2.1957  1.3870
16255TIP3   OH270255   4.495   5.221   3.961  0.0711 -0.1282  0.6006
16255TIP3    H170256   4.573   5.169   3.943  1.1457  1.6363 -0.1503
16255TIP3    H270257   4.468   5.253   3.875 -0.4695  0.6771  1.0583
16256TIP3   OH270258   3.622   6.498   3.826  0.0109 -0.5077 -0.3050
16256TIP3    H170259   3.646   6.590   3.813  0.3928 -0.3788  1.1059
16256TIP3    H270260   3.654   6.453   3.748 -1.2024  0.7180 -1.5553
16257TIP3   OH270261   5.188   5.649   3.458 -0.0874 -0.2622 -0.1825
16257TIP3    H170262   5.241   5.622   3.534  2.0306  0.5669 -1.2848
16257TIP3    H270263   5.128   5.576   3.444 -0.0374 -0.7517  1.8262
16258TIP3   OH270264   3.399   0.960   0.615 -0.1157  0.4051  0.5788
16258TIP3    H170265   3.454   0.976   0.692 -0.6270 -1.9321  1.5172
16258TIP3    H270266   3.462   0.946   0.544  0.5605 -1.4100  1.4665
16259TIP3   OH270267   0.516   5.849   3.683 -0.7218 -0.1403  0.3286
16259TIP3    H170268   0.507   5.922   3.622  0.6928 -0.6180 -0.4993
16259TIP3    H270269   0.549   5.777   3.630 -1.2446 -1.1338  1.3077
16260TIP3   OH270270   5.240   1.849  12.506  0.5991  0.6072 -0.0118
16260TIP3    H170271   5.265   1.777  12.564 -0.0676  1.6356  1.6228
16260TIP3    H270272   5.158   1.821  12.466  0.8244  0.0797 -0.1167
16261TIP3   OH270273   0.224   4.247   5.422  0.2179 -0.1469  0.1781
16261TIP3    H170274   0.259   4.205   5.344 -0.9849  0.4375 -0.7150
16261TIP3    H270275   0.184   4.328   5.390 -3.9402 -1.7542  0.6184
16262TIP3   OH270276   4.292   5.603   4.256  0.0274  0.5420 -0.3274
16262TIP3    H170277   4.371   5.655   4.275  0.4198  0.2527 -1.0852
16262TIP3    H270278   4.325   5.529   4.204 -0.6775  0.1390 -0.2074
16263TIP3   OH270279   0.728   0.831  12.430  0.0443  0.0109 -0.1617
16263TIP3    H170280   0.788   0.903  12.449  1.6573 -0.8169 -1.7621
16263TIP3    H270281   0.700   0.800  12.516  2.6627 -0.1367  0.7282
16264TIP3   OH270282   5.741   4.143  14.053 -0.2883 -0.1262 -0.1326
16264TIP3    H170283   5.709   4.223  14.011 -1.5616 -1.4882 -1.9621
16264TIP3    H270284   5.734   4.160  14.147 -2.1146  1.3227 -0.4749
16265TIP3   OH270285   0.257   4.568   4.451 -0.7488 -0.1431  0.2968
16265TIP3    H170286   0.191   4.630   4.418 -0.7948  1.0965  2.4863
16265TIP3    H270287   0.256   4.581   4.546  2.6450 -0.0625  0.4515
16266TIP3   OH270288   4.429   2.202  16.043 -0.8108 -0.4352 -0.6828
16266TIP3    H170289   4.430   2.297  16.033 -3.1746 -0.3113 -0.4039
16266TIP3    H270290   4.452   2.186  16.134  0.7917 -0.2445 -1.0303
16267TIP3   OH270291   4.295   1.060   0.218 -0.0066  0.9527 -0.1205
16267TIP3    H170292   4.335   1.133   0.171 -2.8966  0.3885 -3.8759
16267TIP3    H270293   4.308   0.984   0.161 -0.7356 -0.6161  1.6788
16268TIP3   OH270294   1.473   6.232   0.612 -0.5118  0.3700 -0.4053
16268TIP3    H170295   1.413   6.167   0.575  0.0790  0.4105 -1.4881
16268TIP3    H270296   1.518   6.186   0.682 -1.1364  0.0579 -0.1978
16269TIP3   OH270297   1.263   4.356  16.896  0.5334 -0.7150  0.0253
16269TIP3    H170298   1.335   4.381  16.839  0.2094 -0.6181 -0.3515
16269TIP3    H270299   1.293   4.378  16.985  0.8534 -0.4140 -0.1563
16270TIP3   OH270300   0.506   2.332   5.450 -0.3016 -0.4778  0.4139
16270TIP3    H170301   0.433   2.270   5.461  0.9155 -2.3301 -1.1986
16270TIP3    H270302   0.581   2.288   5.489  0.2098  0.8970  1.0195
16271TIP3   OH270303   0.194   0.464  12.769  0.5284  0.6567 -0.5399
16271TIP3    H170304   0.237   0.545  12.798  0.1577  1.1594 -1.3697
16271TIP3    H270305   0.106   0.469  12.807  0.6223  0.4535 -0.2849
16272TIP3   OH270306   0.929   5.979   3.685 -0.3676 -0.0735  0.1909
16272TIP3    H170307   0.846   5.964   3.730 -0.1369  1.2194  1.0979
16272TIP3    H270308   0.908   6.038   3.613 -0.4017 -0.6108 -0.2513
16273TIP3   OH270309   2.308   2.800   4.422 -0.5903  0.2686 -0.4208
16273TIP3    H170310   2.315   2.845   4.338  0.1508  0.3607 -0.3173
16273TIP3    H270311   2.380   2.836   4.475 -0.2156 -0.7614 -0.2094
16274TIP3   OH270312   1.617   5.093   5.237 -0.1000 -0.2406 -0.2355
16274TIP3    H170313   1.535   5.068   5.195  0.0342 -0.7080 -0.2252
16274TIP3    H270314   1.602   5.077   5.330 -0.5875  1.3162 -0.0252
16275TIP3   OH270315   1.075   4.862   4.434  0.0718  0.1012 -0.5039
16275TIP3    H170316   1.027   4.779   4.425  1.0096 -0.6745  1.2362
16275TIP3    H270317   1.028   4.909   4.503  0.6717  0.1712 -0.1402
16276TIP3   OH270318   2.919   2.522   5.205  0.2189 -0.4106 -0.6219
16276TIP3    H170319   2.889   2.488   5.120 -1.6721 -0.0185 -0.1536
16276TIP3    H270320   2.911   2.617   5.196  0.5804 -0.3360 -0.1842
16277TIP3   OH270321   2.109   5.655   5.878 -0.6763 -0.2868 -0.2844
16277TIP3    H170322   2.142   5.695   5.958 -0.3473  1.0389 -1.0495
16277TIP3    H270323   2.188   5.623   5.833 -0.7043  0.2149 -0.7101
16278TIP3   OH270324   2.716   3.680   4.799  0.5533 -0.1382  0.1151
16278TIP3    H170325   2.719   3.749   4.733  1.4243  1.6096  1.8438
16278TIP3    H270326   2.624   3.677   4.828  0.5131  0.3200  0.0346
16279TIP3   OH270327   0.444   3.984  15.360 -0.4241  0.3419 -0.1996
16279TIP3    H170328   0.377   4.038  15.404 -0.3206  0.7984 -0.5971
16279TIP3    H270329   0.430   3.896  15.396  0.5299  0.9350  1.7741
16280TIP3   OH270330   3.249   5.133  13.809 -0.1763 -0.3924 -0.1516
16280TIP3    H170331   3.269   5.226  13.821  1.2542 -0.5099 -1.3775
16280TIP3    H270332   3.219   5.105  13.896 -1.0390  1.2844  0.1416
16281TIP3   OH270333   3.392   4.204  11.775 -0.3035  0.2428  0.2332
16281TIP3    H170334   3.326   4.264  11.741 -0.4097  0.7689  1.3237
16281TIP3    H270335   3.471   4.224  11.725 -0.5720  0.6613 -0.0279
16282TIP3   OH270336   3.849   2.345   3.393  0.1738 -0.0173 -0.3760
16282TIP3    H170337   3.861   2.307   3.306  1.2501  1.5183 -0.9489
16282TIP3    H270338   3.809   2.430   3.376  2.3844  1.2562  0.4001
16283TIP3   OH270339   4.888   3.689   0.047 -0.0984 -0.4537 -0.0925
16283TIP3    H170340   4.900   3.723   0.135  0.8990  1.3595 -0.8638
16283TIP3    H270341   4.826   3.750   0.006 -1.6002 -2.0254 -0.2809
16284TIP3   OH270342   3.178   2.724  15.195  0.3394  0.0128 -0.2998
16284TIP3    H170343   3.242   2.747  15.263  0.4063  0.8062 -0.6148
16284TIP3    H270344   3.116   2.797  15.196  0.5763  0.2568 -1.3632
16285TIP3   OH270345   2.524   0.561  15.865  0.2159  0.6202  0.3032
16285TIP3    H170346   2.495   0.576  15.956  0.8877  0.1598  0.5985
16285TIP3    H270347   2.611   0.522  15.874  0.3941  0.8126 -0.5501
16286TIP3   OH270348   4.077   2.990   3.166  0.1697 -0.6729  0.3741
16286TIP3    H170349   4.132   2.912   3.158  0.4597 -0.4661  0.3741
16286TIP3    H270350   3.989   2.955   3.180  0.4271 -1.0014  1.2353
16287TIP3   OH270351   0.655   0.872  16.854 -0.5852 -0.3342 -0.0126
16287TIP3    H170352   0.745   0.842  16.870 -0.2864  0.6885  0.3518
16287TIP3    H270353   0.603   0.792  16.850  0.4681 -0.9993 -1.1035
16288TIP3   OH270354   2.549   3.112   3.105 -0.4544 -0.3216 -0.2613
16288TIP3    H170355   2.612   3.182   3.125  0.0549 -0.3999 -1.4719
16288TIP3    H270356   2.601   3.047   3.058 -1.3257 -0.6582 -0.7676
16289TIP3   OH270357   4.998   4.928   3.653  0.0249  0.1197  0.5267
16289TIP3    H170358   5.040   4.887   3.577 -1.6466 -0.1759 -0.2890
16289TIP3    H270359   4.999   4.859   3.720 -0.5777 -0.4512 -0.0277
16290TIP3   OH270360   2.910   1.207   5.695 -0.1128 -0.0324  0.1554
16290TIP3    H170361   2.872   1.284   5.736  1.6780  0.9829  0.0023
16290TIP3    H270362   2.937   1.152   5.768  1.7700  1.1254  0.4060
16291TIP3   OH270363   2.781   6.564  15.300 -0.0019 -0.7209  0.1977
16291TIP3    H170364   2.792   6.648  15.257 -0.0199 -0.2987  1.0119
16291TIP3    H270365   2.811   6.578  15.389  2.2054 -2.1821 -0.2430
16292TIP3   OH270366   6.125   5.374  16.386 -0.4827  0.1087  0.1010
16292TIP3    H170367   6.147   5.331  16.469  0.6833 -0.9492 -0.7137
16292TIP3    H270368   6.068   5.446  16.411  0.2342  0.1216  1.8743
16293TIP3   OH270369   3.306   4.926   6.711  0.0511 -0.1773  0.0238
16293TIP3    H170370   3.364   5.001   6.728 -0.5069  0.6820 -1.5805
16293TIP3    H270371   3.253   4.918   6.790 -1.2002  2.3946 -0.4502
16294TIP3   OH270372   4.714   0.067  16.704 -0.2405  0.0636  0.5589
16294TIP3    H170373   4.785   0.111  16.752 -2.1122  3.8214  0.2436
16294TIP3    H270374   4.746   0.063  16.614  0.9698 -1.7242  1.0140
16295TIP3   OH270375   0.870   5.716  14.323 -0.0342 -0.1062 -0.0119
16295TIP3    H170376   0.917   5.789  14.282  0.4010 -1.4548 -2.0517
16295TIP3    H270377   0.858   5.652  14.252 -0.4332 -2.0079  1.6894
16296TIP3   OH270378   0.166   2.247  13.617 -0.2205  0.5677  0.0152
16296TIP3    H170379   0.163   2.323  13.675 -0.5575  0.7187 -0.1980
16296TIP3    H270380   0.154   2.283  13.529 -3.7701 -0.0043  0.1377
16297TIP3   OH270381   1.050   5.354   3.385 -0.1720 -0.1348  0.1016
16297TIP3    H170382   1.046   5.395   3.299 -0.0442 -2.5838 -1.1486
16297TIP3    H270383   0.972   5.385   3.431 -0.4483  0.8938 -1.0307
16298TIP3   OH270384   0.474   6.067  17.117  0.0683 -0.3656 -0.8664
16298TIP3    H170385   0.413   6.087  17.188 -1.1129  0.5750 -2.0791
16298TIP3    H270386   0.547   6.021  17.159 -0.6930 -0.0326  0.8937
16299TIP3   OH270387   5.447   1.560   6.313 -0.1084 -0.1830  0.4678
16299TIP3    H170388   5.492   1.485   6.352 -0.4857 -0.4921  0.3086
16299TIP3    H270389   5.481   1.565   6.224 -2.4706 -2.2230 -0.6797
16300TIP3   OH270390   6.386   1.747   6.664 -0.0898  0.0644  0.1472
16300TIP3    H170391   6.468   1.759   6.616 -0.4162  0.3921 -0.3401
16300TIP3    H270392   6.318   1.746   6.596 -0.7223  2.0604  0.6664
16301TIP3   OH270393   0.543   1.997   4.775 -0.1653  0.3607  0.3752
16301TIP3    H170394   0.625   1.964   4.738 -0.9015 -1.8441  0.5660
16301TIP3    H270395   0.480   1.993   4.703 -0.6091 -0.0480  0.7751
16302TIP3   OH270396   0.745   0.764   0.020 -0.4131  0.2776 -0.4720
16302TIP3    H170397   0.800   0.686   0.034  1.5717  1.6507 -0.1054
16302TIP3    H270398   0.664   0.744   0.066 -0.0626 -1.6521 -0.5643
16303TIP3   OH270399   5.159   2.127   3.724 -0.1947 -0.1085 -0.3143
16303TIP3    H170400   5.145   2.089   3.638 -0.2077 -1.9762  0.4626
16303TIP3    H270401   5.225   2.070   3.765  1.2594  1.8558  0.2280
16304TIP3   OH270402   6.613   2.991  11.818  0.2287 -0.0663 -0.2147
16304TIP3    H170403   6.634   2.997  11.725 -0.4509 -0.6034 -0.4141
16304TIP3    H270404   6.680   3.043  11.862  0.6003  0.1236 -0.9994
16305TIP3   OH270405   0.068   1.796  16.282 -0.2975  0.3425  0.0020
16305TIP3    H170406   0.028   1.845  16.210 -0.7252 -0.1685 -0.1123
16305TIP3    H270407   0.145   1.754  16.243 -0.5832 -0.0122 -0.1842
16306TIP3   OH270408   1.675   0.532   3.772  0.5068 -0.6776 -0.3072
16306TIP3    H170409   1.682   0.612   3.823  0.3690 -0.6601 -0.3151
16306TIP3    H270410   1.601   0.548   3.713  0.8872 -0.5570 -0.7615
16307TIP3   OH270411   4.622   2.053   3.866  0.0479  0.8405  0.0716
16307TIP3    H170412   4.706   2.019   3.898 -0.8488  0.1511  1.8598
16307TIP3    H270413   4.626   2.147   3.881  1.6971  1.3632 -2.8709
16308TIP3   OH270414   1.978   0.150  16.462  0.0912  0.3956  0.0563
16308TIP3    H170415   2.019   0.094  16.396 -0.8728 -0.6152  0.2709
16308TIP3    H270416   2.023   0.130  16.544 -0.5090 -0.3774  0.2069
16309TIP3   OH270417   3.991   4.226   4.397  0.4595 -0.3858  0.1336
16309TIP3    H170418   3.946   4.153   4.354  0.4424 -1.5057  1.9364
16309TIP3    H270419   4.022   4.281   4.325 -3.6010  0.4247 -1.2552
16310TIP3   OH270420   4.474   4.569  12.901  0.0549  0.0349 -0.3365
16310TIP3    H170421   4.407   4.553  12.835 -0.4638  1.4175 -0.1693
16310TIP3    H270422   4.447   4.516  12.976  1.2242 -2.4132 -1.5191
16311TIP3   OH270423   3.441   6.597  15.584  0.0786  0.0287  0.1629
16311TIP3    H170424   3.533   6.574  15.588  0.6285  2.1302  0.6459
16311TIP3    H270425   3.396   6.521  15.622  1.7238 -0.3417  1.4989
16312TIP3   OH270426   6.494   3.062   1.158 -0.0115 -0.1955 -0.2040
16312TIP3    H170427   6.402   3.083   1.170  0.5916  1.5634  1.8092
16312TIP3    H270428   6.530   3.136   1.109  0.4826 -0.5866 -0.4540
16313TIP3   OH270429   3.286   3.924  12.107  0.1396 -1.0834  0.0111
16313TIP3    H170430   3.269   3.862  12.036  1.9116 -1.0752 -0.4623
16313TIP3    H270431   3.375   3.904  12.135 -0.4131 -0.9040  2.0827
16314TIP3   OH270432   4.271   4.456   1.244 -0.3222  0.6585 -0.1453
16314TIP3    H170433   4.262   4.362   1.225 -0.5830  0.8381 -0.9830
16314TIP3    H270434   4.330   4.488   1.176  2.4380  0.5346  2.0497
16315TIP3   OH270435   4.555   0.148  11.131 -0.6494 -0.8654  0.3262
16315TIP3    H170436   4.513   0.067  11.102 -2.1187  0.6144 -1.9894
16315TIP3    H270437   4.539   0.210  11.060 -0.2278  1.7036  2.3408
16316TIP3   OH270438   5.811   5.230   2.699 -0.1903  0.0492 -0.0263
16316TIP3    H170439   5.812   5.211   2.793 -1.7525 -0.0013  0.0129
16316TIP3    H270440   5.829   5.323   2.694 -0.4486  0.1268  0.3611
16317TIP3   OH270441   6.080   4.438   0.954  0.0493  0.2579 -0.1917
16317TIP3    H170442   6.000   4.461   0.907 -0.1564  1.6440  0.7838
16317TIP3    H270443   6.094   4.345   0.934 -3.7054 -1.0562  2.3824
16318TIP3   OH270444   2.003   2.974  12.586 -0.4316 -0.3622 -0.1023
16318TIP3    H170445   1.948   2.896  12.577 -0.2392 -0.7967  1.9939
16318TIP3    H270446   1.942   3.047  12.580 -0.6604 -0.6632 -1.7667
16319TIP3   OH270447   5.102   5.402  16.363 -0.1781  0.2656 -0.8660
16319TIP3    H170448   5.082   5.326  16.418 -0.5438  0.3556 -0.8698
16319TIP3    H270449   5.018   5.447  16.353  0.4464  2.1599  1.3628
16320TIP3   OH270450   1.109   3.602  16.108 -0.1953  0.4296  0.1487
16320TIP3    H170451   1.176   3.539  16.079  0.1492  1.1682 -0.7074
16320TIP3    H270452   1.063   3.626  16.027  0.5258  2.2551  0.2509
16321TIP3   OH270453   1.419   2.753   2.619  0.1112  1.0157  0.3265
16321TIP3    H170454   1.361   2.734   2.544 -1.5335  2.0573  1.2759
16321TIP3    H270455   1.420   2.848   2.624  3.4644  1.1526 -0.7610
16322TIP3   OH270456   0.099   6.308   0.623 -0.0869 -0.3524  0.2686
16322TIP3    H170457   0.141   6.388   0.591 -1.3313  0.6413  1.0485
16322TIP3    H270458   0.095   6.320   0.718  0.6004 -1.8008  0.5071
16323TIP3   OH270459   0.394   2.512   2.699 -0.5418  0.5469  0.4981
16323TIP3    H170460   0.465   2.574   2.717 -0.8510  0.3147  2.8326
16323TIP3    H270461   0.418   2.433   2.748 -2.1191  0.2817  0.9005
16324TIP3   OH270462   0.770   0.343  14.744  0.8825 -0.9881  0.0053
16324TIP3    H170463   0.779   0.425  14.792  2.7055  0.0353 -1.9441
16324TIP3    H270464   0.838   0.286  14.779  1.7798 -0.4716 -0.8473
16325TIP3   OH270465   1.570   5.012   6.948 -0.1684 -0.3158 -0.6857
16325TIP3    H170466   1.583   4.918   6.938 -2.4003 -0.7644  0.1533
16325TIP3    H270467   1.486   5.029   6.907 -0.4042  1.0880  0.3146
16326TIP3   OH270468   2.798   1.336  14.364  0.1807  0.0740 -0.2038
16326TIP3    H170469   2.856   1.271  14.325  1.4407  0.5252  0.8418
16326TIP3    H270470   2.790   1.405  14.298  1.0670  0.1328 -0.2554
16327TIP3   OH270471   0.387   6.736  15.683 -0.5473 -0.3021  0.0287
16327TIP3    H170472   0.476   6.770  15.682  0.2411 -2.1169 -2.9260
16327TIP3    H270473   0.397   6.641  15.691 -2.3128 -0.4545  0.9168
16328TIP3   OH270474   5.811   6.782  15.555 -0.1801  0.0459  0.4325
16328TIP3    H170475   5.717   6.801  15.556  0.1344  2.0366 -1.3499
16328TIP3    H270476   5.828   6.749  15.467  1.0698  1.5009  0.0966
16329TIP3   OH270477   4.562   0.015   0.604 -0.4361  0.0213 -0.1694
16329TIP3    H170478   4.570   0.034   0.697 -3.0733 -0.7867  0.3086
16329TIP3    H270479   4.611  -0.066   0.591  1.6012  1.1577  0.0447
16330TIP3   OH270480   0.048   0.503  15.187  0.1295  0.0167  0.4435
16330TIP3    H170481   0.028   0.485  15.278 -0.6035 -1.1960  0.0668
16330TIP3    H270482   0.033   0.420  15.142 -0.1833  0.7566 -0.8812
16331TIP3   OH270483   2.983   1.368   0.468  0.0597  0.7001  0.3967
16331TIP3    H170484   2.908   1.357   0.410  0.3554 -0.8574  0.2507
16331TIP3    H270485   2.962   1.443   0.522 -1.6866  0.1741  0.4920
16332TIP3   OH270486   6.764   2.899   3.114 -0.0456 -0.4290 -0.0125
16332TIP3    H170487   6.746   2.916   3.022 -0.5750 -1.0843 -0.0345
16332TIP3    H270488   6.760   2.804   3.123  1.2031 -0.4624  0.4484
16333TIP3   OH270489   3.932   5.051   3.634 -0.1255  0.1610  0.3158
16333TIP3    H170490   3.915   5.061   3.727  0.2311 -0.5153  0.4603
16333TIP3    H270491   3.850   5.017   3.598 -0.8285  1.9658  0.0774
16334TIP3   OH270492   6.439   4.310  12.377 -0.2059 -0.0564 -0.7390
16334TIP3    H170493   6.528   4.342  12.367  0.1554  0.0980  2.1498
16334TIP3    H270494   6.384   4.387  12.362  0.3168  0.4671 -0.0214
16335TIP3   OH270495   6.674   1.332   1.488  0.3949  0.0112 -0.2710
16335TIP3    H170496   6.757   1.320   1.534 -0.8218 -1.9767  1.6120
16335TIP3    H270497   6.607   1.303   1.551 -1.6630  0.5495 -2.0767
16336TIP3   OH270498   0.495   5.264  13.483  0.3636 -0.4237 -0.2808
16336TIP3    H170499   0.498   5.358  13.471  2.4532 -0.3448  0.3436
16336TIP3    H270500   0.446   5.231  13.408  0.3066  1.0983 -0.9412
16337TIP3   OH270501   6.144   1.135   1.115 -0.0681 -0.3614 -0.3267
16337TIP3    H170502   6.078   1.179   1.169  1.8813 -0.4129  2.3224
16337TIP3    H270503   6.175   1.202   1.055  0.0702  0.7689  0.9597
16338TIP3   OH270504   2.002   0.405   5.824 -0.1854  0.4778  0.1900
16338TIP3    H170505   1.923   0.452   5.851 -1.8352 -1.7088 -0.5222
16338TIP3    H270506   2.007   0.420   5.730 -2.0356 -2.3920 -0.4815
16339TIP3   OH270507   1.727   1.017   4.750  0.3557 -0.0471  0.7016
16339TIP3    H170508   1.734   1.039   4.657 -0.7326  0.8581  0.8060
16339TIP3    H270509   1.640   0.977   4.759  1.1165 -1.6870  1.0542
16340TIP3   OH270510   4.175   4.505  15.070 -0.2398  0.6393 -0.2663
16340TIP3    H170511   4.194   4.490  14.977  0.8502 -0.6870  0.1358
16340TIP3    H270512   4.079   4.501  15.075 -0.2499 -1.3066 -1.0554
16341TIP3   OH270513   5.008   5.168   3.264  0.4716  0.3039 -0.9190
16341TIP3    H170514   4.925   5.137   3.228  0.0253 -1.0207  1.1125
16341TIP3    H270515   5.070   5.098   3.246  0.2967 -0.2636  0.6347
16342TIP3   OH270516   1.223   3.094  14.317  0.2478 -0.1407 -0.3604
16342TIP3    H170517   1.279   3.114  14.392 -1.2578  0.5760  0.6427
16342TIP3    H270518   1.209   3.179  14.275  0.5481 -0.4395 -1.0818
16343TIP3   OH270519   3.901   2.251   3.975 -0.1395 -0.2324  0.1581
16343TIP3    H170520   3.809   2.241   3.950  0.0417 -0.1428 -0.5824
16343TIP3    H270521   3.919   2.177   4.032 -0.6715 -0.2519  0.3040
16344TIP3   OH270522   1.111   2.345   4.561 -0.2011 -0.3540  0.0375
16344TIP3    H170523   1.156   2.401   4.497  0.4667  2.1732  2.5540
16344TIP3    H270524   1.066   2.405   4.619 -2.4223 -2.6444  0.8693
16345TIP3   OH270525   0.192   5.677   1.411 -0.7402 -0.1559 -0.2181
16345TIP3    H170526   0.114   5.675   1.465 -2.6270 -1.4355 -2.7892
16345TIP3    H270527   0.222   5.586   1.409  1.1072  0.3540  0.9757
16346TIP3   OH270528   6.754   1.491  14.369 -0.2708 -0.3481  0.0608
16346TIP3    H170529   6.729   1.402  14.343 -0.5599 -0.6475  1.2930
16346TIP3    H270530   6.676   1.544  14.351  0.4242  0.0161 -2.1984
16347TIP3   OH270531   0.565   3.592  13.365  0.8426  0.2796  0.2115
16347TIP3    H170532   0.592   3.510  13.321 -0.2414  0.7375 -1.3957
16347TIP3    H270533   0.615   3.660  13.320 -1.2976  0.9047 -1.3276
16348TIP3   OH270534   4.311   0.756  14.145 -0.5084 -0.1422 -0.2619
16348TIP3    H170535   4.240   0.707  14.186 -0.4837 -0.3285 -0.4384
16348TIP3    H270536   4.312   0.840  14.190 -2.1499  0.6528 -1.6027
16349TIP3   OH270537   1.919   4.686   2.754  0.4249  0.0978  0.2740
16349TIP3    H170538   1.851   4.733   2.706 -0.2749  0.1802  1.3160
16349TIP3    H270539   1.979   4.654   2.686 -1.1392 -0.7689 -0.7674
16350TIP3   OH270540   2.079   0.604  11.886  0.5069 -0.0217  0.4196
16350TIP3    H170541   2.021   0.674  11.915 -1.0486 -0.1779 -1.9653
16350TIP3    H270542   2.085   0.545  11.960 -1.3649  0.6821  1.1959
16351TIP3   OH270543   5.942   2.921   3.395  0.4631  0.0966  0.3696
16351TIP3    H170544   5.938   2.841   3.342  0.4339 -0.7531  1.5950
16351TIP3    H270545   6.026   2.961   3.371  2.0994 -2.0282  2.0179
16352TIP3   OH270546   4.545   5.192   4.872 -0.0816 -0.0186  0.2458
16352TIP3    H170547   4.624   5.206   4.924  0.3359  0.1411 -0.4157
16352TIP3    H270548   4.476   5.237   4.920  0.4487  0.7909  0.2685
16353TIP3   OH270549   4.204   3.283  16.416  0.2655  0.2978  0.0231
16353TIP3    H170550   4.129   3.245  16.462  0.0095  0.7005 -0.0578
16353TIP3    H270551   4.181   3.375  16.404  0.4329  0.2531 -0.6966
16354TIP3   OH270552   3.537   5.402  11.467  0.3215 -0.3935 -0.3195
16354TIP3    H170553   3.534   5.334  11.533 -0.6438  0.3238  0.3935
16354TIP3    H270554   3.591   5.365  11.397  0.6992 -1.4599  0.5159
16355TIP3   OH270555   1.424   2.596   2.823 -0.3563  0.2449  0.0321
16355TIP3    H170556   1.448   2.650   2.747  0.3039  2.1363  1.5239
16355TIP3    H270557   1.477   2.630   2.895  0.3692 -2.6531  1.0192
16356TIP3   OH270558   3.828   3.091   2.959  0.0353  0.7614 -0.8191
16356TIP3    H170559   3.823   3.177   3.001 -0.9612  0.1475  0.4127
16356TIP3    H270560   3.756   3.092   2.896 -0.4850  0.5660 -0.2413
16357TIP3   OH270561   2.509   6.700  14.089 -0.0904 -0.2806 -0.1831
16357TIP3    H170562   2.513   6.759  14.164 -0.1693 -0.3927 -0.0901
16357TIP3    H270563   2.420   6.710  14.055 -0.4452 -1.1038  0.4576
16358TIP3   OH270564   1.475   3.531   4.239  0.2113  0.4307  0.4173
16358TIP3    H170565   1.416   3.540   4.164  0.0556  1.5075  0.6514
16358TIP3    H270566   1.502   3.620   4.259  1.7572 -0.0165  0.4707
16359TIP3   OH270567   2.877   5.517  14.424  0.3305  0.0695  0.3305
16359TIP3    H170568   2.828   5.515  14.507 -0.2809 -1.4832 -0.0274
16359TIP3    H270569   2.969   5.519  14.451  0.1400 -0.5803  1.0656
16360TIP3   OH270570   4.995   1.270  15.206  0.5421 -0.6315  0.4439
16360TIP3    H170571   5.070   1.285  15.264 -0.2011 -0.2377  1.3338
16360TIP3    H270572   4.961   1.358  15.188 -0.2701 -0.8597  0.8240
16361TIP3   OH270573   1.790   5.071  15.060  0.4956  0.1571  0.0755
16361TIP3    H170574   1.789   5.166  15.070 -1.1494  0.2015 -0.2482
16361TIP3    H270575   1.772   5.056  14.967 -0.1803 -0.4801  0.2984
16362TIP3   OH270576   4.608   0.864  16.908 -0.1865  0.3422  0.0841
16362TIP3    H170577   4.611   0.849  17.002  0.8516 -2.0840 -0.2550
16362TIP3    H270578   4.700   0.878  16.883 -0.2050 -0.9211 -0.7814
16363TIP3   OH270579   0.491   1.438   3.053  0.4668  0.8994  0.1936
16363TIP3    H170580   0.427   1.485   3.108 -3.9179 -1.5996 -2.2170
16363TIP3    H270581   0.521   1.366   3.108  0.3193  1.4439  1.0131
16364TIP3   OH270582   0.934   6.689  13.926 -0.4303  0.0548  0.0881
16364TIP3    H170583   0.967   6.743  13.854 -1.2470  2.2968  1.2713
16364TIP3    H270584   0.991   6.710  14.000  0.9701 -2.8945 -0.0152
16365TIP3   OH270585   0.308   0.297  15.134  0.5918  0.2833 -0.1880
16365TIP3    H170586   0.336   0.329  15.220  0.8213  1.1299 -0.5767
16365TIP3    H270587   0.212   0.300  15.138  0.5523 -1.1178  0.5688
16366TIP3   OH270588   6.787   2.582   3.618  0.1286 -0.6433 -0.0393
16366TIP3    H170589   6.763   2.506   3.670 -1.3139 -0.6013 -0.6157
16366TIP3    H270590   6.804   2.651   3.682 -2.9204 -0.2038  0.4272
16367TIP3   OH270591   5.479   3.598   0.116  0.2378  0.3998  0.3330
16367TIP3    H170592   5.385   3.616   0.121  0.2422  0.4466  0.2421
16367TIP3    H270593   5.485   3.506   0.093  0.2082  0.6398 -0.6775
16368TIP3   OH270594   1.936   3.389   2.532 -0.0369 -0.0894 -0.5694
16368TIP3    H170595   1.898   3.313   2.578 -0.5119  2.0406  2.9334
16368TIP3    H270596   2.011   3.353   2.485  0.2277 -2.6455  1.5398
16369TIP3   OH270597   3.735   1.896   4.863  0.2652 -0.0714 -0.6059
16369TIP3    H170598   3.821   1.938   4.861 -0.2330  0.9975 -2.3288
16369TIP3    H270599   3.736   1.838   4.786  0.2056 -1.7564  0.6109
16370TIP3   OH270600   3.266   1.636   5.497 -0.2734  0.5321 -0.3545
16370TIP3    H170601   3.362   1.640   5.494 -0.2338  1.0401  0.9030
16370TIP3    H270602   3.247   1.555   5.543 -0.4594  0.3819 -0.6914
16371TIP3   OH270603   1.055   6.758  15.799 -0.1923  0.4695  1.0251
16371TIP3    H170604   1.138   6.791  15.764 -0.6068 -0.6904 -1.2855
16371TIP3    H270605   1.080   6.698  15.869  1.0051 -0.2131  0.0622
16372TIP3   OH270606   6.299   4.665   0.579 -0.1796  0.2908  0.2279
16372TIP3    H170607   6.308   4.695   0.488  1.0850  0.5185  0.4057
16372TIP3    H270608   6.347   4.583   0.582 -0.7830 -0.0532  0.5434
16373TIP3   OH270609   2.656   1.419  15.333  0.3685 -0.9027 -0.0402
16373TIP3    H170610   2.718   1.424  15.260  0.1789 -1.9763 -0.2865
16373TIP3    H270611   2.598   1.346  15.310 -0.3064 -0.6190  0.7163
16374TIP3   OH270612   0.192   5.500   0.866  0.1427  0.2317 -0.8547
16374TIP3    H170613   0.106   5.459   0.872  1.0098 -1.8915 -2.1368
16374TIP3    H270614   0.254   5.429   0.882  1.6952  1.4685 -1.1493
16375TIP3   OH270615   4.445   1.427  15.574  0.1376  0.0932 -0.8796
16375TIP3    H170616   4.403   1.357  15.525  1.0075 -0.1052 -1.3678
16375TIP3    H270617   4.529   1.441  15.529 -0.4516  2.1762 -1.4746
16376TIP3   OH270618   5.345   0.111  16.139 -0.0240  0.4244  0.4937
16376TIP3    H170619   5.321   0.157  16.220  0.2636 -1.0680  1.4759
16376TIP3    H270620   5.273   0.049  16.126 -0.5456  1.2775 -0.9629
16377TIP3   OH270621   6.768   3.375  15.035  0.2557  0.1920  0.2357
16377TIP3    H170622   6.713   3.453  15.034 -0.3425 -0.1864  1.6413
16377TIP3    H270623   6.856   3.409  15.050 -0.3174  0.5160  3.6926
16378TIP3   OH270624   1.481   1.523  12.920 -0.1463  0.2445 -0.0911
16378TIP3    H170625   1.446   1.448  12.873  1.0161  1.2941 -2.8454
16378TIP3    H270626   1.559   1.490  12.964 -1.1565 -0.7112  1.0652
16379TIP3   OH270627   6.545   5.381   1.838  0.0489  0.0615 -0.3673
16379TIP3    H170628   6.578   5.307   1.788  0.1089  1.3095 -2.2984
16379TIP3    H270629   6.623   5.427   1.868  0.0203  0.0974 -0.3471
16380TIP3   OH270630   5.148   0.409  15.040  0.6943  0.1734  0.0110
16380TIP3    H170631   5.239   0.377  15.040  0.4980 -0.6972  2.8658
16380TIP3    H270632   5.099   0.339  14.996  1.3405  0.5978 -1.4521
16381TIP3   OH270633   1.286   5.580   6.901  0.5080 -0.3189 -0.7017
16381TIP3    H170634   1.340   5.595   6.979 -1.6550 -1.5735  1.1823
16381TIP3    H270635   1.275   5.485   6.898 -1.8883 -0.1196 -0.6779
16382TIP3   OH270636   1.182   3.992   2.620 -0.5340  0.4927  0.5370
16382TIP3    H170637   1.151   3.955   2.538 -0.0967 -2.5928  1.6300
16382TIP3    H270638   1.111   4.050   2.648 -1.2251  0.6420 -1.3651
16383TIP3   OH270639   6.224   1.085  13.065 -0.4328 -0.2720  0.4108
16383TIP3    H170640   6.254   1.121  13.149 -0.3538 -0.9146  0.6625
16383TIP3    H270641   6.232   0.990  13.075  0.0722 -0.3327 -0.5159
16384TIP3   OH270642   0.816   4.314  14.041  0.0571 -0.0514 -0.7446
16384TIP3    H170643   0.795   4.352  14.127 -0.2323 -2.4803  0.3483
16384TIP3    H270644   0.778   4.374  13.978 -0.9023  1.1325  0.8851
16385TIP3   OH270645   3.143   4.373  16.267  0.5063 -0.3180  0.2603
16385TIP3    H170646   3.176   4.295  16.312 -0.4376 -0.3553  0.9008
16385TIP3    H270647   3.056   4.348  16.236  0.5113  0.2316 -0.2065
16386TIP3   OH270648   2.808   4.835  16.405 -0.1316  0.6278  0.0201
16386TIP3    H170649   2.792   4.790  16.323  0.0619  0.6451 -0.0300
16386TIP3    H270650   2.898   4.810  16.429  0.7306  2.5371 -1.0087
16387TIP3   OH270651   5.012   2.423   2.785 -0.0661  0.4627 -0.9126
16387TIP3    H170652   5.000   2.456   2.696 -0.8463  0.7236 -0.7251
16387TIP3    H270653   5.000   2.328   2.778 -0.6727  0.5423 -1.0061
16388TIP3   OH270654   1.602   0.156   2.470 -0.4476  0.2001  0.6137
16388TIP3    H170655   1.628   0.138   2.379  0.3934 -0.8917  1.0445
16388TIP3    H270656   1.620   0.249   2.482 -2.6223  0.9095 -0.9806
16389TIP3   OH270657   3.799   0.204   5.490  0.1853  0.5079  0.4192
16389TIP3    H170658   3.769   0.179   5.577 -0.1241  1.8121  0.7055
16389TIP3    H270659   3.817   0.121   5.446 -3.1100 -0.3881  0.4845
16390TIP3   OH270660   2.897   1.547  11.191  0.2407  0.6756 -0.2161
16390TIP3    H170661   2.983   1.579  11.164  0.0541  0.1011 -1.5736
16390TIP3    H270662   2.846   1.626  11.206  0.5353  1.0299 -1.0209
16391TIP3   OH270663   4.917   3.993  13.575 -0.1151 -0.4959 -0.1608
16391TIP3    H170664   4.885   4.024  13.491 -2.0589 -1.5325  0.1161
16391TIP3    H270665   4.891   4.061  13.638 -0.6600 -0.7320 -0.1209
16392TIP3   OH270666   3.141   6.011  13.485 -0.3273 -0.1420 -0.0248
16392TIP3    H170667   3.196   5.992  13.561 -1.3144  0.1705  0.7898
16392TIP3    H270668   3.168   5.947  13.419  1.0108  0.0134  0.3425
16393TIP3   OH270669   4.165   0.607  14.336  0.8535  0.3550 -0.2271
16393TIP3    H170670   4.087   0.578  14.288 -0.6923 -0.6519  2.6502
16393TIP3    H270671   4.213   0.526  14.354  3.1828  1.0346 -2.7096
16394TIP3   OH270672   5.274   0.111  17.081 -0.1157 -0.2903  0.1564
16394TIP3    H170673   5.326   0.046  17.035 -0.1157 -1.9218  2.3006
16394TIP3    H270674   5.183   0.089  17.060 -0.0868 -0.3920  0.1373
16395TIP3   OH270675   0.056   1.181   2.719 -0.3858  0.3798  0.9346
16395TIP3    H170676   0.071   1.087   2.730  0.3843  0.4753  0.8006
16395TIP3    H270677  -0.037   1.189   2.700 -0.0680 -0.5946 -1.4785
16396TIP3   OH270678   6.581   2.265  16.758 -0.3889  0.0737  0.9374
16396TIP3    H170679   6.601   2.238  16.669  0.0159  0.7570  0.8116
16396TIP3    H270680   6.574   2.184  16.807 -1.1960 -0.3413  0.1661
16397TIP3   OH270681   5.449   6.139  15.184  0.2572  0.7573 -0.5605
16397TIP3    H170682   5.361   6.100  15.183 -0.1048  1.5321 -0.0696
16397TIP3    H270683   5.433   6.233  15.179  1.0050  0.9739  0.7743
16398TIP3   OH270684   5.717   1.046  16.300 -0.2826 -0.2097  0.3279
16398TIP3    H170685   5.742   0.964  16.343 -0.0234  0.0290  0.6292
16398TIP3    H270686   5.789   1.063  16.239 -0.1912 -0.0437  0.4830
16399TIP3   OH270687   4.021   3.001   0.815  0.3812 -0.0025  0.5360
16399TIP3    H170688   4.103   3.014   0.862  1.3781  0.9731 -1.3543
16399TIP3    H270689   3.955   3.047   0.867  1.2891  0.3501  1.3849
16400TIP3   OH270690   5.126   2.048   3.048 -0.8657  0.2858 -0.2703
16400TIP3    H170691   5.099   2.092   2.967 -0.8876  1.6712  0.4640
16400TIP3    H270692   5.101   2.109   3.118  1.7451  0.4638  0.6199
16401TIP3   OH270693   5.208   1.751   2.674 -0.0524  0.4983 -0.1055
16401TIP3    H170694   5.248   1.665   2.686 -0.8385  0.2547  0.9319
16401TIP3    H270695   5.277   1.804   2.634  0.5860 -0.4886 -0.3591
16402TIP3   OH270696   3.988   0.075   1.944 -0.5898 -0.1690 -0.2915
16402TIP3    H170697   4.019   0.146   1.889 -0.8942  0.6481  0.5726
16402TIP3    H270698   4.067   0.035   1.980 -0.4510  1.1292  0.9335
16403TIP3   OH270699   3.031   3.534   4.620 -0.1895 -0.2538 -0.1626
16403TIP3    H170700   2.949   3.484   4.627 -0.5236 -0.0889 -2.2970
16403TIP3    H270701   3.091   3.474   4.577 -1.0375  1.4959 -4.2220
16404TIP3   OH270702   0.867   1.484  16.575  0.5416  0.2810  0.1194
16404TIP3    H170703   0.772   1.470  16.580  0.4598  0.3249 -1.0555
16404TIP3    H270704   0.877   1.578  16.563  0.7467  0.2937  0.3849
16405TIP3   OH270705   0.573   5.094  15.594  0.0203  0.0197 -0.0155
16405TIP3    H170706   0.548   5.180  15.627 -1.4339 -0.0118 -0.9680
16405TIP3    H270707   0.568   5.101  15.499  0.0399 -1.0718 -0.1209
16406TIP3   OH270708   1.120   3.134   1.703  0.0372 -0.0966  0.2501
16406TIP3    H170709   1.123   3.083   1.622 -1.7939 -3.0298  1.8569
16406TIP3    H270710   1.073   3.214   1.680  1.2261  0.0366 -1.9455
16407TIP3   OH270711   0.442   0.418  11.409 -0.0328 -0.2288 -0.2578
16407TIP3    H170712   0.350   0.440  11.425 -0.1742 -1.2017  0.3705
16407TIP3    H270713   0.455   0.336  11.455  0.7676 -0.8803 -1.5819
16408TIP3   OH270714   2.002   5.484   5.039 -0.0786  0.0303 -0.4130
16408TIP3    H170715   2.060   5.529   5.100  0.0376  0.7715 -1.0538
16408TIP3    H270716   1.931   5.449   5.094 -0.6423  1.7476  0.0130
16409TIP3   OH270717   0.874   5.347  15.991  0.2230  0.2829 -0.1091
16409TIP3    H170718   0.797   5.396  15.965 -1.7759 -1.5974  1.8111
16409TIP3    H270719   0.896   5.381  16.078  1.7915  0.9913 -0.7437
16410TIP3   OH270720   5.837   4.907  14.830  0.1280  0.3333  0.3881
16410TIP3    H170721   5.820   4.997  14.804  0.3147 -0.1071 -1.3600
16410TIP3    H270722   5.921   4.911  14.876  0.3750  0.9855 -0.1017
16411TIP3   OH270723   2.232   4.919   6.517  0.7764  0.3466 -0.1309
16411TIP3    H170724   2.253   4.826   6.509 -0.2688  0.0032  0.8658
16411TIP3    H270725   2.263   4.944   6.604 -0.0364  0.6083  0.0982
16412TIP3   OH270726   2.942   0.129  14.800  0.5307 -0.3070 -0.2642
16412TIP3    H170727   2.897   0.048  14.825 -0.6740  0.1145 -0.9666
16412TIP3    H270728   2.979   0.162  14.882 -0.8426 -0.4440  0.4402
16413TIP3   OH270729   1.257   3.884   3.678 -0.0546  0.0752 -0.5173
16413TIP3    H170730   1.285   3.975   3.672 -0.1277  0.0697 -1.0747
16413TIP3    H270731   1.314   3.838   3.616  1.1523 -0.5654  1.0078
16414TIP3   OH270732   6.513   4.801  11.317 -0.3331  0.5375 -1.3351
16414TIP3    H170733   6.597   4.779  11.356 -0.3944 -1.5061 -2.2671
16414TIP3    H270734   6.494   4.890  11.349  1.4716  0.4741  0.0231
16415TIP3   OH270735   1.336   5.189  14.040  0.2504 -0.2710  0.2814
16415TIP3    H170736   1.268   5.128  14.011 -1.7573  1.3651  1.2030
16415TIP3    H270737   1.293   5.275  14.035  2.2665  0.8266  0.9811
16416TIP3   OH270738   1.833   4.039  10.755 -0.6044  0.6590  0.1115
16416TIP3    H170739   1.773   4.069  10.824 -1.0887  0.9997 -0.4534
16416TIP3    H270740   1.901   3.991  10.802 -1.6203 -0.2256  0.7217
16417TIP3   OH270741   0.894   1.925  14.354 -0.0728  0.8823  0.3820
16417TIP3    H170742   0.973   1.928  14.408  0.0178  1.2679  0.2294
16417TIP3    H270743   0.864   1.834  14.361  0.6189  0.6227  0.1043
16418TIP3   OH270744   4.766   0.378   0.490  0.0734  0.2049 -0.4465
16418TIP3    H170745   4.778   0.299   0.542 -0.0348 -0.1084 -0.8877
16418TIP3    H270746   4.773   0.450   0.553  1.3801 -0.0905 -0.2158
16419TIP3   OH270747   0.516   6.365   4.993  0.9658  0.1595  0.2668
16419TIP3    H170748   0.445   6.347   4.931  2.4519 -2.6111 -0.8308
16419TIP3    H270749   0.545   6.454   4.971 -0.0949  0.1408 -1.4192
16420TIP3   OH270750   5.294   2.469  15.952  0.0627  0.8725  0.3820
16420TIP3    H170751   5.351   2.393  15.964 -0.2205  0.7645  1.0888
16420TIP3    H270752   5.206   2.435  15.967 -0.1316  1.1811 -0.0460
16421TIP3   OH270753   1.455   4.661   3.009  0.1605  0.5165 -0.0763
16421TIP3    H170754   1.382   4.717   2.983 -1.3271 -1.2162  0.2031
16421TIP3    H270755   1.505   4.648   2.928 -0.4599  0.8356 -0.5187
16422TIP3   OH270756   1.169   6.464   4.477 -0.1047 -0.2902 -0.2172
16422TIP3    H170757   1.236   6.472   4.410 -2.7190 -1.2358 -3.1927
16422TIP3    H270758   1.187   6.379   4.519  2.1298  0.7504  1.1289
16423TIP3   OH270759   1.882   1.843  13.585  0.4132 -0.2895  0.1556
16423TIP3    H170760   1.895   1.795  13.503  0.6196  0.8146 -0.4802
16423TIP3    H270761   1.956   1.818  13.640 -0.8737 -2.7896  0.9338
16424TIP3   OH270762   0.647   5.137  15.850 -0.0456  0.6420 -0.5697
16424TIP3    H170763   0.708   5.211  15.848 -1.6412  2.0179 -0.4993
16424TIP3    H270764   0.650   5.101  15.761  0.7901  0.7339 -0.5887
16425TIP3   OH270765   1.146   0.404  13.325  0.5048 -0.6610 -0.1241
16425TIP3    H170766   1.132   0.467  13.254 -1.6948  0.1723  0.9247
16425TIP3    H270767   1.154   0.320  13.281 -0.8666 -0.1782 -1.4031
16426TIP3   OH270768   4.091   5.994  16.730  0.0041 -0.0123 -0.5155
16426TIP3    H170769   4.072   6.014  16.638  2.5581  0.7415 -0.9706
16426TIP3    H270770   4.139   5.911  16.727 -0.3215 -0.2347  0.2059
16427TIP3   OH270771   2.943   3.573  15.443  0.1484  0.0724  0.0620
16427TIP3    H170772   2.853   3.564  15.472  0.7339  0.0113  1.9387
16427TIP3    H270773   2.965   3.664  15.462  0.4445  0.1291 -0.5343
16428TIP3   OH270774   4.026   3.965   3.936  0.1937  0.2248 -0.3111
16428TIP3    H170775   3.991   3.983   4.023  1.1332 -1.1228  0.3656
16428TIP3    H270776   4.017   3.871   3.925  2.1287  0.0551 -0.7656
16429TIP3   OH270777   0.380   2.186  14.744  0.7320  0.4952 -0.1430
16429TIP3    H170778   0.418   2.115  14.795  0.7820  1.3061  0.9974
16429TIP3    H270779   0.288   2.164  14.737  0.9909 -0.4015 -1.0754
16430TIP3   OH270780   3.959   3.104   0.557  0.2674 -0.2420 -0.6746
16430TIP3    H170781   3.899   3.040   0.518  0.1346 -0.2936 -0.3831
16430TIP3    H270782   3.988   3.064   0.639  0.0390  0.1503 -0.3997
16431TIP3   OH270783   5.219   0.151  12.075 -0.1139 -0.9775 -0.4030
16431TIP3    H170784   5.281   0.080  12.056  1.3835  0.0487  0.4406
16431TIP3    H270785   5.153   0.144  12.006 -0.3380 -3.5260 -0.0532
16432TIP3   OH270786   3.985   1.381   0.080  0.4061 -0.4238  0.6654
16432TIP3    H170787   3.926   1.449   0.112  0.5096  1.2952 -2.4304
16432TIP3    H270788   4.071   1.406   0.113  0.7953  2.2491 -1.9127
16433TIP3   OH270789   3.339   1.365  11.062 -0.2337 -0.6937  0.3579
16433TIP3    H170790   3.387   1.307  11.002  0.3168  0.0039  0.1068
16433TIP3    H270791   3.268   1.401  11.009 -0.2305 -0.6948  0.3521
16434TIP3   OH270792   4.155   4.626  10.531 -0.0441  0.0712 -0.1128
16434TIP3    H170793   4.139   4.537  10.563  0.9256 -0.4424 -0.9875
16434TIP3    H270794   4.250   4.631  10.521 -0.1083  1.1355 -0.2877
16435TIP3   OH270795   6.655   0.471   5.452 -0.4612 -0.1420  0.3076
16435TIP3    H170796   6.731   0.523   5.428  0.2118 -1.1321  0.2580
16435TIP3    H270797   6.689   0.383   5.468 -1.4297 -0.3437  1.3892
16436TIP3   OH270798   0.931   5.376   5.104 -0.3319 -0.1732 -0.0291
16436TIP3    H170799   0.894   5.371   5.016 -0.8382 -0.0846  0.1795
16436TIP3    H270800   0.977   5.460   5.105 -1.4356  0.4471  0.2137
16437TIP3   OH270801   2.536   0.479   3.984 -0.2217 -0.1449  0.1377
16437TIP3    H170802   2.543   0.438   4.070 -0.8265  0.9158  0.7281
16437TIP3    H270803   2.536   0.573   4.003 -0.6525  0.1028 -0.9964
16438TIP3   OH270804   2.595   6.649  11.583 -0.1402  0.2314 -0.3348
16438TIP3    H170805   2.630   6.733  11.551  0.1213  0.6384  0.9587
16438TIP3    H270806   2.670   6.608  11.626 -1.1027  0.9954  2.2594
16439TIP3   OH270807   3.550   3.878  12.159  0.2319 -0.0403 -0.0107
16439TIP3    H170808   3.559   3.937  12.084  0.5447 -1.1118 -0.8556
16439TIP3    H270809   3.637   3.839  12.169  0.1941  0.1149  0.9343
16440TIP3   OH270810   2.235   0.857  11.347 -0.3016  0.3209  0.0991
16440TIP3    H170811   2.264   0.780  11.298  0.8798  0.0511  1.1537
16440TIP3    H270812   2.281   0.850  11.431 -1.0135  1.6134  0.6253
16441TIP3   OH270813   2.340   5.052   3.587 -0.2874 -0.0494 -0.0687
16441TIP3    H170814   2.323   5.005   3.668  0.9008  0.4677  0.4924
16441TIP3    H270815   2.272   5.119   3.583  1.3902  1.9184  2.0792
16442TIP3   OH270816   4.442   3.968  15.102  0.6160 -0.6323  0.1161
16442TIP3    H170817   4.499   3.943  15.175 -0.6986 -2.6931  0.5078
16442TIP3    H270818   4.378   4.028  15.141  2.2275  1.4384 -0.2584
16443TIP3   OH270819   6.309   0.563  12.741 -0.1765 -0.4799 -0.1416
16443TIP3    H170820   6.343   0.512  12.668  0.2500 -0.8712  0.3214
16443TIP3    H270821   6.276   0.643  12.701  0.4514 -0.4965 -0.7107
16444TIP3   OH270822   0.263   0.722   5.359  0.0036 -0.0136  0.4688
16444TIP3    H170823   0.224   0.809   5.360 -0.3928 -0.1868  0.3309
16444TIP3    H270824   0.335   0.727   5.421 -1.4749 -0.2477  2.3001
16445TIP3   OH270825   1.140   4.238  15.562 -0.1302  0.3810  0.5773
16445TIP3    H170826   1.047   4.250  15.581 -0.3568 -2.7219  2.0574
16445TIP3    H270827   1.141   4.202  15.473 -0.3461  0.4327  0.5530
16446TIP3   OH270828   1.484   1.702  16.526  0.0656 -0.1175  0.2101
16446TIP3    H170829   1.496   1.620  16.478 -1.0358 -0.1445 -0.0294
16446TIP3    H270830   1.435   1.758  16.467  2.1655  1.3282 -0.2632
16447TIP3   OH270831   6.570   3.487   2.140  0.2789 -0.0835  0.3678
16447TIP3    H170832   6.585   3.538   2.220 -0.0721  0.0688  0.3370
16447TIP3    H270833   6.628   3.412   2.149  1.1293  0.5350  0.2209
16448TIP3   OH270834   0.526   4.508   4.436  0.2019  0.6418  0.2750
16448TIP3    H170835   0.563   4.421   4.421  0.6383  0.4608  2.2058
16448TIP3    H270836   0.433   4.497   4.417 -0.1097 -0.7937  2.3046
16449TIP3   OH270837   2.442   1.381   1.038 -0.0309 -0.6626 -0.0524
16449TIP3    H170838   2.353   1.409   1.016 -0.0647  0.8984  1.8528
16449TIP3    H270839   2.441   1.368   1.133  1.6393 -1.1463 -0.0688
16450TIP3   OH270840   5.548   0.573  15.210 -0.0095  0.1606  0.7340
16450TIP3    H170841   5.627   0.533  15.247 -0.6454 -0.1926  1.7522
16450TIP3    H270842   5.578   0.657  15.175  0.6810  0.4295  1.8972
16451TIP3   OH270843   4.301   2.918   4.591  0.2168  0.2275 -0.0698
16451TIP3    H170844   4.257   3.002   4.605  0.3488  0.2581  0.1613
16451TIP3    H270845   4.385   2.940   4.551  0.7141  0.2900  0.9709
16452TIP3   OH270846   1.226   4.444  11.264  0.0727 -0.0236  0.5604
16452TIP3    H170847   1.195   4.450  11.174  0.0171  2.5546  0.6745
16452TIP3    H270848   1.192   4.360  11.296  0.5797 -1.2573 -1.9556
16453TIP3   OH270849   6.017   2.590  16.360  0.1268  0.4093  0.2921
16453TIP3    H170850   5.936   2.614  16.404 -0.5257  2.2912 -1.7384
16453TIP3    H270851   5.997   2.510  16.312  0.4217 -0.8329  2.1528
16454TIP3   OH270852   2.966   5.077   0.089 -0.9255  0.2682 -0.1491
16454TIP3    H170853   3.010   5.153   0.127  0.6455 -0.3777 -0.6207
16454TIP3    H270854   2.890   5.063   0.146  0.0065  0.8233  1.2787
16455TIP3   OH270855   2.055   6.342  13.404 -0.4776 -0.6730 -0.2886
16455TIP3    H170856   2.019   6.403  13.339  0.8366  0.3001 -0.1481
16455TIP3    H270857   2.075   6.263  13.354 -0.3113 -0.2567 -0.9008
16456TIP3   OH270858   2.988   3.910   0.527 -0.2104  0.4529  0.0507
16456TIP3    H170859   2.996   3.850   0.601  0.0176  0.7879  0.3052
16456TIP3    H270860   3.061   3.887   0.469 -2.4307 -2.2564 -1.9125
16457TIP3   OH270861   6.572   0.455  11.725 -0.1492  0.0812 -0.0698
16457TIP3    H170862   6.620   0.449  11.808 -0.9037 -1.8241  0.2826
16457TIP3    H270863   6.564   0.364  11.696  0.9260  0.7652 -2.7458
16458TIP3   OH270864   0.393   3.069  15.540  0.5625 -0.3885 -0.0981
16458TIP3    H170865   0.416   2.995  15.596  0.5298 -1.7329 -1.7865
16458TIP3    H270866   0.347   3.030  15.466  1.2993  1.2101 -1.4741
16459TIP3   OH270867   1.060   3.845  11.911  0.1498 -0.1489  0.5806
16459TIP3    H170868   1.112   3.848  11.992 -2.0275  0.3963  2.0432
16459TIP3    H270869   1.003   3.769  11.921 -0.0668 -0.1518 -0.5178
16460TIP3   OH270870   6.261   1.937  10.245  0.0442 -0.3973 -0.5926
16460TIP3    H170871   6.254   1.873  10.174 -0.8478 -1.1367  0.1319
16460TIP3    H270872   6.172   1.968  10.259  0.4261  0.7897 -0.7246
16461TIP3   OH270873   1.989   1.225  12.986  0.1113 -0.3326  0.2620
16461TIP3    H170874   1.979   1.320  12.979  0.5333 -0.2650  0.5267
16461TIP3    H270875   2.077   1.213  13.020 -0.0932 -0.8046  0.6350
16462TIP3   OH270876   5.473   4.471  12.052 -0.5108  0.0805  0.0377
16462TIP3    H170877   5.491   4.428  11.968 -3.2244  1.3409 -1.3118
16462TIP3    H270878   5.411   4.413  12.096  0.7887 -0.5023  1.1806
16463TIP3   OH270879   2.196   5.479  16.377  0.2268 -0.4827  0.8163
16463TIP3    H170880   2.275   5.496  16.428 -0.0604 -1.5391  1.6553
16463TIP3    H270881   2.208   5.389  16.344 -0.7657 -0.7789  1.2339
16464TIP3   OH270882   2.623   2.332   3.966  0.3491  0.5297  0.1163
16464TIP3    H170883   2.656   2.370   3.885  0.0429 -0.0156 -0.2656
16464TIP3    H270884   2.688   2.358   4.032  0.5707  1.0186 -0.2868
16465TIP3   OH270885   5.980   3.375   5.276 -0.1531  0.1416 -0.1028
16465TIP3    H170886   5.971   3.300   5.336 -0.4889 -0.6802 -1.1409
16465TIP3    H270887   6.059   3.355   5.226  0.7856  1.3942  0.8114
16466TIP3   OH270888   3.605   5.335   3.309 -0.4942 -0.1534  0.2584
16466TIP3    H170889   3.626   5.245   3.285  0.6893 -0.2585  1.5229
16466TIP3    H270890   3.604   5.334   3.405 -1.5929  0.9465  0.2794
16467TIP3   OH270891   1.099   6.513  11.362  0.0305 -0.2644 -0.3133
16467TIP3    H170892   1.101   6.445  11.295  2.6693 -1.2374  0.6235
16467TIP3    H270893   1.159   6.482  11.429 -0.6890  1.8035  1.3865
16468TIP3   OH270894   2.541   6.590   3.827  0.4146  0.2174 -0.8936
16468TIP3    H170895   2.626   6.563   3.792  0.9021  0.3124  0.1987
16468TIP3    H270896   2.552   6.683   3.847 -0.0952  0.3417 -1.1557
16469TIP3   OH270897   4.077   6.565   2.800 -0.6621 -0.4713 -0.8476
16469TIP3    H170898   3.986   6.577   2.825 -0.4844 -2.3783  1.0206
16469TIP3    H270899   4.112   6.503   2.864  1.3903 -1.4550 -2.7600
16470TIP3   OH270900   5.199   4.663  13.553  0.1378  0.2919 -0.9243
16470TIP3    H170901   5.134   4.690  13.618  0.9709  0.1945 -0.0119
16470TIP3    H270902   5.275   4.719  13.571  0.1994  0.6262 -2.1786
16471TIP3   OH270903   4.269   5.670  16.931  0.0199 -0.4282  0.2337
16471TIP3    H170904   4.231   5.726  16.999 -0.2604  2.6074 -2.2024
16471TIP3    H270905   4.358   5.704  16.918  0.2305 -1.2426 -0.5994
16472TIP3   OH270906   0.810   5.132   5.289  0.0693  0.2965  0.5528
16472TIP3    H170907   0.749   5.173   5.351  0.2319  0.4445  0.6169
16472TIP3    H270908   0.852   5.206   5.244 -0.4344  0.1826 -0.1170
16473TIP3   OH270909   1.562   5.027  15.996  0.1809  0.4286  0.9212
16473TIP3    H170910   1.539   4.941  15.961  0.6635  0.3888  0.6968
16473TIP3    H270911   1.568   5.083  15.919 -0.4237  0.7361  1.0912
16474TIP3   OH270912   0.947   6.028  15.637  0.4559  0.3867  0.2015
16474TIP3    H170913   0.947   6.114  15.594  0.2610  1.5290  2.3444
16474TIP3    H270914   0.868   6.029  15.692 -0.2299 -1.6906 -0.6666
16475TIP3   OH270915   2.408   6.489  15.252 -0.1694 -0.4292 -0.4676
16475TIP3    H170916   2.439   6.557  15.312 -0.0087 -1.6529  0.9104
16475TIP3    H270917   2.361   6.537  15.184  2.5106  1.2884 -1.2610
16476TIP3   OH270918   6.088   5.774   1.344  0.5653  0.5688 -0.0550
16476TIP3    H170919   6.008   5.807   1.383  0.3266  0.1453 -0.1747
16476TIP3    H270920   6.069   5.682   1.324  1.0050  0.5220 -0.2833
16477TIP3   OH270921   6.008   3.451  13.027 -0.5116 -0.2569  0.0138
16477TIP3    H170922   5.955   3.371  13.024 -0.2979 -0.3860 -0.3249
16477TIP3    H270923   5.945   3.521  13.046 -0.6976 -0.5048  0.3140
16478TIP3   OH270924   3.528   2.482   5.211 -0.4513  0.1115  0.4058
16478TIP3    H170925   3.530   2.494   5.306 -1.2116 -1.2579  0.6305
16478TIP3    H270926   3.435   2.476   5.190 -0.2692 -0.1456 -0.3498
16479TIP3   OH270927   4.090   5.080  16.978 -0.1461  0.8280  0.2544
16479TIP3    H170928   4.163   5.116  17.028  0.1100  0.6125  0.0383
16479TIP3    H270929   4.113   4.988  16.964 -0.4526  0.7624  0.1768
16480TIP3   OH270930   6.620   4.749   5.515 -0.1065 -0.4722  0.1312
16480TIP3    H170931   6.631   4.837   5.552  1.3005 -0.4924 -0.1881
16480TIP3    H270932   6.628   4.691   5.591  1.5498 -0.4455  0.0081
16481TIP3   OH270933   1.141   0.258  15.384 -0.4352  0.4729  0.4282
16481TIP3    H170934   1.046   0.255  15.396 -0.5093  1.2587  0.0781
16481TIP3    H270935   1.153   0.286  15.294  0.1375  1.1139  0.6970
16482TIP3   OH270936   2.709   4.382   4.873 -0.8206  0.0875 -0.0472
16482TIP3    H170937   2.626   4.428   4.866 -0.6769  0.4862  0.7875
16482TIP3    H270938   2.685   4.289   4.877 -1.2300  0.2050  0.2222
16483TIP3   OH270939   3.482   4.181   2.479  0.4028  0.2611  0.1699
16483TIP3    H170940   3.468   4.242   2.407  2.1959  0.7614  0.2024
16483TIP3    H270941   3.507   4.236   2.554 -0.7407 -0.3051  0.9978
16484TIP3   OH270942   4.394   5.209  14.685  0.2840 -0.6791 -0.2979
16484TIP3    H170943   4.406   5.236  14.776 -0.4080 -0.5772 -0.2392
16484TIP3    H270944   4.483   5.209  14.649  0.3849  1.0570 -0.1370
16485TIP3   OH270945   4.325   3.313   2.910 -0.0468 -0.1072 -0.0352
16485TIP3    H170946   4.409   3.274   2.934  0.8364  0.1485 -2.4387
16485TIP3    H270947   4.260   3.245   2.929  1.2568 -2.1778 -2.4287
16486TIP3   OH270948   0.378   0.906   4.645 -0.0365 -0.3353  0.4575
16486TIP3    H170949   0.469   0.886   4.669 -0.4230 -1.4302  1.0629
16486TIP3    H270950   0.332   0.823   4.655 -1.1226  0.2192  0.1904
16487TIP3   OH270951   3.284   5.077   2.030  0.5491 -0.0419 -0.0038
16487TIP3    H170952   3.254   5.162   1.997 -1.6810 -0.8911 -0.3757
16487TIP3    H270953   3.236   5.065   2.112  0.9308 -0.8791  0.1055
16488TIP3   OH270954   4.001   3.895   5.169 -0.2246 -0.1308 -0.5188
16488TIP3    H170955   3.981   3.988   5.183  0.7651  0.1190 -0.6231
16488TIP3    H270956   3.927   3.848   5.206 -2.0715  0.7551 -2.8545
16489TIP3   OH270957   3.174   0.462  14.348  0.3682 -0.1215 -0.4675
16489TIP3    H170958   3.209   0.381  14.312  0.6148  0.2491 -1.0733
16489TIP3    H270959   3.233   0.483  14.421  0.4362 -0.3687 -0.4508
16490TIP3   OH270960   3.122   2.611   0.590 -0.3130  0.3747  0.0732
16490TIP3    H170961   3.030   2.613   0.563 -0.4028  1.5623  0.4056
16490TIP3    H270962   3.135   2.693   0.638  0.9100  0.2024  0.0795
16491TIP3   OH270963   4.920   3.034   2.268 -0.2186  0.0068  0.0695
16491TIP3    H170964   4.923   3.013   2.174  1.0602 -0.3708  0.1841
16491TIP3    H270965   4.831   3.011   2.294 -0.4539 -0.3165 -0.9538
16492TIP3   OH270966   3.056   3.443  14.583 -0.2369  0.2620 -0.2033
16492TIP3    H170967   3.144   3.416  14.609 -0.0459 -0.6176 -1.6438
16492TIP3    H270968   3.001   3.366  14.598 -0.2984  0.0476 -1.4177
16493TIP3   OH270969   1.955   0.622   0.149  0.0402 -0.3734  0.4556
16493TIP3    H170970   1.886   0.662   0.097 -0.2844 -2.8402 -1.1869
16493TIP3    H270971   1.924   0.626   0.239 -1.0845  0.7524  0.0337
16494TIP3   OH270972   6.488   0.684  11.089  0.2771  0.0865 -0.2841
16494TIP3    H170973   6.495   0.776  11.066 -0.0560  0.2850  0.3769
16494TIP3    H270974   6.578   0.652  11.090  0.3080  0.0075 -1.9990
16495TIP3   OH270975   1.505   6.571  12.593  0.0839 -0.0993  0.9909
16495TIP3    H170976   1.516   6.494  12.649 -3.8977 -0.8603  1.0096
16495TIP3    H270977   1.444   6.627  12.640 -1.5636  0.3262 -1.4456
16496TIP3   OH270978   2.388   5.347   3.543  0.0498 -0.4919  0.6731
16496TIP3    H170979   2.400   5.418   3.606  0.3175 -0.1016  0.1952
16496TIP3    H270980   2.472   5.301   3.543  0.9772  1.0522 -1.2378
16497TIP3   OH270981   1.048   4.583   5.955  0.2372 -0.1526  0.3540
16497TIP3    H170982   0.992   4.549   6.024 -0.2859 -1.0248 -0.4825
16497TIP3    H270983   1.074   4.670   5.986 -0.8273 -0.1056  1.1682
16498TIP3   OH270984   1.255   4.682   1.202 -0.9392  0.1099  0.1682
16498TIP3    H170985   1.247   4.706   1.294  0.5620 -0.8413  0.5827
16498TIP3    H270986   1.337   4.724   1.174 -1.5841  0.7258 -0.8575
16499TIP3   OH270987   4.332   5.896   3.697  0.1631  0.2496 -0.0444
16499TIP3    H170988   4.268   5.907   3.767 -0.3895  0.8182 -0.6290
16499TIP3    H270989   4.298   5.825   3.644 -0.5089  1.1736 -0.8986
16500TIP3   OH270990   6.625   0.634   0.888 -0.3306 -0.0124 -0.5036
16500TIP3    H170991   6.671   0.713   0.861  1.5543 -1.0719 -0.5652
16500TIP3    H270992   6.669   0.563   0.841 -0.8980 -1.2606  0.7745
16501TIP3   OH270993   4.781   2.685   3.555 -0.4136 -0.4306  0.3336
16501TIP3    H170994   4.690   2.705   3.532  0.1269  0.0838 -1.6077
16501TIP3    H270995   4.775   2.636   3.637 -2.3848  0.1460  0.5945
16502TIP3   OH270996   2.710   4.312   2.351  0.3371  0.0309  0.0119
16502TIP3    H170997   2.789   4.295   2.300 -0.9070  0.8985 -2.3888
16502TIP3    H270998   2.741   4.321   2.441  2.7491 -1.0765 -0.6156
16503TIP3   OH270999   6.459   4.139  12.762 -0.3869  0.4380 -0.2765
16503TIP3    H171000   6.543   4.182  12.775 -0.9764  1.6601 -0.4254
16503TIP3    H271001   6.467   4.097  12.676  0.1557  0.3228 -0.1730
16504TIP3   OH271002   4.464   6.720   0.139 -0.1631 -0.0334 -0.5560
16504TIP3    H171003   4.527   6.763   0.197  0.0099  2.0905 -2.1674
16504TIP3    H271004   4.413   6.793   0.102 -1.5470 -1.4583 -1.5949
16505TIP3   OH271005   1.483   3.603   5.274 -0.7112 -0.2451 -0.0993
16505TIP3    H171006   1.482   3.637   5.185 -0.7528  0.6472  0.2276
16505TIP3    H271007   1.432   3.667   5.324  0.3292 -0.0830  0.7881
16506TIP3   OH271008   6.741   3.821  12.693  0.4563  0.2565  0.1886
16506TIP3    H171009   6.764   3.734  12.660 -0.0152 -0.1753  0.9844
16506TIP3    H271010   6.807   3.839  12.760 -0.3277 -0.1429  1.0874
16507TIP3   OH271011   6.568   3.741  16.794  0.1974 -0.0650 -0.0925
16507TIP3    H171012   6.596   3.749  16.703 -0.0278  0.5371 -0.1140
16507TIP3    H271013   6.577   3.829  16.830 -0.0993 -0.2123  0.3531
16508TIP3   OH271014   1.728   3.481  12.468  0.0394 -0.1982  0.1911
16508TIP3    H171015   1.687   3.564  12.448  0.0608  0.0980  1.2807
16508TIP3    H271016   1.822   3.497  12.460  0.0155 -0.3492 -0.4135
16509TIP3   OH271017   4.280   5.385   3.332 -0.0293 -0.3121 -0.0018
16509TIP3    H171018   4.207   5.405   3.391  1.5640 -0.4253  2.1155
16509TIP3    H271019   4.299   5.293   3.350  0.2865 -0.4395 -0.9643
16510TIP3   OH271020   5.779   3.133  10.535  0.0848 -0.0215  0.3842
16510TIP3    H171021   5.824   3.133  10.619 -0.5425  0.6215  0.7375
16510TIP3    H271022   5.830   3.193  10.480  1.0297 -1.1593 -0.0068
16511TIP3   OH271023   1.968   5.536  14.105  0.7599 -0.2926  0.1921
16511TIP3    H171024   1.978   5.500  14.193 -1.1166 -1.1870  0.0787
16511TIP3    H271025   2.036   5.492  14.053  0.6640 -1.1539  0.7909
16512TIP3   OH271026   3.260   1.875   3.841 -0.6914  0.4414  0.2009
16512TIP3    H171027   3.219   1.956   3.808 -1.3303 -0.2509 -0.7673
16512TIP3    H271028   3.207   1.805   3.803 -0.3916 -0.4330  1.3594
16513TIP3   OH271029   2.010   2.233  14.745  0.3366  0.1681  0.1491
16513TIP3    H171030   2.013   2.305  14.808  0.8312 -1.1146  1.6683
16513TIP3    H271031   1.931   2.249  14.693 -0.5878  0.8273  1.6943
16514TIP3   OH271032   4.522   4.114  14.225  0.2032 -0.6861 -0.5872
16514TIP3    H171033   4.525   4.168  14.304 -0.1524  1.0702 -1.7219
16514TIP3    H271034   4.468   4.039  14.249  1.4475 -1.0327  1.3071
16515TIP3   OH271035   2.130   0.619   0.927 -0.7898 -0.0874  0.6003
16515TIP3    H171036   2.185   0.679   0.977 -0.8706 -0.6510  1.3825
16515TIP3    H271037   2.082   0.675   0.866  2.4740  0.2431 -1.9372
16516TIP3   OH271038   3.847   6.130   3.269  0.3978  0.1443 -0.6319
16516TIP3    H171039   3.915   6.159   3.330 -0.0507  1.9899 -0.9565
16516TIP3    H271040   3.890   6.131   3.184  1.0119 -2.3931 -0.4433
16517TIP3   OH271041   1.675   3.524   1.500 -0.1376  0.0881  0.1118
16517TIP3    H171042   1.762   3.554   1.526 -0.7389  1.3497  0.7540
16517TIP3    H271043   1.667   3.549   1.408  0.1632  0.0140  0.0672
16518TIP3   OH271044   0.602   3.750  10.614  0.2707  0.0498 -0.2460
16518TIP3    H171045   0.590   3.784  10.525  1.6107  1.8469  0.1819
16518TIP3    H271046   0.640   3.663  10.602 -1.0530 -0.3965 -1.4143
16519TIP3   OH271047   4.346   4.878  13.683 -0.6387  0.3730  0.2608
16519TIP3    H171048   4.399   4.902  13.607  0.0941 -1.5438  0.0976
16519TIP3    H271049   4.387   4.923  13.757  1.0019 -0.6966  0.0642
16520TIP3   OH271050   3.939   3.627   0.878 -0.5065  0.2199 -0.7954
16520TIP3    H171051   3.972   3.673   0.956  1.2663 -1.6769 -0.3229
16520TIP3    H271052   4.013   3.628   0.817 -0.6265 -1.3997 -1.0079
16521TIP3   OH271053   3.132   4.747  14.803  0.4846  0.0940 -0.4189
16521TIP3    H171054   3.200   4.814  14.796 -0.3137  0.8915 -0.9002
16521TIP3    H271055   3.170   4.669  14.763  0.7873  0.7949 -1.5526
16522TIP3   OH271056   4.744   1.620   1.457  0.3175  0.2005 -0.0816
16522TIP3    H171057   4.677   1.555   1.435 -0.7875  0.6082  1.8585
16522TIP3    H271058   4.826   1.581   1.428 -0.2305 -2.3632  1.5537
16523TIP3   OH271059   3.633   6.429  13.865 -0.4533  0.2430  0.6729
16523TIP3    H171060   3.654   6.511  13.910  2.1459  0.6911 -1.1160
16523TIP3    H271061   3.570   6.455  13.798 -1.2624  0.3514  1.4661
16524TIP3   OH271062   3.452   0.849   4.175  0.3661  0.3141 -0.1011
16524TIP3    H171063   3.477   0.761   4.201 -0.6349 -0.3085 -1.1115
16524TIP3    H271064   3.357   0.843   4.161  0.1493  1.7566  0.5716
16525TIP3   OH271065   4.781   1.104   4.690 -0.4320 -0.1811 -0.1971
16525TIP3    H171066   4.826   1.122   4.772 -0.3179 -1.3048  0.0071
16525TIP3    H271067   4.845   1.126   4.622 -0.0219 -0.5511  0.0619
16526TIP3   OH271068   3.654   0.127   0.667 -0.8661  0.2424  0.7917
16526TIP3    H171069   3.644   0.072   0.746  0.4630  0.5174  1.1747
16526TIP3    H271070   3.748   0.126   0.649 -1.0245  1.0911 -0.1531
16527TIP3   OH271071   0.316   0.808   4.211 -0.2604  0.2151 -0.1553
16527TIP3    H171072   0.381   0.864   4.168  0.6980 -0.5598  0.2550
16527TIP3    H271073   0.262   0.868   4.262 -2.0906  1.3180 -3.1543
16528TIP3   OH271074   5.224   2.081   4.619  0.3643 -0.0609 -0.4495
16528TIP3    H171075   5.221   2.136   4.698  1.8860  0.3363 -0.6240
16528TIP3    H271076   5.223   1.991   4.652  0.2800  0.0967 -0.0173
16529TIP3   OH271077   3.838   0.453   5.022  0.4300  0.0715 -0.0749
16529TIP3    H171078   3.928   0.470   4.996  0.6034 -0.3942  0.2172
16529TIP3    H271079   3.814   0.529   5.076  0.5044  0.4015 -0.5075
16530TIP3   OH271080   6.165   4.322   6.434  0.6339  0.1042 -0.5656
16530TIP3    H171081   6.204   4.250   6.483 -0.0475  1.1239  1.6017
16530TIP3    H271082   6.092   4.351   6.489 -0.3292  1.1828 -2.3344
16531TIP3   OH271083   1.766   5.820   3.704 -0.0221 -0.2426  0.5875
16531TIP3    H171084   1.842   5.875   3.720 -0.7605  0.9845  0.0304
16531TIP3    H271085   1.767   5.756   3.775  0.1216  1.3114  2.0534
16532TIP3   OH271086   3.897   3.407  11.031 -0.2076 -0.0407  0.6652
16532TIP3    H171087   3.805   3.424  11.012  0.2286  0.0332 -1.7848
16532TIP3    H271088   3.943   3.483  10.995  0.8609 -0.5506  0.9204
16533TIP3   OH271089   3.352   4.916  14.713 -0.7995 -0.4041 -0.3122
16533TIP3    H171090   3.293   4.960  14.652 -0.2693  0.5724 -0.1337
16533TIP3    H271091   3.345   4.967  14.794  1.2284  0.5219 -0.6541
16534TIP3   OH271092   0.648   2.027  11.162 -0.5383  0.1703 -0.4712
16534TIP3    H171093   0.571   1.979  11.131 -0.2564 -0.1562 -0.6790
16534TIP3    H271094   0.618   2.072  11.240 -0.5124 -1.2736  0.4106
16535TIP3   OH271095   5.965   1.068  10.885  0.6752  0.2719  0.1267
16535TIP3    H171096   5.931   1.076  10.974 -1.0661  0.0895 -0.4827
16535TIP3    H271097   6.052   1.030  10.896  1.2799  2.0410  1.8405
16536TIP3   OH271098   5.138   6.588   6.039  0.0593 -0.2136 -0.2073
16536TIP3    H171099   5.159   6.654   6.105  0.0196 -0.8964  0.4980
16536TIP3    H271100   5.138   6.505   6.086  1.3695 -0.8935 -1.3289
16537TIP3   OH271101   2.375   4.266   3.287  0.4255 -0.1168  0.3316
16537TIP3    H171102   2.309   4.202   3.260 -0.3509 -0.2351  2.3872
16537TIP3    H271103   2.458   4.228   3.259 -0.1407 -1.2979  0.1858
16538TIP3   OH271104   5.232   3.366  14.560 -0.0600  0.4362 -0.2844
16538TIP3    H171105   5.296   3.355  14.490  1.6001  0.3129  1.1746
16538TIP3    H271106   5.201   3.278  14.579 -0.9877  0.5374 -1.2490
16539TIP3   OH271107   0.785   2.951  14.621  0.0986  0.1680  0.2013
16539TIP3    H171108   0.853   2.963  14.554 -0.4873  1.7507 -0.1573
16539TIP3    H271109   0.708   2.996  14.585 -0.6151 -0.0672  1.3791
16540TIP3   OH271110   5.520   5.140  16.827 -0.5436  0.7657 -0.5093
16540TIP3    H171111   5.516   5.058  16.777 -1.1828  0.5966 -0.1928
16540TIP3    H271112   5.613   5.155  16.842 -0.4746 -1.0887  1.3813
16541TIP3   OH271113   0.362   3.973   5.852  0.2904  0.3031 -0.5670
16541TIP3    H171114   0.390   3.886   5.823 -2.0024 -0.3397 -1.0832
16541TIP3    H271115   0.300   4.001   5.785  0.1198  1.8460  0.2062
16542TIP3   OH271116   1.336   2.868  14.853 -0.0502 -0.3089 -0.3055
16542TIP3    H171117   1.419   2.915  14.849 -0.6607  0.7408 -0.9714
16542TIP3    H271118   1.314   2.849  14.762  0.8386 -3.1484 -0.0298
16543TIP3   OH271119   6.233   3.233   3.541 -0.7048 -0.2390 -0.5312
16543TIP3    H171120   6.260   3.298   3.476  0.2641 -1.4373 -1.3817
16543TIP3    H271121   6.242   3.279   3.625 -1.3418  1.1263 -1.1703
16544TIP3   OH271122   2.928   2.934  11.689 -0.3812 -0.1361 -0.1091
16544TIP3    H171123   2.911   2.938  11.595  2.3005 -2.8365 -0.8950
16544TIP3    H271124   3.007   2.987  11.702 -0.0584 -0.7081  0.3522
16545TIP3   OH271125   5.114   4.501   6.164 -1.1431 -0.0240  0.4291
16545TIP3    H171126   5.096   4.457   6.247 -0.7273 -0.9439  0.0486
16545TIP3    H271127   5.174   4.572   6.186 -1.2518 -0.0938  0.9494
16546TIP3   OH271128   5.981   1.959  12.706  0.3144  0.0424  0.1831
16546TIP3    H171129   6.062   1.981  12.751  0.0868 -1.0668  1.2159
16546TIP3    H271130   5.912   1.992  12.763  0.0290 -0.2843  0.0335
16547TIP3   OH271131   3.969   6.601   5.973 -0.3339 -0.7227 -0.4236
16547TIP3    H171132   3.987   6.695   5.967  0.9876 -0.9670 -0.7798
16547TIP3    H271133   3.879   6.595   6.005 -0.2120  0.6614  0.2506
16548TIP3   OH271134   0.258   1.520   2.111  0.2922  0.4623  0.4757
16548TIP3    H171135   0.329   1.531   2.047 -0.1056  1.4507  0.1967
16548TIP3    H271136   0.193   1.466   2.065  0.8426 -0.4412  0.7299
16549TIP3   OH271137   0.582   1.954   1.069 -0.2824  0.3515 -0.1106
16549TIP3    H171138   0.576   2.043   1.104 -1.5160  1.3260 -2.5786
16549TIP3    H271139   0.491   1.924   1.065  0.1758 -1.5737  1.8182
16550TIP3   OH271140   3.508   0.488   3.831  0.4531 -0.3291  0.2632
16550TIP3    H171141   3.512   0.567   3.777 -1.4217 -0.3189  0.0773
16550TIP3    H271142   3.439   0.506   3.894  0.2347 -1.6865  0.4374
16551TIP3   OH271143   3.305   3.033   2.165 -0.7077  0.6659 -0.0872
16551TIP3    H171144   3.212   3.012   2.171 -0.4832 -0.1384  1.0166
16551TIP3    H271145   3.349   2.959   2.208  0.5398  0.2547 -1.9196
16552TIP3   OH271146   4.019   1.388   2.743  0.0173 -0.7672 -0.3878
16552TIP3    H171147   4.105   1.429   2.755 -0.2913 -0.3025  0.3164
16552TIP3    H271148   3.974   1.403   2.826 -1.2482  0.1785 -1.2149
16553TIP3   OH271149   3.068   0.992   2.333 -0.1432  0.8178  0.0034
16553TIP3    H171150   3.009   0.917   2.338  1.7913 -0.7674  0.9710
16553TIP3    H271151   3.071   1.026   2.423 -0.6571  1.7912 -0.3371
16554TIP3   OH271152   5.289   0.327   2.706 -0.1308 -0.0528 -0.5713
16554TIP3    H171153   5.195   0.336   2.721  0.1533 -0.0652  1.5127
16554TIP3    H271154   5.314   0.249   2.756  1.2955  1.0924  0.5858
16555TIP3   OH271155   3.013   3.696   4.375 -0.1283 -0.2694  0.2756
16555TIP3    H171156   2.918   3.694   4.388 -0.0821 -0.3468  0.6031
16555TIP3    H271157   3.048   3.639   4.443 -0.1568 -4.3957 -2.7523
16556TIP3   OH271158   5.952   6.309  14.005  0.1176  0.0253  0.0920
16556TIP3    H171159   5.984   6.375  13.944 -1.1676  1.1283  0.5648
16556TIP3    H271160   5.900   6.358  14.069 -0.0564 -1.3250  1.0332
16557TIP3   OH271161   3.335   1.088  13.472 -0.0581 -0.0586  0.5840
16557TIP3    H171162   3.360   1.180  13.462 -1.4346  0.1969 -0.8305
16557TIP3    H271163   3.246   1.090  13.506 -0.9770 -0.7822 -1.6192
16558TIP3   OH271164   1.529   5.167   6.213 -0.0841  0.0895 -0.4108
16558TIP3    H171165   1.458   5.216   6.171 -0.7029 -0.4205  0.0052
16558TIP3    H271166   1.492   5.079   6.226 -0.4750  0.5623  2.4834
16559TIP3   OH271167   1.078   1.094  15.649 -0.0507 -0.3158 -0.0353
16559TIP3    H171168   0.989   1.079  15.680 -0.8617  1.9576 -0.9940
16559TIP3    H271169   1.074   1.078  15.555  0.9250 -1.4967  0.0994
16560TIP3   OH271170   2.630   1.426   2.447 -0.4114 -0.3835  0.5729
16560TIP3    H171171   2.585   1.376   2.515 -3.4710 -1.0366 -1.7306
16560TIP3    H271172   2.573   1.501   2.431  2.2897  2.0443  1.4299
16561TIP3   OH271173   1.890   5.940   4.334  0.4396  0.0300 -0.0842
16561TIP3    H171174   1.889   5.863   4.278 -2.0843 -0.5266  0.6284
16561TIP3    H271175   1.824   5.998   4.296 -0.4966  0.1298  1.6257
16562TIP3   OH271176   1.583   2.155  10.955 -0.3790 -0.0523  0.1221
16562TIP3    H171177   1.592   2.220  11.025  0.1507  1.2024 -1.0464
16562TIP3    H271178   1.644   2.085  10.979 -1.0059 -0.1673  1.4437
16563TIP3   OH271179   5.925   4.949   4.027 -0.4778  0.1991  0.1359
16563TIP3    H171180   6.018   4.940   4.006 -0.3570  1.8956 -0.1848
16563TIP3    H271181   5.883   4.873   3.985  0.8392 -1.0639  1.0099
16564TIP3   OH271182   1.749   6.420   3.849  0.1073 -0.4279  0.6018
16564TIP3    H171183   1.718   6.447   3.936 -1.4700  0.1670 -0.1069
16564TIP3    H271184   1.758   6.325   3.855 -0.6756 -0.4758  1.2246
16565TIP3   OH271185   5.678   0.017  12.299  0.3944  0.1484 -0.2507
16565TIP3    H171186   5.592   0.021  12.339  0.9548 -0.2113  1.0526
16565TIP3    H271187   5.694  -0.076  12.285  1.8184 -0.1555  2.5227
16566TIP3   OH271188   5.202   4.422  12.544 -0.2256  0.4141  0.2483
16566TIP3    H171189   5.165   4.347  12.497 -0.3168  0.0348  0.8996
16566TIP3    H271190   5.196   4.495  12.483 -1.5427  0.2346  0.1304
16567TIP3   OH271191   6.595   1.990  11.704 -0.6646  0.5693 -0.3457
16567TIP3    H171192   6.555   2.008  11.619  0.9428  1.2767 -0.9833
16567TIP3    H271193   6.629   2.074  11.734  0.3142  0.0138  0.1731
16568TIP3   OH271194   4.645   5.252  16.429  0.0321  0.2394 -0.0673
16568TIP3    H171195   4.591   5.176  16.407  2.3201 -1.6759  0.4495
16568TIP3    H271196   4.672   5.288  16.345 -0.0726 -0.3224 -0.3462
16569TIP3   OH271197   0.820   4.047  11.432  0.3917 -0.2867  0.4175
16569TIP3    H171198   0.829   4.015  11.522 -0.4944 -2.3773 -0.1731
16569TIP3    H271199   0.810   3.968  11.379 -1.9080  0.9492 -1.1763
16570TIP3   OH271200   2.300   5.039   1.324 -0.6529  0.2377  0.1578
16570TIP3    H171201   2.360   5.072   1.391  0.5792  0.4523 -1.0197
16570TIP3    H271202   2.242   5.114   1.306  0.1786  0.7913 -0.2999
16571TIP3   OH271203   5.059   5.604  11.422  1.2289 -0.6921 -0.2689
16571TIP3    H171204   5.010   5.522  11.414 -1.4322  0.8751 -1.4381
16571TIP3    H271205   5.097   5.618  11.336 -0.4434  0.4365 -0.8891
16572TIP3   OH271206   4.485   6.648  15.962 -0.3691 -0.0682 -0.4387
16572TIP3    H171207   4.461   6.569  16.011  1.3778 -1.6200 -1.8984
16572TIP3    H271208   4.464   6.720  16.021 -2.3946 -1.5668  0.8153
16573TIP3   OH271209   5.505   6.680   4.308  0.5628 -0.5053  0.1437
16573TIP3    H171210   5.578   6.640   4.355  1.0120 -1.6049 -1.4027
16573TIP3    H271211   5.443   6.608   4.296 -0.6070  0.3119  1.0468
16574TIP3   OH271212   2.975   2.047   4.645  0.1840  0.0425 -0.0565
16574TIP3    H171213   2.888   2.060   4.684  0.6411  2.8731  0.2530
16574TIP3    H271214   3.036   2.070   4.715  1.1056  1.0350 -1.1453
16575TIP3   OH271215   0.803   2.775  16.865 -0.0048  0.2596  0.6190
16575TIP3    H171216   0.836   2.863  16.848 -2.3749  1.3267  1.1135
16575TIP3    H271217   0.851   2.746  16.942  0.6534  1.2072  0.5919
16576TIP3   OH271218   2.414   2.688  12.666 -0.2758  0.0738 -0.4086
16576TIP3    H171219   2.319   2.685  12.677 -0.2927 -0.1547 -0.6254
16576TIP3    H271220   2.440   2.598  12.648  0.0492  0.0459  0.1889
16577TIP3   OH271221   5.143   2.878  13.106 -0.2972 -0.1574  0.2695
16577TIP3    H171222   5.117   2.830  13.185  3.1327 -1.0346  1.0308
16577TIP3    H271223   5.183   2.811  13.050 -1.5316  0.6857 -1.7437
16578TIP3   OH271224   4.236   2.555  10.875  0.6159  0.0556  0.0553
16578TIP3    H171225   4.265   2.476  10.829 -0.9064 -0.5444  0.0877
16578TIP3    H271226   4.292   2.624  10.839 -0.5364 -0.3671 -2.8289
16579TIP3   OH271227   5.239   1.985  11.458  0.5978 -0.3505  0.4981
16579TIP3    H171228   5.316   2.021  11.503  0.3222  0.1565  0.5744
16579TIP3    H271229   5.274   1.946  11.378  0.8868  0.2515  0.3271
16580TIP3   OH271230   5.811   1.863   2.856  0.0681  0.6738  0.6160
16580TIP3    H171231   5.747   1.882   2.924 -0.2431  1.1552  0.2041
16580TIP3    H271232   5.792   1.928   2.788  0.7688  0.5936  0.3408
16581TIP3   OH271233   4.056   0.318   5.424  0.3072 -0.2642 -0.1138
16581TIP3    H171234   4.093   0.273   5.500 -0.3772 -2.8730 -1.2226
16581TIP3    H271235   3.963   0.296   5.425  0.2643 -0.2665 -1.6346
16582TIP3   OH271236   3.638   0.024  16.217  0.0547 -0.2690  0.4460
16582TIP3    H171237   3.617  -0.009  16.304 -1.1781  1.8238  1.0226
16582TIP3    H271238   3.553   0.038  16.175  0.6130 -0.8874 -0.9682
16583TIP3   OH271239   5.260   1.995   1.734 -0.3895  0.2085  0.2102
16583TIP3    H171240   5.342   2.045   1.740  0.2070 -0.8292  1.2752
16583TIP3    H271241   5.243   1.988   1.640  0.7536  0.4483 -0.0386
16584TIP3   OH271242   6.340   0.682  14.665  0.1748 -0.6560 -0.1133
16584TIP3    H171243   6.286   0.733  14.726  0.8225 -0.7656  0.5538
16584TIP3    H271244   6.418   0.736  14.651  0.2753 -0.8770 -0.4295
16585TIP3   OH271245   1.015   6.660  16.589  0.1901  0.2238  0.2093
16585TIP3    H171246   1.054   6.577  16.560 -0.2435 -0.2476  0.9180
16585TIP3    H271247   0.974   6.696  16.511  0.2443 -0.3196 -0.0713
16586TIP3   OH271248   2.109   3.398  16.992 -0.0770 -0.3380 -0.0989
16586TIP3    H171249   2.129   3.309  17.024  1.7118  0.1161  0.1776
16586TIP3    H271250   2.155   3.456  17.053 -0.9657  0.7815 -0.4623
16587TIP3   OH271251   3.587   0.619  17.025  0.0501  0.0094 -0.1128
16587TIP3    H171252   3.498   0.637  17.054 -0.1671  0.7250 -1.1807
16587TIP3    H271253   3.643   0.660  17.091 -0.3565 -1.6058  1.3124
16588TIP3   OH271254   5.425   5.417   4.300 -0.3819 -0.3824 -0.0520
16588TIP3    H171255   5.463   5.501   4.273  0.5013 -0.6654  0.2758
16588TIP3    H271256   5.424   5.365   4.219  1.3826 -0.9009  0.2151
16589TIP3   OH271257   4.597   6.175  16.020 -0.3088  0.2923 -0.1701
16589TIP3    H171258   4.638   6.114  15.958 -0.3541 -1.2948  1.2747
16589TIP3    H271259   4.514   6.132  16.043 -1.9151  2.4802 -1.5398
16590TIP3   OH271260   6.638   4.536  11.186  0.2172  0.2293 -0.4329
16590TIP3    H171261   6.549   4.502  11.190  1.0924 -2.2237 -0.5071
16590TIP3    H271262   6.661   4.535  11.093  0.4862  0.3995 -0.3708
16591TIP3   OH271263   5.973   6.326   2.774  0.0165 -0.6191  0.3759
16591TIP3    H171264   5.939   6.325   2.863 -0.1879 -0.5154  0.3008
16591TIP3    H271265   5.932   6.403   2.734  1.8995  0.7198  0.8819
16592TIP3   OH271266   5.507   2.328  17.127  0.4850 -0.0755  0.6325
16592TIP3    H171267   5.506   2.319  17.032  0.1065 -1.8048  0.7622
16592TIP3    H271268   5.430   2.381  17.147  2.2176  3.0045 -0.1658
16593TIP3   OH271269   3.262   1.832   3.213  0.1967 -0.2861  0.3759
16593TIP3    H171270   3.338   1.889   3.198  1.1694 -1.1291  1.7449
16593TIP3    H271271   3.282   1.752   3.164 -0.0430 -0.3166  0.3282
16594TIP3   OH271272   4.700   1.541   0.800  0.2437 -0.6087  0.1283
16594TIP3    H171273   4.763   1.596   0.754  0.8231 -0.7414  0.7523
16594TIP3    H271274   4.708   1.565   0.892 -0.8192 -0.4341  0.1947
16595TIP3   OH271275   6.624   5.901   3.428 -0.7723  0.2135 -0.3782
16595TIP3    H171276   6.578   5.903   3.344 -0.0151 -0.9321 -0.8390
16595TIP3    H271277   6.710   5.866   3.407 -0.5569 -0.0488  0.8819
16596TIP3   OH271278   5.446   4.660  16.168 -0.2640  0.1748  0.4406
16596TIP3    H171279   5.517   4.640  16.107  0.4597  3.5240 -0.0349
16596TIP3    H271280   5.487   4.713  16.236 -2.3222  2.8878 -0.2513
16597TIP3   OH271281   3.195   3.105  13.127 -0.5564 -0.3174  0.2162
16597TIP3    H171282   3.124   3.152  13.083 -0.2757 -0.6761 -0.6481
16597TIP3    H271283   3.185   3.128  13.220 -1.7541 -0.3037  0.1044
16598TIP3   OH271284   1.836   5.866  12.788  0.0167  0.6559  0.7282
16598TIP3    H171285   1.920   5.858  12.743  0.6445 -0.1521  1.9934
16598TIP3    H271286   1.811   5.958  12.774  2.6806  1.8827  2.9224
16599TIP3   OH271287   3.399   5.814   1.645 -0.1169 -0.2526 -0.3868
16599TIP3    H171288   3.482   5.793   1.688 -0.7483 -0.6678  0.6608
16599TIP3    H271289   3.405   5.908   1.626  0.6902 -0.3310 -0.5666
16600TIP3   OH271290   5.159   1.418   3.889 -0.6872  0.6791  0.0139
16600TIP3    H171291   5.248   1.446   3.910  0.1505 -1.8291  0.1246
16600TIP3    H271292   5.104   1.464   3.953  0.6166  1.5731  0.5400
16601TIP3   OH271293   2.338   5.839   4.247 -0.1502  0.3594 -0.3659
16601TIP3    H171294   2.375   5.922   4.276 -0.7442  0.7179 -0.6076
16601TIP3    H271295   2.400   5.806   4.182  1.0720 -0.3345  1.1045
16602TIP3   OH271296   1.535   4.001  12.122 -0.3716 -0.6224 -0.1449
16602TIP3    H171297   1.468   4.057  12.083  0.6639  0.0519 -1.0278
16602TIP3    H271298   1.487   3.928  12.161 -1.5073 -1.2204 -2.4961
16603TIP3   OH271299   1.000   3.038  15.783 -1.1446 -0.7908 -0.5171
16603TIP3    H171300   1.068   2.992  15.733 -1.6591 -1.4192 -0.6484
16603TIP3    H271301   0.921   2.985  15.771 -1.1577 -1.2615  1.4303
16604TIP3   OH271302   5.996   2.242   0.836 -0.0359 -0.2166 -0.1639
16604TIP3    H171303   6.052   2.309   0.875 -0.0459 -0.0275 -0.4725
16604TIP3    H271304   5.951   2.287   0.765 -0.9985 -0.2207  0.4213
16605TIP3   OH271305   5.692   4.660  16.412  0.2411 -0.0773 -0.5861
16605TIP3    H171306   5.630   4.718  16.367  0.1304  0.0806 -0.2256
16605TIP3    H271307   5.743   4.717  16.468 -0.7570 -0.4839  0.7934
16606TIP3   OH271308   5.544   0.259  14.403 -0.5353 -0.1710  0.2133
16606TIP3    H171309   5.497   0.200  14.344  0.1136  0.5786 -1.0738
16606TIP3    H271310   5.635   0.252  14.376 -0.5621  2.2191 -0.7058
16607TIP3   OH271311   2.635   5.968   3.873  0.4666  0.3524  0.1844
16607TIP3    H171312   2.592   5.935   3.794 -0.9206  1.1791  0.5492
16607TIP3    H271313   2.601   5.913   3.943  0.9343  0.2549  0.3381
16608TIP3   OH271314   6.479   5.166  14.659 -0.1044 -0.2506 -0.0448
16608TIP3    H171315   6.481   5.170  14.755  2.0709 -0.3267 -0.0344
16608TIP3    H271316   6.459   5.255  14.632 -0.0499 -0.0741  0.4734
16609TIP3   OH271317   4.585   1.702  14.077 -0.3248 -0.2592  0.1870
16609TIP3    H171318   4.534   1.699  14.158 -1.0085  1.3547 -0.1411
16609TIP3    H271319   4.532   1.655  14.013 -0.3860 -0.4381  0.3689
16610TIP3   OH271320   6.060   0.874  13.618  0.2229  0.2150 -0.0959
16610TIP3    H171321   6.147   0.906  13.641  1.0532 -1.0902 -1.2753
16610TIP3    H271322   6.058   0.784  13.649  0.0854 -0.4281 -1.8369
16611TIP3   OH271323   5.077   3.887   5.780 -0.5402 -0.3085  0.4743
16611TIP3    H171324   5.165   3.855   5.798  0.4941  0.6242 -2.3950
16611TIP3    H271325   5.028   3.809   5.754 -0.7135 -0.8730  2.3294
16612TIP3   OH271326   1.557   1.933   5.270 -0.1093  0.1188 -0.4813
16612TIP3    H171327   1.604   1.894   5.344 -0.9541 -1.0297 -0.5129
16612TIP3    H271328   1.467   1.904   5.281  0.1509 -2.2269 -3.2504
16613TIP3   OH271329   3.987   5.469  15.263  0.0414 -0.1074  0.7216
16613TIP3    H171330   4.065   5.412  15.257  0.2063  0.1524  0.3825
16613TIP3    H271331   3.999   5.516  15.346  2.5717  3.2757 -1.3158
16614TIP3   OH271332   5.747   3.996  12.290 -0.1499 -0.1822  0.1802
16614TIP3    H171333   5.789   3.980  12.206 -0.6454  0.1378 -0.1318
16614TIP3    H271334   5.819   4.003  12.352  0.1617 -2.5397  0.1780
16615TIP3   OH271335   4.593   5.409   2.624 -0.2016  0.1589  0.1510
16615TIP3    H171336   4.526   5.341   2.611  0.6992 -0.5760 -0.7950
16615TIP3    H271337   4.672   5.372   2.586  0.5248  1.3995  0.4140
16616TIP3   OH271338   2.259   3.431  14.561 -0.0964  0.6828  0.3260
16616TIP3    H171339   2.213   3.468  14.637  0.4531  0.5972  0.7013
16616TIP3    H271340   2.345   3.408  14.594  0.5302  1.6292 -0.5694
16617TIP3   OH271341   1.154   1.242   4.427 -0.1385 -0.5415 -0.5068
16617TIP3    H171342   1.180   1.324   4.470 -2.3425 -0.9142  1.7905
16617TIP3    H271343   1.058   1.243   4.429 -0.2690 -2.2538 -2.3588
16618TIP3   OH271344   2.661   5.521   5.687  0.1672  0.1774  0.2070
16618TIP3    H171345   2.612   5.446   5.651  0.4056 -0.3271  0.9165
16618TIP3    H271346   2.749   5.487   5.702 -0.1913  0.0637  2.2358
16619TIP3   OH271347   5.585   6.331   0.548 -0.0684 -0.1074 -0.0457
16619TIP3    H171348   5.648   6.261   0.530 -0.3900 -0.2040 -0.8261
16619TIP3    H271349   5.543   6.306   0.631 -0.7949 -1.2834 -0.7579
16620TIP3   OH271350   0.626   0.931  11.747  0.4410  0.0965  0.2623
16620TIP3    H171351   0.580   0.855  11.712 -1.6856  1.4026  0.0513
16620TIP3    H271352   0.605   0.932  11.840  1.1034  0.0230  0.4220
16621TIP3   OH271353   1.170   2.589   1.826 -0.1546 -0.1265  0.5332
16621TIP3    H171354   1.135   2.515   1.876 -0.0650 -0.3738  0.2301
16621TIP3    H271355   1.093   2.629   1.786 -0.2462  0.1686  0.9922
16622TIP3   OH271356   5.674   0.893   5.787 -0.0597  0.0514  0.6064
16622TIP3    H171357   5.739   0.958   5.813 -0.7658  0.9448  0.2027
16622TIP3    H271358   5.714   0.847   5.713 -0.4348  1.5818 -0.5877
16623TIP3   OH271359   3.509   6.748   1.472  0.7719 -0.7703  0.7640
16623TIP3    H171360   3.453   6.739   1.549 -2.2230  4.6759 -0.3361
16623TIP3    H271361   3.586   6.795   1.504 -0.7123  1.9744  0.5680
16624TIP3   OH271362   0.831   2.927  15.621 -0.1267  0.3539  0.5619
16624TIP3    H171363   0.809   2.926  15.527  2.6253  0.8322 -0.1821
16624TIP3    H271364   0.824   2.836  15.648  0.7282 -0.0754 -0.5857
16625TIP3   OH271365   2.018   3.048   3.757 -0.0582 -0.0530 -0.5860
16625TIP3    H171366   1.949   3.008   3.704 -1.3570  2.0912 -0.6110
16625TIP3    H271367   2.042   3.128   3.709 -0.0935  1.0686  1.2026
16626TIP3   OH271368   2.431   3.373  16.414 -0.1997  0.1201 -0.0753
16626TIP3    H171369   2.492   3.350  16.344 -1.4745 -2.5645 -0.3949
16626TIP3    H271370   2.477   3.348  16.494 -0.6854 -1.5385 -0.2919
16627TIP3   OH271371   6.433   6.652  11.350 -0.3521  0.0993  0.0855
16627TIP3    H171372   6.403   6.666  11.440 -0.0256 -1.4300  0.4608
16627TIP3    H271373   6.376   6.708  11.297 -2.1564 -0.7575  1.0228
16628TIP3   OH271374   0.550   1.150  16.706  0.0345  0.1422 -0.8299
16628TIP3    H171375   0.602   1.127  16.784  0.1504 -2.4599 -1.6071
16628TIP3    H271376   0.469   1.186  16.742 -0.3008 -1.8483  0.5729
16629TIP3   OH271377   1.910   0.187   0.614 -0.7152 -0.0021  0.5884
16629TIP3    H171378   1.964   0.252   0.659  0.4712 -0.4926 -0.0531
16629TIP3    H271379   1.957   0.104   0.627 -0.4647 -0.2083 -1.2788
16630TIP3   OH271380   6.003   2.789  14.491 -0.6197 -0.4126 -0.2916
16630TIP3    H171381   5.979   2.698  14.475 -0.6320 -0.5371  0.4463
16630TIP3    H271382   5.937   2.820  14.553  1.0129 -0.7114  1.6676
16631TIP3   OH271383   2.577   5.725   4.564  0.0758  0.5820  0.2515
16631TIP3    H171384   2.556   5.721   4.471 -0.6239  1.2553  0.3723
16631TIP3    H271385   2.660   5.772   4.568  0.1694  0.4437 -0.0387
16632TIP3   OH271386   4.755   2.370   4.164 -0.3447  0.1665  0.8321
16632TIP3    H171387   4.747   2.302   4.232 -1.1966 -0.0870  0.4964
16632TIP3    H271388   4.845   2.399   4.170  0.0601 -1.0310  0.9593
16633TIP3   OH271389   6.674   5.220  11.659  0.2680  0.0124 -0.3815
16633TIP3    H171390   6.768   5.211  11.639 -0.1291 -0.6846 -2.1986
16633TIP3    H271391   6.647   5.300  11.613 -0.2793 -0.5379 -1.0538
16634TIP3   OH271392   5.567   2.037   2.323 -0.3419  0.4177 -0.2067
16634TIP3    H171393   5.507   2.065   2.253  0.2429  1.0084 -0.4777
16634TIP3    H271394   5.651   2.026   2.280 -0.3795 -1.0424  0.0547
16635TIP3   OH271395   0.413   3.201   4.930  0.0407  0.5439 -0.0248
16635TIP3    H171396   0.333   3.148   4.920 -0.2893  0.5689  2.0647
16635TIP3    H271397   0.381   3.289   4.950  0.5576  0.3643  1.7264
16636TIP3   OH271398   4.970   6.795  12.941 -0.2101 -0.1597 -0.3305
16636TIP3    H171399   4.939   6.837  12.860 -1.2526 -0.0432  0.1204
16636TIP3    H271400   4.890   6.765  12.985  0.3358 -0.0863  0.7338
16637TIP3   OH271401   0.135   0.979  13.734  0.0578  0.3319  0.3604
16637TIP3    H171402   0.204   1.034  13.695  1.4251 -0.1104  2.0251
16637TIP3    H271403   0.098   1.034  13.803 -1.2878  0.5485 -0.5017
16638TIP3   OH271404   3.434   3.643   3.443  0.3350  0.3110 -0.6317
16638TIP3    H171405   3.471   3.581   3.507  0.0056  0.1156 -0.6294
16638TIP3    H271406   3.341   3.621   3.439 -0.2760  2.3307  1.0858
16639TIP3   OH271407   0.218   3.693  11.976  0.2269  0.1803  0.2285
16639TIP3    H171408   0.287   3.737  11.926 -1.0939 -0.6067 -2.4672
16639TIP3    H271409   0.220   3.602  11.946 -2.5707  0.3347 -0.7969
16640TIP3   OH271410   1.365   5.768  12.603  0.1990  0.4038  0.3019
16640TIP3    H171411   1.413   5.849  12.624 -1.8987  1.8309 -0.0387
16640TIP3    H271412   1.401   5.740  12.519 -0.5917  2.3937 -0.7937
16641TIP3   OH271413   1.669   1.195   3.872 -0.1448  0.4313  0.3187
16641TIP3    H171414   1.584   1.164   3.902 -1.1151  1.1124 -1.5482
16641TIP3    H271415   1.683   1.150   3.789  0.2318  1.9733 -0.4955
16642TIP3   OH271416   6.510   4.532   3.515  0.0631 -0.0874  0.3843
16642TIP3    H171417   6.451   4.497   3.447  1.7252  0.6705 -1.5523
16642TIP3    H271418   6.494   4.626   3.513  0.0827 -0.0694  1.0984
16643TIP3   OH271419   6.071   2.881  17.153 -0.2271 -0.1763 -0.3540
16643TIP3    H171420   6.025   2.965  17.151  2.0031  1.1897  1.6541
16643TIP3    H271421   6.001   2.816  17.162 -1.9295  1.8477  3.7809
16644TIP3   OH271422   4.493   2.365  14.039 -0.5523 -0.0576 -0.1279
16644TIP3    H171423   4.422   2.301  14.048 -0.8435  0.1439 -0.8866
16644TIP3    H271424   4.510   2.369  13.945 -0.0758  0.4876 -0.0268
16645TIP3   OH271425   5.227   0.550  11.955 -0.1698  0.0184 -0.2329
16645TIP3    H171426   5.211   0.644  11.959 -1.1429 -0.1629  0.2733
16645TIP3    H271427   5.223   0.529  11.862 -1.2887  0.2620 -0.2543
16646TIP3   OH271428   0.265   1.202  16.074  0.2433 -0.2757 -0.3270
16646TIP3    H171429   0.320   1.203  16.152 -0.7359  1.6642  0.4144
16646TIP3    H271430   0.188   1.254  16.099 -1.1075 -1.4153 -1.8946
16647TIP3   OH271431   5.892   3.104  12.458 -0.3696 -0.1487 -0.1316
16647TIP3    H171432   5.986   3.114  12.445 -0.0435 -1.9378  0.4736
16647TIP3    H271433   5.885   3.051  12.538 -1.8776 -0.2690 -0.3120
16648TIP3   OH271434   1.464   1.969  15.837 -0.4071  0.5714 -0.1770
16648TIP3    H171435   1.424   1.883  15.854 -0.4862  0.6872  0.2388
16648TIP3    H271436   1.475   1.972  15.742 -1.8529  0.7357 -0.3603
16649TIP3   OH271437   5.436   3.112  15.042  0.3202 -0.6563 -0.2731
16649TIP3    H171438   5.400   3.051  14.978 -1.4681 -1.0196  1.0156
16649TIP3    H271439   5.422   3.071  15.127 -0.2922  1.1909  0.5915
16650TIP3   OH271440   4.183   5.478  10.571  0.6336 -0.1270  0.9554
16650TIP3    H171441   4.239   5.475  10.493  0.3148 -1.0122  0.7421
16650TIP3    H271442   4.227   5.422  10.634  1.1302  0.9637  1.5871
16651TIP3   OH271443   5.198   0.523  16.618 -0.1179 -0.2262  0.3033
16651TIP3    H171444   5.293   0.511  16.621  0.0533  0.8030 -0.3652
16651TIP3    H271445   5.164   0.462  16.683  1.0781  0.2682  1.4226
16652TIP3   OH271446   4.426   2.685  15.041 -0.1062 -0.5282 -0.8080
16652TIP3    H171447   4.499   2.739  15.011  0.1553  0.0607  0.7611
16652TIP3    H271448   4.452   2.595  15.021  1.4252 -0.4035  0.3883
16653TIP3   OH271449   6.487   5.883  16.195  0.2069 -0.4541 -0.3772
16653TIP3    H171450   6.544   5.820  16.149  2.0005 -1.2964  2.6915
16653TIP3    H271451   6.496   5.860  16.287 -4.5834 -0.0485  0.4241
16654TIP3   OH271452   1.192   2.406   5.988 -0.2138 -0.3022  0.0714
16654TIP3    H171453   1.101   2.438   5.985 -0.6770 -1.5269  0.4900
16654TIP3    H271454   1.184   2.312   5.977  1.0739 -0.3592 -0.5214
16655TIP3   OH271455   1.844   4.368   0.465  0.5364  0.2875 -0.7372
16655TIP3    H171456   1.940   4.370   0.457  0.7110  3.0367  0.8452
16655TIP3    H271457   1.821   4.456   0.494 -2.3748 -0.7138  0.3015
16656TIP3   OH271458   3.111   4.799  15.317 -0.1769 -0.2615  0.4099
16656TIP3    H171459   3.180   4.854  15.282  0.4110 -0.9578  0.4440
16656TIP3    H271460   3.088   4.740  15.245  1.1660 -1.8224  1.1752
16657TIP3   OH271461   3.547   3.304   2.046 -0.0785 -0.4177  0.5320
16657TIP3    H171462   3.489   3.375   2.019  0.3587  0.0188  0.7206
16657TIP3    H271463   3.575   3.330   2.134  0.3127 -0.6809  0.4837
16658TIP3   OH271464   5.176   4.291   4.106 -0.0166 -0.0809  0.0280
16658TIP3    H171465   5.227   4.372   4.113  0.6709 -0.5179  0.1739
16658TIP3    H271466   5.108   4.311   4.041 -0.6815  1.0378  1.0311
16659TIP3   OH271467   6.716   4.821  14.438  0.5818 -0.2779  0.0870
16659TIP3    H171468   6.641   4.761  14.442  0.9289 -0.9400 -1.9434
16659TIP3    H271469   6.793   4.765  14.446  0.8935  0.0135 -0.7254
16660TIP3   OH271470   5.321   0.993  14.542 -0.0541  0.5084 -0.4666
16660TIP3    H171471   5.388   1.054  14.572  0.3491 -0.0137 -0.2708
16660TIP3    H271472   5.289   0.952  14.623  2.5594 -2.4921 -0.7568
16661TIP3   OH271473   0.163   5.254   5.460 -0.4997 -0.4412 -0.5542
16661TIP3    H171474   0.187   5.272   5.551 -0.3263  0.8093 -0.8162
16661TIP3    H271475   0.218   5.181   5.434  0.6536  0.2408 -0.1282
16662TIP3   OH271476   5.308   4.338   2.261 -0.4014  0.0020 -0.1594
16662TIP3    H171477   5.348   4.267   2.212 -1.3317  0.7756 -2.1601
16662TIP3    H271478   5.322   4.416   2.206 -1.4983  0.9204  0.8044
16663TIP3   OH271479   6.439   1.851  13.244  0.2179 -0.0128 -0.0201
16663TIP3    H171480   6.483   1.807  13.316 -0.1162  1.4601  1.1387
16663TIP3    H271481   6.475   1.940  13.244 -1.8801  0.8968  0.2396
16664TIP3   OH271482   0.853   1.073  15.792  0.9739 -0.1013 -0.0616
16664TIP3    H171483   0.919   1.044  15.855  0.2607 -1.5456  0.0591
16664TIP3    H271484   0.785   1.114  15.846  0.8634 -0.3865  0.0213
16665TIP3   OH271485   0.972   2.792  14.204 -0.7710  0.7041  0.1835
16665TIP3    H171486   0.941   2.728  14.268  0.2995 -0.0151  0.0069
16665TIP3    H271487   0.897   2.806  14.146 -1.3666  0.4471  0.8756
16666TIP3   OH271488   0.783   2.212  13.247  0.5243 -0.7745 -0.3497
16666TIP3    H171489   0.752   2.169  13.327  1.7459 -0.7782  0.1414
16666TIP3    H271490   0.789   2.142  13.182  0.5475 -0.9716 -0.1350
16667TIP3   OH271491   6.790   0.083  11.544  0.5259  0.0598 -0.0680
16667TIP3    H171492   6.801   0.177  11.531 -0.8140  0.2102 -0.3351
16667TIP3    H271493   6.730   0.056  11.473 -0.4715 -0.6537  1.0040
16668TIP3   OH271494   0.776   6.823   2.895 -0.0503 -0.1384 -0.2071
16668TIP3    H171495   0.764   6.910   2.859 -3.9689  0.6306  2.4444
16668TIP3    H271496   0.871   6.812   2.899  0.6007  3.8260 -0.9452
16669TIP3   OH271497   2.158   0.917  15.629 -0.5629  0.0808 -0.0315
16669TIP3    H171498   2.199   0.882  15.550 -0.2543 -1.4389  0.7501
16669TIP3    H271499   2.064   0.918  15.609 -0.3298  1.9255 -1.2133
16670TIP3   OH271500   3.535   2.805   2.891 -0.0354  0.2037  0.2351
16670TIP3    H171501   3.462   2.787   2.951 -1.3710  1.0240 -1.0750
16670TIP3    H271502   3.555   2.720   2.852 -0.3431 -0.0155  0.5406
16671TIP3   OH271503   1.461   5.540  14.728  0.3418 -0.0464 -0.1637
16671TIP3    H171504   1.437   5.610  14.667  0.5958  0.8752  0.7604
16671TIP3    H271505   1.506   5.585  14.799 -0.2811 -1.0384  0.8932
16672TIP3   OH271506   1.518   5.987   4.392  0.7373  0.2373 -0.2978
16672TIP3    H171507   1.531   6.010   4.484  2.0416  2.6812 -1.0057
16672TIP3    H271508   1.591   6.029   4.347 -0.6418  0.2808 -2.6372
16673TIP3   OH271509   0.675   6.066  12.797  0.2859 -0.2010 -0.7376
16673TIP3    H171510   0.690   6.056  12.891  3.0478  0.5775 -0.9938
16673TIP3    H271511   0.719   6.148  12.775  0.6250 -0.8984 -2.8912
16674TIP3   OH271512   2.835   2.654  13.387  0.4326  0.4878  0.1022
16674TIP3    H171513   2.788   2.725  13.344  1.7097  1.0523 -0.4076
16674TIP3    H271514   2.917   2.646  13.339  1.2403  0.1045  1.4733
16675TIP3   OH271515   0.085   3.052   3.949 -0.1495 -0.2127 -0.1221
16675TIP3    H171516   0.139   3.046   4.028 -0.7521 -0.6563  0.2632
16675TIP3    H271517   0.028   3.127   3.964  0.4281  0.3321 -0.5825
16676TIP3   OH271518   5.774   3.938  14.453  0.5181 -0.2410  0.1141
16676TIP3    H171519   5.838   3.928  14.524  0.3253 -3.0226  0.0308
16676TIP3    H271520   5.816   3.895  14.378 -0.2832  0.4720 -0.7501
16677TIP3   OH271521   5.352   0.764   2.640 -0.0169 -0.1047  0.0367
16677TIP3    H171522   5.402   0.745   2.719  1.8000  1.2633 -0.7026
16677TIP3    H271523   5.417   0.764   2.570 -1.5358 -1.0289 -1.4484
16678TIP3   OH271524   2.814   6.103  15.913  0.3208  0.7927 -0.0332
16678TIP3    H171525   2.774   6.056  15.986 -0.8932 -0.8643 -1.6756
16678TIP3    H271526   2.753   6.175  15.895  0.2519  0.7837  0.1637
16679TIP3   OH271527   3.623   2.512   6.110  0.2668 -0.0553  0.5281
16679TIP3    H171528   3.579   2.431   6.084 -0.0351 -0.5144  2.3406
16679TIP3    H271529   3.705   2.511   6.060 -0.7055 -0.3355 -1.1478
16680TIP3   OH271530   5.074   4.230  17.160  0.3480  0.4194 -0.4307
16680TIP3    H171531   5.033   4.289  17.223 -0.0579 -0.3566  0.0464
16680TIP3    H271532   5.002   4.196  17.108  0.4631 -0.3899 -0.0708
16681TIP3   OH271533   5.683   1.124   1.102 -0.0510  0.1462 -0.4075
16681TIP3    H171534   5.731   1.053   1.059 -1.2246 -0.1625 -1.2926
16681TIP3    H271535   5.598   1.084   1.125  0.6333  0.1950  2.6023
16682TIP3   OH271536   4.980   5.561   5.208  0.1925 -0.7407 -0.5692
16682TIP3    H171537   5.011   5.474   5.183  0.6892 -0.7905  0.1773
16682TIP3    H271538   5.055   5.601   5.251 -0.2959 -0.2589 -0.1508
16683TIP3   OH271539   3.975   3.718   3.897 -0.3685  0.6234  0.3893
16683TIP3    H171540   4.022   3.668   3.830 -0.5716  1.8729 -0.7285
16683TIP3    H271541   3.928   3.651   3.948  1.5422 -0.5447  0.7222
16684TIP3   OH271542   6.126   2.080  10.765 -0.5177  0.3035  0.1599
16684TIP3    H171543   6.161   1.993  10.784  0.8392  0.7002 -0.3344
16684TIP3    H271544   6.095   2.074  10.675 -0.8889  0.2077  0.2907
16685TIP3   OH271545   0.041   1.198  11.451 -0.3787  0.0404  0.7470
16685TIP3    H171546  -0.039   1.251  11.456  0.0524  1.1890 -2.2357
16685TIP3    H271547   0.012   1.113  11.418 -0.5467 -0.1178  1.2909
16686TIP3   OH271548   6.094   2.093   0.250 -0.0804 -0.3681  0.0367
16686TIP3    H171549   6.043   2.160   0.205 -0.1778 -0.3327  0.1967
16686TIP3    H271550   6.169   2.077   0.193  0.5479  0.6909  0.5310
16687TIP3   OH271551   1.191   1.543   0.122  0.2030  0.5831 -0.3495
16687TIP3    H171552   1.276   1.587   0.120  0.5626 -0.0075 -3.3579
16687TIP3    H271553   1.204   1.469   0.182  1.2553  1.4476  0.5329
16688TIP3   OH271554   1.129   0.688  16.228 -0.1123 -0.0331 -0.0556
16688TIP3    H171555   1.209   0.740  16.232  0.6326 -1.1715  0.0738
16688TIP3    H271556   1.068   0.742  16.178  0.5616  1.0624  0.2660
16689TIP3   OH271557   6.328   0.724   3.962 -0.1380  0.0696  0.1199
16689TIP3    H171558   6.288   0.805   3.994  1.8159  0.7648  0.9776
16689TIP3    H271559   6.401   0.753   3.908  0.8711 -1.0901  0.8075
16690TIP3   OH271560   2.359   3.759   6.432  0.0421  0.1880  1.2554
16690TIP3    H171561   2.278   3.772   6.482 -2.1901 -2.9199 -1.1345
16690TIP3    H271562   2.415   3.706   6.489 -2.6942 -3.8413  0.6232
16691TIP3   OH271563   1.041   3.768  13.059  0.9016  0.3878  0.4284
16691TIP3    H171564   1.028   3.820  12.979 -1.8489 -0.6628  0.0697
16691TIP3    H271565   1.069   3.682  13.027  0.3675  0.1427  0.6027
16692TIP3   OH271566   0.209   0.515   3.403 -0.1474 -0.6748  0.1697
16692TIP3    H171567   0.204   0.563   3.486 -0.7223 -0.3837 -0.0328
16692TIP3    H271568   0.303   0.504   3.388 -0.0423 -0.9939  1.0127
16693TIP3   OH271569   0.414   3.044  16.164  0.5269 -0.5011 -0.6820
16693TIP3    H171570   0.360   3.038  16.243  0.0549  0.6333 -0.8955
16693TIP3    H271571   0.503   3.060  16.197  0.1425  1.1711 -0.3755
16694TIP3   OH271572   2.596   0.350   6.147 -0.0406  0.0546 -0.1315
16694TIP3    H171573   2.574   0.434   6.186 -1.2071  0.5329 -1.7225
16694TIP3    H271574   2.639   0.372   6.064 -0.5036 -0.8882 -0.6474
16695TIP3   OH271575   0.485   1.160  16.283  0.3869 -0.0539  0.6202
16695TIP3    H171576   0.418   1.128  16.343 -1.4661  2.2691 -0.0315
16695TIP3    H271577   0.498   1.088  16.221  0.8214 -1.6894  2.5128
16696TIP3   OH271578   0.129   4.570  14.299 -0.0368  0.0203  0.1172
16696TIP3    H171579   0.141   4.660  14.271 -1.6014  0.6802  1.4283
16696TIP3    H271580   0.089   4.527  14.223  0.0175  0.6114 -0.2541
16697TIP3   OH271581   5.359   5.492   3.634  0.5370  0.0452 -0.0445
16697TIP3    H171582   5.392   5.410   3.671  2.0117 -0.3720 -2.1556
16697TIP3    H271583   5.433   5.529   3.586 -0.6044  1.7606 -0.5707
16698TIP3   OH271584   3.200   0.631   4.506  0.1799  0.0917  0.0560
16698TIP3    H171585   3.200   0.718   4.546  0.2752 -0.1921  0.6825
16698TIP3    H271586   3.251   0.577   4.566 -0.8599 -0.6735  0.2667
16699TIP3   OH271587   3.451   5.727  15.527 -0.1629  0.3331 -0.1831
16699TIP3    H171588   3.434   5.725  15.433 -2.9342 -2.5075  0.2261
16699TIP3    H271589   3.385   5.789  15.561 -0.0703  0.3179  0.0221
16700TIP3   OH271590   3.757   4.280   2.654  0.1582 -0.0075  0.1288
16700TIP3    H171591   3.837   4.282   2.707  1.6773 -0.7432 -1.9843
16700TIP3    H271592   3.705   4.209   2.692  0.8551 -0.0563  1.0320
16701TIP3   OH271593   3.569   2.242   2.633 -0.5751 -0.4282  0.5007
16701TIP3    H171594   3.522   2.203   2.708 -0.1827 -0.9609  0.4762
16701TIP3    H271595   3.499   2.277   2.577 -1.0822 -2.5112 -0.2669
16702TIP3   OH271596   3.432   3.629   3.138  0.0832  0.1546  0.0256
16702TIP3    H171597   3.346   3.643   3.177  0.0508  0.4810 -0.1614
16702TIP3    H271598   3.459   3.543   3.170 -0.3931 -0.0290 -0.0588
16703TIP3   OH271599   3.791   1.631   0.352  0.6948 -0.3197 -0.1367
16703TIP3    H171600   3.772   1.551   0.400  1.9937  0.0479  1.0713
16703TIP3    H271601   3.709   1.653   0.307  0.1397 -1.9542  0.0357
16704TIP3   OH271602   1.269   2.188   3.128 -0.1448  0.2220 -0.3154
16704TIP3    H171603   1.208   2.185   3.202 -0.2275 -0.5081 -0.4081
16704TIP3    H271604   1.245   2.268   3.081  0.0039  0.7762  0.5218
16705TIP3   OH271605   1.011   3.245  11.892 -0.0647 -0.2629 -0.1499
16705TIP3    H171606   0.939   3.188  11.866 -0.2604 -0.0338 -0.1063
16705TIP3    H271607   1.001   3.256  11.986  1.3641 -2.1158  0.2935
16706TIP3   OH271608   1.565   4.754  10.982  0.4707 -0.0359 -0.6272
16706TIP3    H171609   1.531   4.806  11.055 -0.6495 -1.6903  0.0914
16706TIP3    H271610   1.529   4.797  10.904  1.6581  1.7375 -0.2699
16707TIP3   OH271611   2.337   4.885   0.434  0.1416  0.2176  0.2318
16707TIP3    H171612   2.365   4.810   0.488  2.9373  0.0044 -1.3212
16707TIP3    H271613   2.295   4.845   0.358  2.5852 -0.0123 -1.1345
16708TIP3   OH271614   6.832   6.723   3.434 -0.4156  0.3647  0.0122
16708TIP3    H171615   6.809   6.655   3.497 -0.7298 -0.6893 -1.1890
16708TIP3    H271616   6.758   6.783   3.436 -1.0664 -0.4050 -0.3314
16709TIP3   OH271617   0.787   0.655  11.024  0.0060  0.1217  0.4120
16709TIP3    H171618   0.728   0.596  11.070 -0.1101 -1.7846 -2.0160
16709TIP3    H271619   0.875   0.629  11.053 -0.1347  1.6019  2.4474
16710TIP3   OH271620   0.264   0.984   0.341 -0.0480  0.4015  0.2208
16710TIP3    H171621   0.308   1.055   0.294 -1.3066  0.5720 -0.7493
16710TIP3    H271622   0.324   0.910   0.335  0.7328  1.0321  0.1637
16711TIP3   OH271623   1.244   5.231  12.451  0.0372  0.0226  0.5822
16711TIP3    H171624   1.167   5.174  12.456 -0.4923  0.7783  1.2846
16711TIP3    H271625   1.300   5.202  12.523 -0.3142  0.4912  1.0530
16712TIP3   OH271626   4.342   1.885   1.233 -0.3824 -0.1463  0.0457
16712TIP3    H171627   4.345   1.897   1.327 -0.8272 -1.3250  0.2329
16712TIP3    H271628   4.432   1.866   1.207  0.0984  2.0054 -0.0773
16713TIP3   OH271629   6.497   4.500   0.314 -0.2165 -0.2351 -0.0723
16713TIP3    H171630   6.471   4.582   0.357 -0.7231  0.3294 -1.3806
16713TIP3    H271631   6.590   4.511   0.296  0.2295 -0.8800  1.6937
16714TIP3   OH271632   3.718   4.852   0.544  0.1670  0.4772  0.2523
16714TIP3    H171633   3.747   4.938   0.515  1.1195 -0.0548 -0.4343
16714TIP3    H271634   3.771   4.834   0.622  2.0402 -0.6280 -1.1793
16715TIP3   OH271635   3.561   5.148   2.613 -0.1655 -0.0116 -0.0675
16715TIP3    H171636   3.580   5.107   2.697 -3.1755 -2.1734 -0.2745
16715TIP3    H271637   3.625   5.109   2.552  0.5598 -0.1554  0.7612
16716TIP3   OH271638   0.019   3.320   4.069  0.5916 -0.2621  0.0393
16716TIP3    H171639  -0.057   3.327   4.127  0.6364  0.1900  0.0410
16716TIP3    H271640   0.088   3.368   4.114  1.3522 -1.9649  0.8080
16717TIP3   OH271641   2.911   5.076  11.889  0.4255  0.2826 -0.2761
16717TIP3    H171642   2.950   5.010  11.946  1.2268  0.6055 -0.4415
16717TIP3    H271643   2.909   5.156  11.942  2.2781  0.8997 -1.0440
16718TIP3   OH271644   5.966   6.722  14.838  0.0094 -0.3847  0.3069
16718TIP3    H171645   5.972   6.710  14.743  1.2651  0.3105  0.2872
16718TIP3    H271646   5.873   6.740  14.854 -0.5826 -2.3549 -0.5473
16719TIP3   OH271647   0.553   6.814   4.579  0.1354 -0.5081 -0.3990
16719TIP3    H171648   0.501   6.888   4.549  0.3373 -0.6463 -1.0998
16719TIP3    H271649   0.528   6.741   4.522  0.0465 -0.9517  0.1830
16720TIP3   OH271650   4.105   2.234   6.462  0.1610 -0.8746 -0.1033
16720TIP3    H171651   4.086   2.263   6.551  0.2117  2.0292 -0.9326
16720TIP3    H271652   4.142   2.311   6.419  2.2814 -2.8048 -2.0367
16721TIP3   OH271653   0.934   0.792  16.857 -0.2200 -0.0865  0.4060
16721TIP3    H171654   0.965   0.708  16.823 -1.4579 -0.5656  0.4083
16721TIP3    H271655   0.975   0.858  16.802  0.1053 -0.7335 -0.1314
16722TIP3   OH271656   5.766   4.101   1.325 -0.1120  0.1109 -0.2887
16722TIP3    H171657   5.773   4.006   1.315  0.0800 -0.1204  1.6792
16722TIP3    H271658   5.797   4.118   1.414 -4.2660  1.4707  1.1320
16723TIP3   OH271659   3.659   1.701  12.206 -0.4220  0.4141 -0.5136
16723TIP3    H171660   3.630   1.731  12.293 -1.2998  0.6138 -0.8640
16723TIP3    H271661   3.584   1.719  12.149 -0.9584 -2.3054 -0.7814
16724TIP3   OH271662   3.003   0.604   1.477 -0.5330  0.2174  0.3474
16724TIP3    H171663   2.913   0.630   1.455 -0.0508  0.1562 -1.9078
16724TIP3    H271664   3.024   0.655   1.556 -1.5504  2.4626 -0.7495
16725TIP3   OH271665   5.665   0.913  17.065 -0.1868  0.3530  0.3760
16725TIP3    H171666   5.631   0.838  17.017 -1.0366  0.1134  1.3169
16725TIP3    H271667   5.594   0.977  17.064 -0.1095  0.4609  1.0369
16726TIP3   OH271668   6.834   1.024   5.835 -0.5507 -0.4130 -0.1665
16726TIP3    H171669   6.899   1.074   5.786 -2.6720  0.2297 -2.5357
16726TIP3    H271670   6.760   1.084   5.845 -2.0780 -2.1168 -0.5792
16727TIP3   OH271671   3.436   4.031  15.998  0.1989 -0.2871  0.1247
16727TIP3    H171672   3.376   3.979  16.052 -0.6380  0.1569 -0.3541
16727TIP3    H271673   3.473   3.968  15.937 -0.9620 -0.3237 -0.5847
16728TIP3   OH271674   5.423   3.798  13.301  0.3304 -0.2518 -0.5072
16728TIP3    H171675   5.337   3.814  13.260 -0.8740 -1.2267  1.4871
16728TIP3    H271676   5.416   3.710  13.338  2.4238 -0.5744 -0.7690
16729TIP3   OH271677   5.002   5.633  14.569  0.2293 -0.0565  0.1722
16729TIP3    H171678   5.037   5.553  14.607 -3.0748 -1.8127 -0.1397
16729TIP3    H271679   5.019   5.624  14.475 -0.3368 -0.5101  0.1115
16730TIP3   OH271680   3.657   3.687   2.453  0.0003  0.1460 -0.1534
16730TIP3    H171681   3.568   3.655   2.469 -0.5997  1.4004 -0.8277
16730TIP3    H271682   3.695   3.695   2.540 -0.5712 -0.3103  0.1530
16731TIP3   OH271683   4.168   3.736   5.972 -0.0276  0.2771  0.7586
16731TIP3    H171684   4.167   3.642   5.990 -0.8014  0.4204  1.5077
16731TIP3    H271685   4.192   3.777   6.056  0.0793  0.7598  0.4984
16732TIP3   OH271686   5.406   4.557  11.340  0.0496 -0.2357  0.5583
16732TIP3    H171687   5.340   4.502  11.298  0.7450 -1.1673  0.6353
16732TIP3    H271688   5.446   4.607  11.269 -1.3723  1.0808  0.6258
16733TIP3   OH271689   0.978   2.483  13.355 -0.0780  0.0717 -0.2279
16733TIP3    H171690   1.071   2.464  13.343  0.5101  2.1460  0.6074
16733TIP3    H271691   0.938   2.399  13.375  2.0857 -0.4805  2.1537
16734TIP3   OH271692   5.801   3.712   1.914 -0.5097 -0.3469 -0.1788
16734TIP3    H171693   5.768   3.638   1.964 -1.1214 -0.4834 -0.7724
16734TIP3    H271694   5.754   3.788   1.949  0.4564 -0.1485  0.7527
16735TIP3   OH271695   4.605   2.197  12.620 -0.9329  0.3325 -0.1743
16735TIP3    H171696   4.665   2.271  12.614  0.3969 -0.4840  1.8497
16735TIP3    H271697   4.632   2.138  12.550  0.4583  0.1383  0.4955
16736TIP3   OH271698   3.853   2.408  12.806 -0.3585  0.1913 -0.5684
16736TIP3    H171699   3.802   2.480  12.842  0.6432  0.7666 -0.2844
16736TIP3    H271700   3.795   2.370  12.739 -1.3512  0.5050  0.0861
16737TIP3   OH271701   1.905   1.365  14.279  0.0926  0.7955 -0.2449
16737TIP3    H171702   1.955   1.317  14.345 -0.1081 -1.2594 -1.5212
16737TIP3    H271703   1.844   1.302  14.242 -1.3470  2.4625 -0.8833
16738TIP3   OH271704   0.596   2.160   1.858  0.3442  0.1188  0.0154
16738TIP3    H171705   0.660   2.229   1.840  1.2164  0.5221  3.9083
16738TIP3    H271706   0.512   2.207   1.863  0.8387  0.8821  1.9667
16739TIP3   OH271707   2.179   3.556  13.037 -0.0847  0.2441  0.4380
16739TIP3    H171708   2.098   3.598  13.067 -0.0950  0.0088  0.7444
16739TIP3    H271709   2.171   3.556  12.942 -0.3369  0.4388  0.4546
16740TIP3   OH271710   0.140   2.933   0.362 -0.8423  0.0409  0.3172
16740TIP3    H171711   0.221   2.942   0.412 -1.7097  1.1963  1.6391
16740TIP3    H271712   0.163   2.881   0.286  0.9990 -0.1374  0.9510
16741TIP3   OH271713   3.737   6.316  13.181  0.6718  0.5137  0.2062
16741TIP3    H171714   3.678   6.309  13.255 -0.0393  2.9481 -0.0446
16741TIP3    H271715   3.764   6.226  13.163 -0.0800 -0.2671  2.6178
16742TIP3   OH271716   3.034   4.171   2.884 -0.0741  0.3914 -0.8397
16742TIP3    H171717   2.963   4.106   2.890  0.2097  0.1353 -0.0887
16742TIP3    H271718   3.114   4.119   2.884  0.1183  0.6844 -1.6882
16743TIP3   OH271719   6.644   2.116  15.592  0.2165  0.6520  0.4082
16743TIP3    H171720   6.655   2.025  15.619  0.0092  0.3317 -0.5293
16743TIP3    H271721   6.551   2.134  15.606  0.5265  1.2032  1.9662
16744TIP3   OH271722   2.347   5.576  11.067  0.2265  0.1481 -0.0689
16744TIP3    H171723   2.327   5.505  11.005 -0.7698  1.2855 -1.1038
16744TIP3    H271724   2.442   5.576  11.074  0.4716  0.6987 -2.5235
16745TIP3   OH271725   1.857   0.338  12.822  0.4294 -0.0228  0.2257
16745TIP3    H171726   1.769   0.358  12.790  0.3026 -0.8263  0.0623
16745TIP3    H271727   1.868   0.245  12.805  1.6363  0.2459 -0.5065
16746TIP3   OH271728   6.249   1.552   3.012 -0.1587 -0.2414  0.2784
16746TIP3    H171729   6.311   1.625   3.003 -0.2260 -0.0816  1.0457
16746TIP3    H271730   6.199   1.572   3.090  1.6970 -2.4430  2.2014
16747TIP3   OH271731   2.946   3.709  14.946 -0.1108 -0.2703 -0.5541
16747TIP3    H171732   2.855   3.738  14.957 -0.9278 -2.0205 -2.2068
16747TIP3    H271733   2.992   3.788  14.917 -1.7643  0.0217 -2.6388
16748TIP3   OH271734   2.338   0.988   2.826 -0.4052  0.1762  0.3573
16748TIP3    H171735   2.412   1.049   2.835  0.6844 -0.8330 -1.2146
16748TIP3    H271736   2.298   0.986   2.912  1.1643  1.0793  1.1505
16749TIP3   OH271737   5.316   4.394  15.758  0.5226  0.0821  0.5044
16749TIP3    H171738   5.315   4.462  15.826  0.9190  0.7053 -0.1030
16749TIP3    H271739   5.229   4.355  15.762  0.2151  0.7746  0.7073
16750TIP3   OH271740   4.199   5.842  15.949 -0.2298  0.0185  0.2016
16750TIP3    H171741   4.263   5.781  15.985  1.5431 -0.0890 -2.7760
16750TIP3    H271742   4.135   5.855  16.019  1.4592 -2.1645  2.2946
16751TIP3   OH271743   0.602   0.891   4.828  0.1015 -0.3781 -0.5125
16751TIP3    H171744   0.629   0.982   4.840  0.5246 -0.6522  0.7961
16751TIP3    H271745   0.562   0.867   4.912  0.8558 -1.6736 -0.4962
16752TIP3   OH271746   1.791   5.703   5.762 -0.5230  0.2594  0.3029
16752TIP3    H171747   1.817   5.794   5.778 -0.5087  0.0095  1.8954
16752TIP3    H271748   1.854   5.672   5.697 -0.7342  1.4767 -0.5053
16753TIP3   OH271749   0.145   3.124   4.924 -0.1076 -0.2218  0.6726
16753TIP3    H171750   0.118   3.063   4.993 -1.3868  0.8436  1.1453
16753TIP3    H271751   0.135   3.211   4.963 -0.2660  0.3758 -0.6573
16754TIP3   OH271752   5.716   4.441  12.516  0.6174  0.2563  0.0061
16754TIP3    H171753   5.743   4.445  12.608 -1.6325  1.9358  0.6826
16754TIP3    H271754   5.633   4.394  12.518  0.3083  0.7241 -1.1163
16755TIP3   OH271755   4.255   6.451   4.510  0.6258 -0.5731  0.0988
16755TIP3    H171756   4.250   6.370   4.561  1.2738 -0.8320 -0.2363
16755TIP3    H271757   4.222   6.518   4.569  0.4318 -1.0208  0.5108
16756TIP3   OH271758   2.158   2.429  11.338 -0.2280 -0.0071  0.5363
16756TIP3    H171759   2.080   2.377  11.355  0.1470 -0.7312  0.0639
16756TIP3    H271760   2.127   2.500  11.281 -0.9582  0.9468  2.0526
16757TIP3   OH271761   2.110   1.150  17.092 -0.1526 -0.1431 -0.3304
16757TIP3    H171762   2.073   1.105  17.016 -1.5811 -1.0789  0.8454
16757TIP3    H271763   2.109   1.084  17.162  1.4560  0.5783  0.4164
16758TIP3   OH271764   0.801   5.686   2.438  0.1245 -0.3311  0.1560
16758TIP3    H171765   0.741   5.721   2.371 -0.3008 -0.0577  0.6778
16758TIP3    H271766   0.806   5.592   2.418 -0.9105 -0.4581  0.4332
16759TIP3   OH271767   3.309   6.402   5.854 -0.1846 -0.6000 -0.1823
16759TIP3    H171768   3.353   6.450   5.784 -0.0011  1.2441  1.1017
16759TIP3    H271769   3.242   6.463   5.886  0.1299 -1.1368  1.6229
16760TIP3   OH271770   1.605   2.579  12.754 -0.3777 -0.6078 -0.0696
16760TIP3    H171771   1.605   2.670  12.725 -0.7729 -0.8852 -0.9614
16760TIP3    H271772   1.514   2.560  12.775 -0.5655 -1.2432 -1.3606
16761TIP3   OH271773   6.400   6.566  16.758  0.1436  0.2197 -0.4822
16761TIP3    H171774   6.423   6.636  16.696 -0.1842  2.0070  1.3126
16761TIP3    H271775   6.484   6.528  16.783  0.6706  2.0390  0.7581
16762TIP3   OH271776   1.524   0.571   5.904 -0.2997  0.1151  0.1868
16762TIP3    H171777   1.559   0.516   5.974  0.5194 -0.6720 -0.8257
16762TIP3    H271778   1.491   0.649   5.949  1.3343  0.1812  1.3216
16763TIP3   OH271779   5.275   1.555   1.750  0.0689 -0.0742  0.2790
16763TIP3    H171780   5.208   1.587   1.690  1.9145 -0.8104 -2.3365
16763TIP3    H271781   5.246   1.467   1.773  0.0852 -0.3868 -0.8305
16764TIP3   OH271782   0.103   3.909   4.614 -0.2223 -0.4094  0.3201
16764TIP3    H171783   0.139   3.892   4.526  2.5220 -1.4570  1.5240
16764TIP3    H271784   0.052   3.989   4.604 -1.1315 -1.2098 -2.4828
16765TIP3   OH271785   5.725   1.572   4.710  0.3765 -0.1936  0.5208
16765TIP3    H171786   5.642   1.604   4.675  0.4305  1.3348  1.6960
16765TIP3    H271787   5.769   1.651   4.743  0.4761 -1.4559  3.6921
16766TIP3   OH271788   0.525   0.708  11.393  0.5947 -0.0049  0.3961
16766TIP3    H171789   0.533   0.617  11.367  0.7194  0.4190 -1.1601
16766TIP3    H271790   0.614   0.734  11.418  1.0226  0.2447 -1.2420
16767TIP3   OH271791   6.054   0.351   6.509  0.3097  0.6558  0.2485
16767TIP3    H171792   5.983   0.310   6.459  0.4522  1.4118 -0.6093
16767TIP3    H271793   6.121   0.284   6.514  0.0669  0.3806 -0.0992
16768TIP3   OH271794   2.099   4.495   0.114  0.0928 -0.1411  0.0286
16768TIP3    H171795   2.053   4.423   0.072  0.0037  0.3047 -0.6511
16768TIP3    H271796   2.030   4.547   0.155  0.1279 -0.2537  0.2337
16769TIP3   OH271797   3.515   2.003   0.846  0.2168 -0.4690 -0.3174
16769TIP3    H171798   3.507   1.966   0.934 -1.4856 -0.1850 -0.3210
16769TIP3    H271799   3.609   2.015   0.834  0.4435  0.5957  1.9451
16770TIP3   OH271800   6.807   0.361   1.929 -0.3979  0.2769  0.5065
16770TIP3    H171801   6.840   0.326   2.011 -0.9648  1.7818  1.4112
16770TIP3    H271802   6.877   0.418   1.896 -0.7805  0.9051  0.7609
16771TIP3   OH271803   6.348   6.049  12.926 -0.6495 -0.5131  0.0498
16771TIP3    H171804   6.414   6.055  12.996 -0.2625 -1.0317 -0.2578
16771TIP3    H271805   6.343   5.955  12.908 -0.2723 -0.3352 -1.0638
16772TIP3   OH271806   2.245   3.687   4.457  0.0763 -0.0861  0.2075
16772TIP3    H171807   2.196   3.612   4.490  1.6948 -0.5033  1.8380
16772TIP3    H271808   2.231   3.755   4.522 -0.0660  0.4933 -0.4271
16773TIP3   OH271809   6.689   6.257   4.337  0.3727  0.1670 -0.2573
16773TIP3    H171810   6.619   6.248   4.401  0.0560  1.2128 -0.4363
16773TIP3    H271811   6.726   6.344   4.353 -0.2594  0.8131 -1.9788
16774TIP3   OH271812   4.721   1.219  10.343  0.3002  0.7808 -0.7696
16774TIP3    H171813   4.717   1.132  10.303  1.4230  1.4309 -2.4246
16774TIP3    H271814   4.814   1.242  10.340  0.0269  2.0280 -0.3669
16775TIP3   OH271815   1.738   1.699  12.691  0.0909 -0.4500 -0.4860
16775TIP3    H171816   1.743   1.769  12.625 -0.0342 -0.5219 -0.5718
16775TIP3    H271817   1.717   1.621  12.641  0.4655 -0.5957 -0.4202
16776TIP3   OH271818   0.159   0.846   1.286  0.1277  0.0030 -0.1714
16776TIP3    H171819   0.171   0.764   1.335 -0.2280 -0.0364 -0.1437
16776TIP3    H271820   0.104   0.900   1.343 -0.4287 -0.1073 -0.5951
16777TIP3   OH271821   3.314   5.721   5.524 -0.2244  0.1420 -0.4399
16777TIP3    H171822   3.333   5.805   5.482 -1.2241  1.2819  1.2752
16777TIP3    H271823   3.319   5.658   5.453  1.3051  1.5240 -1.6530
16778TIP3   OH271824   1.716   6.068   4.143 -0.9909  0.3515  0.2469
16778TIP3    H171825   1.734   6.104   4.056 -0.3565 -1.6682 -0.5288
16778TIP3    H271826   1.621   6.063   4.148 -1.0532  1.1368 -0.0350
16779TIP3   OH271827   2.099   1.533  10.355 -0.2633  0.1157  0.1317
16779TIP3    H171828   2.036   1.484  10.302  1.0358 -0.9987 -0.4481
16779TIP3    H271829   2.048   1.565  10.429 -1.4382 -1.0492 -0.1296
16780TIP3   OH271830   4.960   6.060   1.279 -0.3119  0.4048 -0.2490
16780TIP3    H171831   4.914   6.139   1.249 -0.1342  0.7099  0.2692
16780TIP3    H271832   5.011   6.032   1.203 -0.2674  0.8681 -0.3939
16781TIP3   OH271833   4.008   2.198   0.741  0.0080  0.0851 -0.5529
16781TIP3    H171834   4.050   2.284   0.737 -2.8374  1.9546  3.0214
16781TIP3    H271835   4.081   2.136   0.744  2.2854  2.5659 -0.5810
16782TIP3   OH271836   0.199   2.970   2.902 -0.4987 -0.4369 -0.0735
16782TIP3    H171837   0.174   2.991   2.993 -0.6099 -1.6628  0.1958
16782TIP3    H271838   0.280   2.920   2.911  1.6962  2.6720 -0.8919
16783TIP3   OH271839   0.917   3.559   3.510 -0.5269 -0.0159 -0.7364
16783TIP3    H171840   0.934   3.653   3.518  0.8269 -0.2873 -0.1264
16783TIP3    H271841   0.998   3.523   3.474 -0.0983 -1.2664  1.2991
16784TIP3   OH271842   4.702   3.105  16.703  0.1415 -0.0833 -0.5310
16784TIP3    H171843   4.713   3.129  16.795 -0.9583 -0.1920 -0.3521
16784TIP3    H271844   4.654   3.179  16.665  2.1031  0.7809 -1.4593
16785TIP3   OH271845   3.883   1.242  10.635 -0.0740 -0.0082 -0.4269
16785TIP3    H171846   3.853   1.270  10.548 -0.9892  1.0109  0.1964
16785TIP3    H271847   3.804   1.209  10.678  0.2100  0.2624  0.3209
16786TIP3   OH271848   5.794   6.658   4.722 -0.0630  0.4740 -0.2510
16786TIP3    H171849   5.727   6.664   4.790  0.8408  0.5576  0.6499
16786TIP3    H271850   5.769   6.725   4.658 -0.6557  0.7355  0.2424
16787TIP3   OH271851   0.796   0.587   5.177 -0.2470  0.7458  0.0627
16787TIP3    H171852   0.702   0.582   5.193 -0.3228 -0.5377 -0.6488
16787TIP3    H271853   0.831   0.634   5.253 -1.3444  0.4118  0.7936
16788TIP3   OH271854   4.814   1.022   3.293  0.3588 -0.6045 -0.4819
16788TIP3    H171855   4.722   1.003   3.309 -0.3979  2.6630 -0.2963
16788TIP3    H271856   4.820   1.031   3.198  0.4088 -0.5310 -0.4718
16789TIP3   OH271857   2.093   6.763  11.883 -0.4595 -0.3373 -0.0380
16789TIP3    H171858   2.044   6.837  11.919  0.0126 -1.1921  2.5299
16789TIP3    H271859   2.069   6.689  11.938  1.2739 -1.4670 -0.7230
16790TIP3   OH271860   1.033   2.646  10.896  0.1232 -0.1907  0.1041
16790TIP3    H171861   1.110   2.703  10.903 -0.4599  0.8408 -1.3098
16790TIP3    H271862   0.968   2.701  10.852 -1.8446 -0.6231  2.3122
16791TIP3   OH271863   1.253   0.831   2.016  0.2452 -0.5076 -0.7211
16791TIP3    H171864   1.244   0.736   2.022 -0.3759 -0.4159  0.0360
16791TIP3    H271865   1.348   0.846   2.008  0.5368 -1.1203  1.1019
16792TIP3   OH271866   5.208   2.261   3.987 -0.3235  0.0710 -0.7798
16792TIP3    H171867   5.180   2.220   3.905 -1.4378 -0.5225 -0.1355
16792TIP3    H271868   5.245   2.189   4.038  0.8187  0.5331 -0.9379
16793TIP3   OH271869   2.618   2.032  14.639 -0.1734 -0.0662  0.0012
16793TIP3    H171870   2.692   2.039  14.579  0.5958 -1.9888  0.6555
16793TIP3    H271871   2.627   1.946  14.679 -1.3675  0.6438  1.9685
16794TIP3   OH271872   1.880   0.396  16.406  0.2751 -0.1683  0.1288
16794TIP3    H171873   1.896   0.304  16.430  2.0881  0.3917  1.2909
16794TIP3    H271874   1.935   0.410  16.328 -1.7170 -0.6097 -1.4466
16795TIP3   OH271875   4.114   0.122  15.533  0.1143 -0.4272 -0.0984
16795TIP3    H171876   4.079   0.137  15.621 -0.3585  0.2382 -0.3975
16795TIP3    H271877   4.113   0.208  15.491  1.4591 -0.5141 -0.3603
16796TIP3   OH271878   2.304   5.723   3.029 -0.1929  0.0106  0.0919
16796TIP3    H171879   2.289   5.645   2.975 -0.3697  0.4743 -0.5357
16796TIP3    H271880   2.274   5.697   3.116 -1.5602 -0.1967 -0.4050
16797TIP3   OH271881   0.431   1.040   0.651 -0.6104  0.0726 -0.2273
16797TIP3    H171882   0.415   0.959   0.603  1.7760 -0.5352 -0.1285
16797TIP3    H271883   0.483   1.094   0.590  1.9656 -0.4757  1.3276
16798TIP3   OH271884   5.187   6.509  13.382  0.1166  0.4137  0.2511
16798TIP3    H171885   5.236   6.587  13.408  1.4655  0.6369 -2.5621
16798TIP3    H271886   5.253   6.441  13.370 -0.4777  0.0718 -1.3993
16799TIP3   OH271887   4.971   0.454  13.601 -0.1065  0.0454  0.0383
16799TIP3    H171888   5.052   0.420  13.565 -1.0907 -2.1544 -0.2691
16799TIP3    H271889   4.958   0.538  13.557  2.2140  0.7023  0.4853
16800TIP3   OH271890   5.868   3.627  12.456  0.1156 -0.2980 -0.4464
16800TIP3    H171891   5.921   3.623  12.535 -0.3447  2.6230  0.1381
16800TIP3    H271892   5.781   3.599  12.484  0.5717 -2.0168 -0.6519
16801TIP3   OH271893   5.478   2.463  14.714  0.1953 -0.5249 -0.3223
16801TIP3    H171894   5.395   2.442  14.756  1.2288  0.5339  2.5358
16801TIP3    H271895   5.528   2.382  14.716  0.3044 -0.4410  0.7796
16802TIP3   OH271896   6.626   6.224   3.645  0.1997 -0.2811  0.0764
16802TIP3    H171897   6.664   6.209   3.559 -1.8212 -1.1706 -0.7297
16802TIP3    H271898   6.610   6.318   3.647 -1.7827 -0.5066 -1.5168
16803TIP3   OH271899   5.193   4.480  14.296 -0.1544 -0.3978  0.2759
16803TIP3    H171900   5.245   4.472  14.376 -1.7493 -0.1927  1.3700
16803TIP3    H271901   5.103   4.492  14.327 -0.5416  1.9488 -1.4759
16804TIP3   OH271902   3.603   2.577  14.761 -0.1106  0.1266 -0.0769
16804TIP3    H171903   3.674   2.553  14.821  0.9951 -0.7990 -1.6925
16804TIP3    H271904   3.549   2.499  14.754  0.2246 -0.0451 -0.8862
16805TIP3   OH271905   5.947   1.605  12.344  0.0091  0.1540  0.4339
16805TIP3    H171906   5.931   1.513  12.326 -1.3530  0.3457  0.5378
16805TIP3    H271907   5.877   1.630  12.405  1.0445  0.9740  1.3377
16806TIP3   OH271908   3.286   5.109  12.514  0.2559 -0.0671  0.1599
16806TIP3    H171909   3.282   5.072  12.426 -0.8679 -0.3543  0.3273
16806TIP3    H271910   3.370   5.156  12.516 -0.7019  1.8638 -1.8193
16807TIP3   OH271911   2.941   2.096   0.813  0.0570  0.3229  0.4952
16807TIP3    H171912   2.993   2.087   0.893 -0.2406  0.2959  0.6915
16807TIP3    H271913   3.004   2.095   0.742  0.5238  2.4932  0.8332
16808TIP3   OH271914   0.423   2.751  17.104 -0.1480  0.5447 -0.4273
16808TIP3    H171915   0.464   2.756  17.190  0.6101 -0.4974 -0.7019
16808TIP3    H271916   0.477   2.807  17.048  0.7229 -0.5303 -0.7036
16809TIP3   OH271917   2.584   4.300   1.638  0.1902  0.0869  0.2996
16809TIP3    H171918   2.526   4.307   1.713  1.5825  1.7715  1.2943
16809TIP3    H271919   2.665   4.342   1.666  0.4716  1.6030 -2.4537
16810TIP3   OH271920   2.782   2.760   2.103 -0.1027  0.1374 -0.3519
16810TIP3    H171921   2.737   2.788   2.024 -2.2485 -0.7551  0.4858
16810TIP3    H271922   2.720   2.701   2.147  1.6752 -0.7175  1.1592
16811TIP3   OH271923   5.383   0.415  16.297  0.4505  0.4192 -0.3584
16811TIP3    H171924   5.305   0.366  16.321  0.5839  0.0066 -0.7660
16811TIP3    H271925   5.359   0.461  16.217  1.0266 -0.7023 -1.1917
16812TIP3   OH271926   6.320   0.809   5.069 -0.7361 -0.2608 -0.2990
16812TIP3    H171927   6.407   0.768   5.063 -1.2274 -1.2437 -0.8906
16812TIP3    H271928   6.263   0.753   5.016 -2.2534 -1.0365  1.9880
16813TIP3   OH271929   2.878   0.560   0.027 -0.0327 -0.4058  0.8018
16813TIP3    H171930   2.887   0.628   0.093 -0.6765 -1.0565  1.5908
16813TIP3    H271931   2.952   0.500   0.043  0.7869  0.3000 -0.1670
16814TIP3   OH271932   3.461   3.468   5.796  0.2031 -0.8696  0.1726
16814TIP3    H171933   3.404   3.396   5.767 -1.7477  1.1364 -1.2839
16814TIP3    H271934   3.410   3.514   5.862  0.6221  0.2734 -0.2783
16815TIP3   OH271935   4.243   3.795   0.977  0.1893  0.5702  0.2567
16815TIP3    H171936   4.215   3.725   1.037  0.5596 -0.0622 -0.2914
16815TIP3    H271937   4.333   3.771   0.954 -0.1281  0.5114 -0.9698
16816TIP3   OH271938   6.734   5.600  14.050  0.0255 -0.3013 -0.0063
16816TIP3    H171939   6.775   5.515  14.067 -0.3318 -0.1024  2.1816
16816TIP3    H271940   6.683   5.587  13.971  0.4580 -1.9550 -0.0534
16817TIP3   OH271941   5.208   4.724   4.090  0.3627 -0.9014 -0.8681
16817TIP3    H171942   5.278   4.785   4.116  0.3307 -0.9459 -0.6782
16817TIP3    H271943   5.146   4.779   4.041 -0.4465 -0.4335  0.6198
16818TIP3   OH271944   0.856   5.691   4.778  0.5462 -0.5122  0.0313
16818TIP3    H171945   0.871   5.675   4.685  0.8047  3.0825 -0.6729
16818TIP3    H271946   0.763   5.676   4.790  0.7537 -2.3918 -0.4234
16819TIP3   OH271947   4.608   4.077  10.397 -0.4821  0.5785 -0.2459
16819TIP3    H171948   4.681   4.117  10.350 -1.1042  0.9735 -0.9220
16819TIP3    H271949   4.589   4.137  10.469 -2.3165  2.3654 -2.0675
16820TIP3   OH271950   4.167   5.414   2.930  0.0344  0.2078 -0.1538
16820TIP3    H171951   4.074   5.398   2.914  0.3403 -1.6004 -0.3981
16820TIP3    H271952   4.195   5.468   2.856 -0.2970 -1.4159 -1.5373
16821TIP3   OH271953   6.297   4.795   0.807 -0.3574 -0.6166  0.3009
16821TIP3    H171954   6.391   4.780   0.807 -0.0369  0.7908 -2.2367
16821TIP3    H271955   6.269   4.768   0.719 -1.7551  1.8038 -0.0910
16822TIP3   OH271956   4.316   4.889   2.693  0.2881 -0.1522  0.8421
16822TIP3    H171957   4.343   4.946   2.621 -0.1543  0.9825  1.5420
16822TIP3    H271958   4.397   4.874   2.742  0.3708  0.0712  0.7795
16823TIP3   OH271959   4.642   5.861   1.655  0.2891 -0.2229 -0.2094
16823TIP3    H171960   4.707   5.883   1.589  0.8463 -0.2700  0.3203
16823TIP3    H271961   4.575   5.929   1.647  0.5265 -0.0327 -0.5860
16824TIP3   OH271962   3.588   5.025   0.209 -0.2601 -0.4483 -0.4256
16824TIP3    H171963   3.524   5.072   0.156 -2.3075 -1.4916  1.0185
16824TIP3    H271964   3.568   5.051   0.299  3.4058  1.6532  0.0156
16825TIP3   OH271965   4.620   5.187  13.247  0.0666 -0.0238  0.6662
16825TIP3    H171966   4.685   5.256  13.239 -0.0861  0.0513  0.0221
16825TIP3    H271967   4.672   5.107  13.261  0.3461 -0.0682 -0.5078
16826TIP3   OH271968   2.620   4.048   3.693 -0.2233 -0.4356 -0.1182
16826TIP3    H171969   2.689   4.029   3.756 -0.7600  0.0779  0.6443
16826TIP3    H271970   2.592   3.962   3.661  0.2787 -0.6796  0.0852
16827TIP3   OH271971   1.416   1.092   3.947 -0.5172 -0.5641  0.0197
16827TIP3    H171972   1.390   1.113   4.037 -0.4395 -0.1568 -0.0515
16827TIP3    H271973   1.340   1.118   3.894 -1.1421 -2.1334  0.1023
16828TIP3   OH271974   3.147   3.666   3.155 -0.0251  0.3543  0.3830
16828TIP3    H171975   3.076   3.705   3.207 -0.0222  1.5048 -0.4270
16828TIP3    H271976   3.203   3.741   3.133 -0.5797  0.0927 -2.1254
16829TIP3   OH271977   3.243   1.840   6.697  0.5279  0.2319  0.3611
16829TIP3    H171978   3.274   1.750   6.699  0.2141  0.0947 -0.5768
16829TIP3    H271979   3.244   1.867   6.789 -0.8795 -1.2459  0.8620
16830TIP3   OH271980   3.480   3.888  12.770 -0.2482 -0.0589 -0.4819
16830TIP3    H171981   3.516   3.801  12.753  0.1029  0.1839 -1.0294
16830TIP3    H271982   3.393   3.886  12.730 -1.1519 -0.8610  1.4107
16831TIP3   OH271983   5.616   0.618  12.328  0.8662  0.3888  0.1466
16831TIP3    H171984   5.582   0.589  12.244  0.2325 -0.5747  0.7124
16831TIP3    H271985   5.625   0.538  12.380  0.4696  1.0374  1.2684
16832TIP3   OH271986   5.277   6.109  14.253 -0.3379 -0.0511  0.0682
16832TIP3    H171987   5.295   6.195  14.291 -0.0950  0.4842 -1.2019
16832TIP3    H271988   5.295   6.121  14.160 -1.0410 -1.2868 -0.2313
16833TIP3   OH271989   3.137   5.852  16.098  0.1420  0.7312 -0.1459
16833TIP3    H171990   3.094   5.827  16.180 -0.8201  0.2504 -0.7836
16833TIP3    H271991   3.190   5.776  16.074 -2.3817 -0.6698 -1.8133
16834TIP3   OH271992   2.615   4.001   1.305 -0.6835  0.2240 -0.2257
16834TIP3    H171993   2.643   4.090   1.329  0.8463 -0.6456  1.4398
16834TIP3    H271994   2.679   3.973   1.240 -0.0073 -0.3238  0.6545
16835TIP3   OH271995   4.971   3.965   2.715  0.7790 -0.0129  0.4439
16835TIP3    H171996   4.898   4.002   2.765 -0.0633  0.7517 -1.2745
16835TIP3    H271997   4.978   3.875   2.745 -0.1676  0.2134  1.4053
16836TIP3   OH271998   2.902   3.717   5.434 -0.1299  0.1062  0.3616
16836TIP3    H171999   2.888   3.627   5.404 -0.0013  0.1527  0.1610
16836TIP3    H272000   2.915   3.710   5.529  0.7639 -0.1788  0.2207
16837TIP3   OH272001   3.529   5.653   5.920 -0.0826 -0.0949  0.3239
16837TIP3    H172002   3.545   5.746   5.939  1.9139  0.0561 -1.7090
16837TIP3    H272003   3.594   5.607   5.973  2.3472  0.0598 -2.3008
16838TIP3   OH272004   4.359   2.310  14.728  0.3179 -0.4209  0.0060
16838TIP3    H172005   4.415   2.375  14.686  0.9980 -2.0894 -1.8075
16838TIP3    H272006   4.420   2.244  14.763 -0.3823 -0.4631  1.2217
16839TIP3   OH272007   5.263   5.966   6.588 -0.2925  0.6972  0.0346
16839TIP3    H172008   5.278   5.902   6.519  0.8330  2.1210 -1.1162
16839TIP3    H272009   5.178   5.943   6.625 -0.6803 -0.4120 -1.4827
16840TIP3   OH272010   2.516   1.498   6.223 -0.5028 -0.1450  0.0056
16840TIP3    H172011   2.443   1.560   6.221  0.5563  1.1110 -1.2598
16840TIP3    H272012   2.521   1.470   6.315 -2.5129 -0.2341  0.1412
16841TIP3   OH272013   1.934   5.109   2.627  0.3981  0.3524  0.1605
16841TIP3    H172014   1.945   5.143   2.538 -0.4655  0.6374  0.1552
16841TIP3    H272015   1.888   5.179   2.673 -0.8560 -0.5576  0.3176
16842TIP3   OH272016   1.154   0.908   3.830  0.7503 -0.2062 -0.1460
16842TIP3    H172017   1.076   0.924   3.777  1.0749 -1.0618 -0.8940
16842TIP3    H272018   1.200   0.837   3.785  0.0326 -2.3639  2.3219
16843TIP3   OH272019   6.606   5.104   5.236 -0.0976  0.5479  0.3919
16843TIP3    H172020   6.649   5.161   5.300 -1.2387  1.3501  0.4719
16843TIP3    H272021   6.564   5.036   5.288  0.3954  0.2123  0.3631
16844TIP3   OH272022   4.738   6.312   0.821  0.4970  0.2899  0.9360
16844TIP3    H172023   4.698   6.361   0.749 -1.1640  0.1046  1.6781
16844TIP3    H272024   4.798   6.374   0.861  1.3250  0.4474 -0.4936
16845TIP3   OH272025   3.764   5.857   5.811 -0.4374 -0.1792  0.0320
16845TIP3    H172026   3.718   5.867   5.894 -2.7068 -1.1633 -1.0016
16845TIP3    H272027   3.799   5.768   5.813  0.2159  0.0771  0.2404
16846TIP3   OH272028   6.337   2.410   0.079  0.1998 -0.2553  0.4209
16846TIP3    H172029   6.394   2.409   0.155  0.6388 -2.0389  0.0952
16846TIP3    H272030   6.288   2.328   0.084  0.4656 -0.5665 -1.3765
16847TIP3   OH272031   5.731   3.005  13.578 -0.3886  0.0100  0.0529
16847TIP3    H172032   5.702   2.961  13.498  1.4650 -1.9894  0.3798
16847TIP3    H272033   5.751   3.094  13.550  3.0298 -1.3484 -2.5541
16848TIP3   OH272034   0.623   4.900   2.823 -0.3668 -0.1917  0.2189
16848TIP3    H172035   0.658   4.861   2.742 -0.9185 -1.3150  0.5051
16848TIP3    H272036   0.645   4.993   2.816  0.2412 -0.4002 -0.8825
16849TIP3   OH272037   3.315   0.843   5.131  0.0391  0.2483 -0.5829
16849TIP3    H172038   3.258   0.833   5.208 -0.6096 -1.6152 -1.2515
16849TIP3    H272039   3.257   0.828   5.056  0.9772  0.4820 -1.3712
16850TIP3   OH272040   2.824   5.477  14.872  0.2113 -0.5434 -0.1391
16850TIP3    H172041   2.761   5.466  14.800  1.0110 -0.1097 -0.9296
16850TIP3    H272042   2.818   5.396  14.922 -0.6692 -0.6828 -0.4490
16851TIP3   OH272043   2.860   3.491   0.656 -0.2438 -0.2859  0.3034
16851TIP3    H172044   2.943   3.448   0.638 -0.5465 -0.7339 -0.0554
16851TIP3    H272045   2.866   3.575   0.611  0.4029  0.1175  1.1130
16852TIP3   OH272046   1.067   4.234   3.507 -0.3114 -0.5551 -0.2859
16852TIP3    H172047   1.141   4.181   3.479  0.7690  0.8212 -0.1671
16852TIP3    H272048   1.064   4.225   3.602  0.8463  0.7398 -0.0894
16853TIP3   OH272049   0.147   5.637   5.702  0.3115 -0.3595  0.0411
16853TIP3    H172050   0.152   5.629   5.797 -3.2109 -1.1487  0.2964
16853TIP3    H272051   0.117   5.727   5.687 -1.2970 -0.8823 -0.1035
16854TIP3   OH272052   4.623   5.898  12.404  0.2245 -0.5031 -0.0697
16854TIP3    H172053   4.576   5.968  12.449 -2.7732 -1.0191 -2.1658
16854TIP3    H272054   4.701   5.941  12.369  0.8516  0.6575  2.5131
16855TIP3   OH272055   1.336   3.970  16.919 -0.3337  0.0645  0.7980
16855TIP3    H172056   1.282   3.914  16.974  1.1141 -0.9144  1.2707
16855TIP3    H272057   1.423   3.931  16.922  0.2999  1.2834 -0.3760
16856TIP3   OH272058   1.606   0.586   2.738  0.4453  0.7958  0.3159
16856TIP3    H172059   1.558   0.539   2.806 -1.2898 -0.9409 -1.9539
16856TIP3    H272060   1.666   0.642   2.786 -0.4598 -0.5461  3.2558
16857TIP3   OH272061   2.498   4.320  15.033  0.4824 -0.7545  0.4770
16857TIP3    H172062   2.434   4.388  15.053  0.3979  0.0432 -2.1676
16857TIP3    H272063   2.568   4.334  15.098 -0.1326  0.9964  0.8220
16858TIP3   OH272064   6.014   5.916   2.391 -0.3467 -0.1172  0.1576
16858TIP3    H172065   5.968   5.999   2.388 -2.9386 -1.4696 -0.4468
16858TIP3    H272066   6.005   5.887   2.482  1.6149  0.7452  0.6781
16859TIP3   OH272067   3.422   2.775   0.929 -0.1329  0.4600  0.2593
16859TIP3    H172068   3.505   2.821   0.920  0.0011  0.0224 -0.8661
16859TIP3    H272069   3.388   2.804   1.014  1.4206  0.2078  1.0078
16860TIP3   OH272070   2.159   5.170   2.799 -0.5205  0.1846 -0.1418
16860TIP3    H172071   2.098   5.195   2.868 -1.4400  1.0943 -1.2447
16860TIP3    H272072   2.104   5.148   2.724  0.3906 -2.3521 -0.1457
16861TIP3   OH272073   5.744   2.124  11.090 -0.4271  0.1960 -0.1678
16861TIP3    H172074   5.714   2.038  11.061  0.0705 -0.0504  0.0423
16861TIP3    H272075   5.823   2.141  11.039  0.9471 -0.6120  1.5960
16862TIP3   OH272076   0.131   0.844  17.107 -0.2055 -0.3057 -0.3978
16862TIP3    H172077   0.178   0.900  17.047 -1.2431 -0.3014 -1.2405
16862TIP3    H272078   0.081   0.904  17.163  0.2410 -0.3317  0.0355
16863TIP3   OH272079   3.883   0.340   0.891  0.5429 -0.1792 -0.3482
16863TIP3    H172080   3.796   0.352   0.927 -0.1374  0.3942 -2.0827
16863TIP3    H272081   3.876   0.260   0.838  1.5068 -0.9949  0.7044
16864TIP3   OH272082   5.348   1.428   0.600 -0.4080  0.2379  0.2372
16864TIP3    H172083   5.315   1.448   0.513 -0.2041 -1.6080 -0.3089
16864TIP3    H272084   5.305   1.346   0.624  0.8595 -0.2010  1.1265
16865TIP3   OH272085   0.896   1.950   1.777 -0.2358 -0.2492 -0.2963
16865TIP3    H172086   0.871   2.014   1.844  1.7142 -0.7728  1.0213
16865TIP3    H272087   0.871   1.865   1.814  3.3360 -0.8378  1.2479
16866TIP3   OH272088   6.676   4.907  11.600  0.1749  0.1306 -0.1525
16866TIP3    H172089   6.703   4.997  11.584 -1.6292  0.5959 -0.7807
16866TIP3    H272090   6.589   4.914  11.640  0.0142 -1.3246 -0.1824
16867TIP3   OH272091   1.444   2.669  15.112 -0.0656 -0.2266 -0.3788
16867TIP3    H172092   1.420   2.594  15.058  0.1967 -0.4860 -0.1389
16867TIP3    H272093   1.532   2.693  15.083 -0.0324 -0.1957 -0.2564
16868TIP3   OH272094   5.230   2.024  14.836  0.5897  0.1737  0.0096
16868TIP3    H172095   5.264   1.935  14.844 -0.2567 -0.2935 -1.2345
16868TIP3    H272096   5.306   2.077  14.813  1.0076 -0.3206  0.2359
16869TIP3   OH272097   6.202   6.749  16.912 -0.3130 -0.0267 -0.0011
16869TIP3    H172098   6.268   6.680  16.902  0.1393  0.4075 -0.0092
16869TIP3    H272099   6.249   6.831  16.899 -0.8927  0.2854 -0.2105
16870TIP3   OH272100   1.810   5.335  11.801 -0.1769 -0.3523  0.1032
16870TIP3    H172101   1.783   5.263  11.858 -0.1939  0.1990  0.8078
16870TIP3    H272102   1.905   5.328  11.797 -0.1266 -0.0448  0.6793
16871TIP3   OH272103   4.390   2.736  10.705 -0.4962  0.3694  0.3640
16871TIP3    H172104   4.409   2.695  10.620 -0.6829  1.3052 -0.1479
16871TIP3    H272105   4.449   2.812  10.708 -1.8295  1.4427  0.1976
16872TIP3   OH272106   6.292   5.887  11.392  0.1276  0.3026  0.2494
16872TIP3    H172107   6.318   5.903  11.301 -2.1799 -0.4656 -0.6008
16872TIP3    H272108   6.335   5.957  11.442  0.2994  1.5891 -1.6120
16873TIP3   OH272109   1.992   1.630  15.430  0.5704  0.0351 -0.1414
16873TIP3    H172110   2.048   1.563  15.392  0.0551 -0.4692 -0.0196
16873TIP3    H272111   1.927   1.648  15.362  1.4601  1.3431 -0.6787
16874TIP3   OH272112   6.060   1.352   0.230  0.1845 -0.2221  0.3474
16874TIP3    H172113   5.965   1.343   0.238 -0.0364  2.5157  1.9601
16874TIP3    H272114   6.073   1.438   0.190  2.0407 -1.5513 -2.2774
16875TIP3   OH272115   5.717   4.271   4.312  0.2938 -0.2992  1.0100
16875TIP3    H172116   5.751   4.355   4.343 -0.0410  0.2672 -0.1302
16875TIP3    H272117   5.649   4.248   4.375  1.8659 -0.8468  2.6251
16876TIP3   OH272118   0.471   6.335   2.693  0.5675  0.0986  0.5348
16876TIP3    H172119   0.411   6.372   2.628  1.0515  0.5287  0.3264
16876TIP3    H272120   0.451   6.383   2.773 -0.8505 -1.2369  1.0379
16877TIP3   OH272121   3.423   6.260   5.031  0.0329 -0.4283  0.1842
16877TIP3    H172122   3.483   6.305   5.090 -0.7517 -0.9745  1.4380
16877TIP3    H272123   3.460   6.274   4.944  1.3392  0.2106  0.8159
16878TIP3   OH272124   1.870   6.388   4.318  0.2111 -0.1087  0.6117
16878TIP3    H172125   1.831   6.475   4.323  3.4404  1.5854 -0.8889
16878TIP3    H272126   1.906   6.373   4.405  1.0024  0.8101  0.4593
16879TIP3   OH272127   6.657   4.796   2.739  0.4600  0.5350 -0.8538
16879TIP3    H172128   6.721   4.736   2.777  0.7745  0.3629 -1.6375
16879TIP3    H272129   6.681   4.801   2.646  0.8538  2.3765 -0.6972
16880TIP3   OH272130   0.930   0.590   2.095  0.1118 -0.6054  0.6108
16880TIP3    H172131   0.995   0.547   2.041  0.7372  1.5037 -0.4209
16880TIP3    H272132   0.847   0.579   2.048  0.2012 -0.9187  0.5261
16881TIP3   OH272133   0.514   6.042  11.813 -0.3918 -0.4721 -0.3869
16881TIP3    H172134   0.601   6.009  11.836 -0.7973 -0.9946  0.4665
16881TIP3    H272135   0.501   6.116  11.872 -1.1226 -1.3300  0.5626
16882TIP3   OH272136   6.501   4.093  13.668  0.6577  0.2953 -0.5694
16882TIP3    H172137   6.542   4.010  13.693 -0.1112  0.1948  0.3871
16882TIP3    H272138   6.418   4.095  13.716  0.7749  1.7401 -0.3823
16883TIP3   OH272139   0.739   0.096  13.957 -0.2471 -0.0294  0.0383
16883TIP3    H172140   0.783   0.130  14.034  0.4300 -0.0409 -0.3354
16883TIP3    H272141   0.809   0.084  13.892 -0.8712  0.4537 -0.7485
16884TIP3   OH272142   3.645   2.318   2.960 -0.1390  0.2366  0.0907
16884TIP3    H172143   3.589   2.244   2.935  1.9599 -0.8237 -1.8154
16884TIP3    H272144   3.690   2.288   3.039 -1.1975  0.5611  0.8405
16885TIP3   OH272145   1.685   3.083  12.197 -0.0987 -1.2782 -0.1689
16885TIP3    H172146   1.685   3.135  12.117  0.0953 -2.0170 -0.6613
16885TIP3    H272147   1.620   3.125  12.253 -2.7520 -2.6152 -1.9928
16886TIP3   OH272148   4.317   5.582   0.866  0.2573  0.4559  0.9891
16886TIP3    H172149   4.381   5.542   0.806 -2.1486 -0.2472 -1.2932
16886TIP3    H272150   4.346   5.553   0.953  0.2205 -4.2539 -0.2548
16887TIP3   OH272151   6.560   0.660   3.777 -0.7976  0.4963 -0.8068
16887TIP3    H172152   6.564   0.675   3.683  0.1004 -1.1371 -1.0593
16887TIP3    H272153   6.518   0.574   3.786 -1.3864  0.8784  0.3213
16888TIP3   OH272154   3.703   6.193  12.597 -0.5308  0.0960  0.3792
16888TIP3    H172155   3.776   6.131  12.602 -1.6669 -1.2383  1.0488
16888TIP3    H272156   3.745   6.279  12.600  1.0562 -0.6257  0.0515
16889TIP3   OH272157   1.127   1.866  15.713  0.3395 -0.3307 -0.0793
16889TIP3    H172158   1.120   1.834  15.803  0.2138 -3.0768 -0.9679
16889TIP3    H272159   1.213   1.836  15.684  0.6951  1.1770 -0.6764
16890TIP3   OH272160   0.962   0.144  12.903  0.4506 -0.0492 -0.1940
16890TIP3    H172161   1.031   0.147  12.837  0.2636  0.1723 -0.3820
16890TIP3    H272162   0.920   0.230  12.897  1.7968  0.8330  1.6659
16891TIP3   OH272163   5.890   2.432  13.027 -0.3455 -0.1779  0.0698
16891TIP3    H172164   5.981   2.434  12.999  0.0028  0.4258  1.1806
16891TIP3    H272165   5.853   2.515  12.995 -0.0150  0.3958  1.1423
16892TIP3   OH272166   4.304   0.651  15.537  0.6337  0.5234  0.0353
16892TIP3    H172167   4.373   0.601  15.580 -0.3275 -0.7387  0.1593
16892TIP3    H272168   4.222   0.610  15.566 -0.1869  1.9945 -0.0872
16893TIP3   OH272169   1.047   3.715  13.970 -0.5465 -0.4273 -0.4886
16893TIP3    H172170   0.970   3.691  13.919  1.0358 -2.2553 -2.2033
16893TIP3    H272171   1.121   3.696  13.912  1.2197  1.3052  1.0538
16894TIP3   OH272172   4.880   1.025   2.306 -0.8033  0.2764 -0.0318
16894TIP3    H172173   4.943   1.085   2.265 -0.2898 -1.3953 -1.8038
16894TIP3    H272174   4.929   0.984   2.377 -0.5973  0.6097  0.0242
16895TIP3   OH272175   5.106   6.384  12.072  0.9190  0.3813  0.1278
16895TIP3    H172176   5.050   6.391  11.994  0.8839 -0.1699  0.0977
16895TIP3    H272177   5.112   6.473  12.106 -0.7661  0.3204  0.6725
16896TIP3   OH272178   2.946   4.175   1.573  0.9811 -0.4707 -0.3443
16896TIP3    H172179   3.010   4.189   1.643  0.4584 -0.8361  0.2218
16896TIP3    H272180   2.889   4.106   1.607 -0.7107  0.9627 -0.1323
16897TIP3   OH272181   0.455   4.744  12.596 -0.3370  0.6930  0.2683
16897TIP3    H172182   0.538   4.761  12.552 -0.5718  1.4492  0.1116
16897TIP3    H272183   0.475   4.676  12.660  0.2546  0.3952 -0.2248
16898TIP3   OH272184   0.808   1.556   4.414  0.3534  0.4259  0.1966
16898TIP3    H172185   0.842   1.598   4.334  0.3508  0.9144  0.4517
16898TIP3    H272186   0.860   1.476   4.421 -1.8022 -1.3373 -2.0863
16899TIP3   OH272187   2.671   4.606   2.386  0.0023  0.4011  0.2132
16899TIP3    H172188   2.616   4.588   2.463 -0.9617 -0.3778 -0.6304
16899TIP3    H272189   2.673   4.523   2.338  0.1264  1.0251 -0.8881
16900TIP3   OH272190   2.790   0.701  16.155  0.4319 -0.2145 -0.6525
16900TIP3    H172191   2.743   0.778  16.187 -0.2716 -0.4756 -1.0493
16900TIP3    H272192   2.881   0.717  16.180  0.2352  0.5820 -0.4205
16901TIP3   OH272193   4.246   5.170  15.953  0.3381 -0.5335 -0.4185
16901TIP3    H172194   4.160   5.212  15.956  0.4608 -0.3337  0.8215
16901TIP3    H272195   4.284   5.188  16.039  1.7757 -0.3009 -1.0787
16902TIP3   OH272196   4.986   1.450   0.844  0.6670  0.0757 -0.3680
16902TIP3    H172197   4.981   1.355   0.854 -0.6982  0.1338 -0.2417
16902TIP3    H272198   4.921   1.484   0.905  1.7272  1.1510  0.2018
16903TIP3   OH272199   3.200   4.691  14.084  0.0198  1.2135  0.1799
16903TIP3    H172200   3.169   4.640  14.159 -0.5513 -1.0355 -1.4872
16903TIP3    H272201   3.257   4.631  14.036  2.2693  3.3359 -0.0471
16904TIP3   OH272202   3.867   3.133   1.052  0.8372  0.5988  0.0095
16904TIP3    H172203   3.925   3.205   1.076 -0.2091  1.3829  0.2501
16904TIP3    H272204   3.843   3.093   1.136 -0.2399  1.2968  0.0470
16905TIP3   OH272205   0.126   5.262  12.342  1.1676 -0.2768  0.3829
16905TIP3    H172206   0.185   5.323  12.386  0.2129  0.6539  0.3985
16905TIP3    H272207   0.054   5.316  12.310  0.6549 -1.2898 -0.2371
16906TIP3   OH272208   2.077   4.337   5.727  0.4929 -0.4741  0.3618
16906TIP3    H172209   1.991   4.366   5.696  0.0958 -1.0044  0.9625
16906TIP3    H272210   2.102   4.403   5.792  0.5945 -0.2653  0.1170
16907TIP3   OH272211   6.814   5.357  11.155  0.4855 -0.0626  0.2981
16907TIP3    H172212   6.858   5.390  11.077 -2.0509  2.6248 -0.1826
16907TIP3    H272213   6.856   5.404  11.227 -1.1295  2.2117 -0.1262
16908TIP3   OH272214   6.308   1.912  16.881  0.1660  0.2350 -0.3335
16908TIP3    H172215   6.263   1.995  16.869  2.4220  1.5575 -0.2186
16908TIP3    H272216   6.299   1.867  16.797  0.7888  1.6170 -1.1700
16909TIP3   OH272217   6.769   5.021  12.226  0.0157  0.0569 -0.1160
16909TIP3    H172218   6.724   5.104  12.242  0.1765 -0.1673  1.6254
16909TIP3    H272219   6.852   5.046  12.185  0.2205  0.7854  0.7256
16910TIP3   OH272220   2.816   5.517  12.600 -0.5797  0.6124  0.0445
16910TIP3    H172221   2.802   5.480  12.513 -2.0525  1.8802 -0.2955
16910TIP3    H272222   2.822   5.611  12.586 -0.5975  0.8189  1.2910
16911TIP3   OH272223   2.868   1.549   3.944 -0.4719  0.8444 -0.0096
16911TIP3    H172224   2.816   1.559   4.023 -0.0079  0.6350  0.3258
16911TIP3    H272225   2.863   1.456   3.923 -1.7753  1.1259 -1.0497
16912TIP3   OH272226   5.885   4.504  13.150 -0.1994 -0.8429 -0.1403
16912TIP3    H172227   5.974   4.529  13.174 -0.8277 -0.2012  1.7020
16912TIP3    H272228   5.839   4.588  13.138 -0.6412 -1.1625 -0.7566
16913TIP3   OH272229   0.507   1.533  15.146 -0.3408  0.5649  0.2976
16913TIP3    H172230   0.542   1.601  15.088 -0.8442  0.6778  0.1232
16913TIP3    H272231   0.463   1.472  15.086 -0.5800  0.5086  0.5311
16914TIP3   OH272232   0.853   3.759  12.336  0.4758  0.8456 -0.1783
16914TIP3    H172233   0.796   3.728  12.265 -0.7558  0.7337  0.8202
16914TIP3    H272234   0.795   3.810  12.392  0.9368 -0.6441  1.7721
16915TIP3   OH272235   6.380   4.546   6.425 -0.2050  0.3062 -0.0073
16915TIP3    H172236   6.416   4.624   6.467  2.9199 -1.9006  1.9181
16915TIP3    H272237   6.303   4.524   6.477  0.0384  1.0554  0.6921
16916TIP3   OH272238   2.391   4.103  17.026 -0.0535  0.2693 -0.2416
16916TIP3    H172239   2.454   4.139  17.088  1.3919 -0.4902 -1.2159
16916TIP3    H272240   2.321   4.067  17.081  1.3211 -0.6554  0.9708
16917TIP3   OH272241   3.806   3.980   0.834 -0.3092  0.2063 -0.0104
16917TIP3    H172242   3.731   4.024   0.793  0.6315  1.2521 -0.6608
16917TIP3    H272243   3.798   4.002   0.927  0.7879  2.8460 -0.4581
16918TIP3   OH272244   4.238   4.594   0.730 -0.1353  0.0204 -0.2167
16918TIP3    H172245   4.221   4.597   0.824 -0.1858 -1.3196 -0.1642
16918TIP3    H272246   4.186   4.667   0.694 -0.5885  0.1753  0.7129
16919TIP3   OH272247   2.607   4.750   3.630  0.1913  0.0301  0.1407
16919TIP3    H172248   2.690   4.775   3.669 -0.3124 -1.1697  2.0841
16919TIP3    H272249   2.547   4.821   3.651  0.6132  0.7593 -1.0179
16920TIP3   OH272250   4.728   6.630   0.518 -0.2573 -0.4476  0.4249
16920TIP3    H172251   4.776   6.601   0.440 -0.7685 -0.6754  0.1938
16920TIP3    H272252   4.797   6.659   0.579  0.1551 -0.4831 -0.0205
16921TIP3   OH272253   4.820   4.034  16.665 -0.2253 -0.6255 -0.2595
16921TIP3    H172254   4.803   4.113  16.613 -1.3737 -0.4356  0.3615
16921TIP3    H272255   4.843   4.067  16.752 -0.6095 -0.9752 -0.0228
16922TIP3   OH272256   2.729   6.300   5.409 -0.0521 -0.5260  0.2247
16922TIP3    H172257   2.787   6.374   5.393 -0.1616 -0.3680  0.5458
16922TIP3    H272258   2.643   6.330   5.378  0.2931 -1.2666 -1.5749
16923TIP3   OH272259   0.861   0.377  13.233  0.2238 -0.2637  0.4004
16923TIP3    H172260   0.913   0.330  13.299 -2.4200 -3.2969  0.6042
16923TIP3    H272261   0.799   0.429  13.284 -1.2302 -1.9138  0.4169
16924TIP3   OH272262   1.347   5.424  15.281 -0.0672  0.0744  0.4354
16924TIP3    H172263   1.425   5.377  15.311  0.0914  1.2297  1.9330
16924TIP3    H272264   1.273   5.373  15.313 -0.0316 -1.6396 -1.9253
16925TIP3   OH272265   6.791   0.787  11.425  0.0609  0.4225 -0.3588
16925TIP3    H172266   6.737   0.728  11.477  1.1873 -0.5921 -0.2953
16925TIP3    H272267   6.729   0.850  11.387 -1.0319 -0.1499  0.4357
16926TIP3   OH272268   1.664   0.478  14.023  0.3514  0.0386 -0.8086
16926TIP3    H172269   1.643   0.405  14.081  2.3497 -0.4781 -0.6464
16926TIP3    H272270   1.582   0.525  14.012 -0.3613 -0.5943  1.3857
16927TIP3   OH272271   1.826   1.963  17.129 -0.2070 -0.2024 -0.5854
16927TIP3    H172272   1.915   1.991  17.109  0.7932 -2.0141  0.9764
16927TIP3    H272273   1.789   2.037  17.179  0.1286  0.8560 -1.8506
16928TIP3   OH272274   2.199   4.623   4.877  0.1366 -0.1897  0.1997
16928TIP3    H172275   2.165   4.612   4.966 -0.2296 -0.3000  0.0485
16928TIP3    H272276   2.161   4.705   4.847  0.7114  0.1403  0.3433
16929TIP3   OH272277   2.515   1.485  11.700 -0.0697 -0.2047 -0.4653
16929TIP3    H172278   2.531   1.474  11.794 -0.5419  0.6264 -0.2867
16929TIP3    H272279   2.501   1.395  11.669  2.4147 -0.7675 -0.1929
16930TIP3   OH272280   0.041   5.311  10.655 -0.0453 -0.2480  0.4007
16930TIP3    H172281  -0.047   5.346  10.671  0.1841  0.2114  0.6920
16930TIP3    H272282   0.043   5.229  10.704 -0.5664 -0.6435 -0.2326
16931TIP3   OH272283   3.175   4.927   4.730  0.0516  0.0130 -0.1752
16931TIP3    H172284   3.213   4.839   4.737 -0.4587 -0.2441 -0.5672
16931TIP3    H272285   3.089   4.919   4.772  0.3068  0.5212  0.4633
16932TIP3   OH272286   0.103   2.238   0.972 -0.1725 -0.3801 -0.3756
16932TIP3    H172287   0.076   2.275   1.056  2.2776 -1.0101  0.7572
16932TIP3    H272288   0.093   2.144   0.982  0.2104 -0.4680 -0.7638
16933TIP3   OH272289   1.331   0.760  15.139  0.8068  0.0149  0.3357
16933TIP3    H172290   1.389   0.688  15.114  2.9757  0.9866  2.1878
16933TIP3    H272291   1.348   0.828  15.075  1.8588  0.3330  0.9295
16934TIP3   OH272292   4.257   1.235  14.704  0.0746 -0.1425 -0.3298
16934TIP3    H172293   4.248   1.215  14.798 -1.2394  0.7915 -0.2210
16934TIP3    H272294   4.351   1.250  14.692  0.2407 -0.0490  0.9017
16935TIP3   OH272295   2.117   3.112  11.909  0.2336 -0.0110 -0.1642
16935TIP3    H172296   2.137   3.021  11.886  0.2678  0.2083 -1.0731
16935TIP3    H272297   2.024   3.110  11.933  0.8369 -0.7241  2.3932
16936TIP3   OH272298   2.822   3.027  12.932 -0.2029  1.1150 -0.1859
16936TIP3    H172299   2.859   2.947  12.893  0.1697  1.6571 -0.9681
16936TIP3    H272300   2.898   3.077  12.962 -0.5057  0.0854  2.6167
16937TIP3   OH272301   1.695   4.091   5.490  0.1072 -0.7117  0.1959
16937TIP3    H172302   1.779   4.089   5.443 -0.6890  0.0744 -1.3489
16937TIP3    H272303   1.719   4.091   5.582  1.8304  0.1029 -0.2145
16938TIP3   OH272304   2.683   1.130  11.192  0.0051  0.2904 -0.0045
16938TIP3    H172305   2.701   1.037  11.202  1.2330  0.5090 -0.0272
16938TIP3    H272306   2.589   1.134  11.173 -0.2502 -0.8654  0.8805
16939TIP3   OH272307   0.673   0.752   4.145  0.2069 -0.5844 -0.0239
16939TIP3    H172308   0.615   0.791   4.079  0.2513  0.5520  0.5774
16939TIP3    H272309   0.734   0.823   4.168 -1.4378 -0.0157  3.1766
16940TIP3   OH272310   2.812   5.415  14.180  0.0145  0.1468  0.5220
16940TIP3    H172311   2.754   5.475  14.133  1.2081  0.6096 -0.4085
16940TIP3    H272312   2.828   5.459  14.264  0.0217  0.6060  0.2814
16941TIP3   OH272313   0.533   6.394   3.736 -0.1778  0.0110  0.2605
16941TIP3    H172314   0.516   6.365   3.825  1.6534  1.2262  1.0639
16941TIP3    H272315   0.531   6.489   3.741  1.5425  0.1303 -0.6159
16942TIP3   OH272316   3.194   1.103  16.787  0.0560  0.4116 -0.6402
16942TIP3    H172317   3.203   1.186  16.833 -0.4711  0.3055 -0.3402
16942TIP3    H272318   3.102   1.100  16.761  0.4695  0.7524 -2.2488
16943TIP3   OH272319   1.977   2.346   3.653 -0.1055  0.6353 -0.1252
16943TIP3    H172320   1.964   2.419   3.713 -2.0709  1.1025 -1.0679
16943TIP3    H272321   2.014   2.276   3.708 -1.5134  1.1523  1.5583
16944TIP3   OH272322   4.661   4.649   5.226  1.1472 -0.2729 -0.0124
16944TIP3    H172323   4.726   4.683   5.165 -0.1232  1.3577 -0.5433
16944TIP3    H272324   4.581   4.699   5.206  0.5876  0.0763  2.7335
16945TIP3   OH272325   6.215   5.852   4.886 -1.2527 -0.2734  0.4439
16945TIP3    H172326   6.146   5.918   4.894  1.0091  2.3525  0.0255
16945TIP3    H272327   6.266   5.862   4.966  0.0130 -0.3909 -0.3232
16946TIP3   OH272328   1.861   5.824   0.707  0.4207  0.2454  0.0653
16946TIP3    H172329   1.779   5.844   0.661  1.6582  4.1811 -0.8522
16946TIP3    H272330   1.834   5.809   0.798 -1.3952  0.3468 -0.4117
16947TIP3   OH272331   1.333   3.562  13.346  0.0468  0.2245 -0.0693
16947TIP3    H172332   1.292   3.646  13.328 -1.8856 -0.4481  0.8962
16947TIP3    H272333   1.283   3.498  13.295  0.8610 -0.4702 -0.0368
16948TIP3   OH272334   0.291   2.344  14.051 -0.2200 -0.0893  0.2401
16948TIP3    H172335   0.362   2.282  14.066 -0.4871 -0.6315 -0.6677
16948TIP3    H272336   0.240   2.341  14.132  0.9067  0.4886  0.9977
16949TIP3   OH272337   4.865   6.391   5.836  0.0553  0.2834 -0.7342
16949TIP3    H172338   4.854   6.309   5.885 -1.2435  0.9914  0.1987
16949TIP3    H272339   4.903   6.452   5.899 -2.1082  1.3521 -0.3823
16950TIP3   OH272340   3.875   4.396   0.889  0.4732 -0.1438 -0.6012
16950TIP3    H172341   3.892   4.474   0.836 -1.1417  1.1182  0.6004
16950TIP3    H272342   3.828   4.337   0.831  0.9477  0.1489 -1.2890
16951TIP3   OH272343   2.878   1.588  16.996  0.4783 -0.6830  0.2982
16951TIP3    H172344   2.939   1.631  16.935 -1.5191  1.1633 -0.5472
16951TIP3    H272345   2.812   1.548  16.940 -1.0089  0.4227  1.1881
16952TIP3   OH272346   5.313   3.084  10.882  0.4608  0.6280 -0.1785
16952TIP3    H172347   5.320   3.034  10.800  1.6960  0.8912 -0.2459
16952TIP3    H272348   5.303   3.175  10.854  0.4882  0.6780 -0.0273
16953TIP3   OH272349   1.422   1.597  12.572  0.0347  0.3132 -0.1014
16953TIP3    H172350   1.442   1.682  12.611  0.1286  0.3543 -0.2372
16953TIP3    H272351   1.430   1.535  12.644  1.8715  0.1593 -0.3897
16954TIP3   OH272352   5.324   5.590   2.044  0.3117 -0.5750  0.1770
16954TIP3    H172353   5.414   5.577   2.015  0.0593  0.3675 -1.1276
16954TIP3    H272354   5.311   5.524   2.112  1.0384 -2.8149 -1.6832
16955TIP3   OH272355   3.498   1.270   0.722  0.5672 -0.1486  0.4484
16955TIP3    H172356   3.585   1.254   0.686  0.0141  1.5801 -1.8785
16955TIP3    H272357   3.508   1.254   0.816  2.6318 -2.8102 -0.0997
16956TIP3   OH272358   5.575   4.841  16.771  0.1040  0.1785 -0.0409
16956TIP3    H172359   5.585   4.770  16.835 -0.9929 -0.1147 -0.1789
16956TIP3    H272360   5.545   4.797  16.691 -0.1347  0.7499 -0.2672
16957TIP3   OH272361   2.471   6.197  12.567  0.6289 -0.0697 -0.7356
16957TIP3    H172362   2.405   6.251  12.523  0.0974 -0.3137 -0.2563
16957TIP3    H272363   2.438   6.107  12.558 -0.0936 -0.0476  1.0896
16958TIP3   OH272364   5.265   2.233  15.376  0.3529 -0.2049 -0.1381
16958TIP3    H172365   5.346   2.255  15.421 -0.0426  0.9150  0.0511
16958TIP3    H272366   5.196   2.277  15.425 -0.1806  0.3190 -1.2972
16959TIP3   OH272367   6.025   0.101   4.063  0.2717  0.1803  0.1806
16959TIP3    H172368   6.028   0.190   4.100  1.3529  0.3041 -0.1628
16959TIP3    H272369   5.951   0.060   4.107 -0.2323  1.2399  0.3718
16960TIP3   OH272370   1.839   5.831   0.299 -0.3277 -0.1416  0.4456
16960TIP3    H172371   1.788   5.778   0.359 -0.1576  0.4565  1.1424
16960TIP3    H272372   1.787   5.911   0.287 -0.9936 -0.7917 -1.2645
16961TIP3   OH272373   0.329   0.829   3.892 -0.0730 -0.2967 -0.1574
16961TIP3    H172374   0.367   0.853   3.976  0.5003  0.3816 -0.5912
16961TIP3    H272375   0.236   0.816   3.910  0.2471 -1.3660  0.8003
16962TIP3   OH272376   1.823   1.039  13.823  0.1149 -0.1510 -0.1267
16962TIP3    H172377   1.818   1.129  13.792  0.7677 -0.3159 -0.7157
16962TIP3    H272378   1.897   1.000  13.776  0.2712 -0.7988  0.6278
16963TIP3   OH272379   3.717   1.504  16.938  0.0537 -0.0823 -0.1814
16963TIP3    H172380   3.680   1.419  16.961 -1.5232  0.0137 -2.0400
16963TIP3    H272381   3.713   1.556  17.018 -0.4272 -1.2778  0.5814
16964TIP3   OH272382   3.129   6.768   4.092 -0.0501  0.1471 -0.2626
16964TIP3    H172383   3.085   6.691   4.056 -0.8801  0.4227  0.1425
16964TIP3    H272384   3.160   6.816   4.016 -0.0846 -0.2663 -0.5394
16965TIP3   OH272385   1.655   5.841  13.598  0.1024 -0.3257  0.1087
16965TIP3    H172386   1.568   5.810  13.623 -0.3113 -0.5905 -1.5565
16965TIP3    H272387   1.695   5.868  13.681 -2.2047  1.4733  0.7704
16966TIP3   OH272388   5.563   1.082  13.927 -0.1241 -0.4512 -0.2721
16966TIP3    H172389   5.602   1.159  13.886  1.3398 -1.5758 -1.1124
16966TIP3    H272390   5.620   1.009  13.901 -0.7502 -1.6528  1.4656
16967TIP3   OH272391   0.483   2.142  12.484  0.0780 -0.7548  0.3545
16967TIP3    H172392   0.497   2.121  12.576  1.1088 -2.1832 -0.0979
16967TIP3    H272393   0.529   2.073  12.436  1.9541  1.4396 -1.2324
16968TIP3   OH272394   5.374   6.422  17.046 -0.0279 -0.0976  0.0605
16968TIP3    H172395   5.404   6.441  16.957 -0.0206 -1.4169 -0.2282
16968TIP3    H272396   5.281   6.403  17.037  0.0389 -0.5321  0.2922
16969TIP3   OH272397   2.971   6.565  16.381  0.1391  0.0003 -0.1711
16969TIP3    H172398   3.025   6.644  16.390  2.8874 -1.4954 -1.9606
16969TIP3    H272399   2.944   6.564  16.289 -0.4247 -0.8158 -0.0073
16970TIP3   OH272400   2.541   2.404  16.104 -0.2738  0.9507  0.1800
16970TIP3    H172401   2.580   2.491  16.114 -1.0503  1.2300  0.9438
16970TIP3    H272402   2.446   2.421  16.103 -0.4057  0.2010 -0.6523
16971TIP3   OH272403   6.504   3.289   0.971 -0.5218  0.2745  0.7243
16971TIP3    H172404   6.519   3.312   0.879  0.1149 -2.2539  0.0964
16971TIP3    H272405   6.444   3.356   1.003 -3.5995 -0.5913 -2.5517
16972TIP3   OH272406   4.324   5.031   4.075  0.0022 -0.0893  0.1210
16972TIP3    H172407   4.343   4.942   4.104  0.8479 -0.1056 -0.4471
16972TIP3    H272408   4.410   5.070   4.058 -0.1949  1.6017  2.5203
16973TIP3   OH272409   6.160   4.373  12.104  0.2436  0.0530 -0.6641
16973TIP3    H172410   6.249   4.393  12.077  1.2964 -2.8571  0.3241
16973TIP3    H272411   6.123   4.324  12.031 -0.4133  0.7720 -0.8374
16974TIP3   OH272412   1.659   3.117   0.024 -0.6350  0.4677 -0.3261
16974TIP3    H172413   1.674   3.136  -0.069 -0.9719  0.2009 -0.4363
16974TIP3    H272414   1.573   3.156   0.043 -0.5542  0.5467 -0.1183
16975TIP3   OH272415   3.499   2.031   3.764  0.0329 -0.1714 -0.5581
16975TIP3    H172416   3.521   1.982   3.685 -1.5721  1.3788 -2.0836
16975TIP3    H272417   3.414   1.996   3.791 -0.6116  0.9391 -1.0375
16976TIP3   OH272418   4.539   5.597   4.082  0.0379 -0.2167  0.1189
16976TIP3    H172419   4.620   5.574   4.036  0.0312 -1.6765  0.7987
16976TIP3    H272420   4.520   5.522   4.138 -0.6728  0.9523  1.5279
16977TIP3   OH272421   5.862   1.436  14.550 -0.0506 -0.0029  0.2993
16977TIP3    H172422   5.814   1.515  14.527 -3.2997 -1.7083  0.6210
16977TIP3    H272423   5.907   1.410  14.470 -2.6068 -0.1629 -1.1849
16978TIP3   OH272424   2.930   1.037  12.712 -0.4585  0.5117 -0.8058
16978TIP3    H172425   2.922   1.058  12.619 -0.6285 -0.1999 -0.9598
16978TIP3    H272426   2.921   0.942  12.716 -0.8538  0.5706 -0.0188
16979TIP3   OH272427   4.898   1.214  15.963  0.2396 -0.4570 -0.4001
16979TIP3    H172428   4.972   1.168  16.003 -2.1439 -2.8330  1.7501
16979TIP3    H272429   4.870   1.277  16.029 -1.5358 -1.8845  0.3089
16980TIP3   OH272430   4.110   4.548   4.556 -0.6568  0.2530  0.1519
16980TIP3    H172431   4.023   4.511   4.565 -0.6448  0.5621  1.9023
16980TIP3    H272432   4.164   4.496   4.615  0.0150  1.0338  0.2498
16981TIP3   OH272433   4.630   1.877   4.507 -0.9251 -0.2744  0.4821
16981TIP3    H172434   4.608   1.795   4.464 -1.2550  0.0085  0.0992
16981TIP3    H272435   4.605   1.864   4.598 -2.9821  0.1284  0.0148
16982TIP3   OH272436   4.626   6.795  11.631 -0.2946 -0.1021  0.0063
16982TIP3    H172437   4.679   6.744  11.693  0.3018 -0.0190 -0.4295
16982TIP3    H272438   4.536   6.772  11.652 -0.1240  0.2549  1.2117
16983TIP3   OH272439   0.138   2.463  13.812  0.3116  0.1374 -0.4504
16983TIP3    H172440   0.190   2.542  13.825  0.4760  0.0726 -0.6991
16983TIP3    H272441   0.154   2.411  13.891  0.1844  0.3601 -0.2763
16984TIP3   OH272442   4.619   1.052  15.560  0.0025  0.1762 -0.6273
16984TIP3    H172443   4.586   1.071  15.648  0.3118 -0.4817 -0.3685
16984TIP3    H272444   4.586   0.965  15.540  0.9300 -0.1761 -0.6735
16985TIP3   OH272445   1.823   5.309  13.000 -0.1886  0.6652 -0.4015
16985TIP3    H172446   1.805   5.255  13.077 -1.6428 -0.5122 -1.5096
16985TIP3    H272447   1.854   5.392  13.036 -2.2939  0.7016  1.5454
16986TIP3   OH272448   6.016   1.554  11.943  0.3883 -0.2193  0.4941
16986TIP3    H172449   6.075   1.629  11.931  0.3380 -0.4824 -1.6115
16986TIP3    H272450   6.059   1.482  11.897 -1.2526 -0.5855 -0.5132
16987TIP3   OH272451   5.395   5.360  12.790  0.2889  1.1994  0.0216
16987TIP3    H172452   5.372   5.273  12.824 -3.1808  1.1288 -1.9769
16987TIP3    H272453   5.382   5.353  12.696  2.3850  3.2982 -0.5105
16988TIP3   OH272454   6.422   4.769   3.535  0.2117  0.1131 -0.1116
16988TIP3    H172455   6.465   4.828   3.472 -0.2737 -0.2166 -0.7660
16988TIP3    H272456   6.343   4.816   3.561  0.2666  0.1247  0.0329
16989TIP3   OH272457   2.402   0.390   4.335  0.3503 -0.2701  0.8849
16989TIP3    H172458   2.364   0.360   4.252 -1.4924 -0.3208  1.6885
16989TIP3    H272459   2.407   0.312   4.389 -2.7864  0.3691  2.3543
16990TIP3   OH272460   0.549   6.643   5.073  0.4053  0.7288  0.1872
16990TIP3    H172461   0.536   6.712   5.008  0.0812  0.1485 -0.3789
16990TIP3    H272462   0.461   6.613   5.095  0.5743 -0.2201 -0.3668
16991TIP3   OH272463   5.883   0.371   6.158  0.1046 -0.1389  0.4172
16991TIP3    H172464   5.841   0.336   6.237 -1.8698  0.1423 -0.4538
16991TIP3    H272465   5.962   0.414   6.191  0.1714 -1.3638  2.0420
16992TIP3   OH272466   6.025   1.526  15.923  0.0394 -0.0011  0.4398
16992TIP3    H172467   6.102   1.570  15.888 -0.7092  0.9295 -0.0840
16992TIP3    H272468   6.031   1.436  15.888 -0.1069  0.5899 -1.2223
16993TIP3   OH272469   2.478   0.529   1.223 -0.0785  0.4646  0.2015
16993TIP3    H172470   2.475   0.566   1.135 -1.3959 -1.2935 -0.5507
16993TIP3    H272471   2.460   0.436   1.211  0.1085  0.1089  2.2992
16994TIP3   OH272472   2.262   2.011  14.514  0.4954  0.1962 -0.6770
16994TIP3    H172473   2.313   1.988  14.437  0.4542 -1.3069 -0.2929
16994TIP3    H272474   2.234   2.101  14.499  0.9395  0.1093 -2.1590
16995TIP3   OH272475   0.669   4.646   4.984  0.5380  0.2116  0.6761
16995TIP3    H172476   0.667   4.626   4.890 -0.2677  1.3641  0.4286
16995TIP3    H272477   0.649   4.739   4.989 -0.2355  0.0008  2.0555
16996TIP3   OH272478   2.558   2.708   1.914 -0.0322 -0.4134  0.3909
16996TIP3    H172479   2.567   2.667   1.828  2.9428 -0.6956  0.7372
16996TIP3    H272480   2.540   2.635   1.973 -1.4304 -0.2982  0.1438
16997TIP3   OH272481   1.105   1.810   0.837  0.5574 -0.0024  0.6019
16997TIP3    H172482   1.193   1.783   0.811  0.2865 -1.7932  1.3617
16997TIP3    H272483   1.118   1.878   0.903  1.3590  0.0708  0.3694
16998TIP3   OH272484   4.538   5.733   6.118 -0.1481 -0.1815  0.0655
16998TIP3    H172485   4.466   5.792   6.143  0.0214 -0.4727  1.3484
16998TIP3    H272486   4.594   5.786   6.062  0.0473  0.9530  1.2672
16999TIP3   OH272487   3.746   4.464  12.916 -0.3646  0.1520  0.9013
16999TIP3    H172488   3.757   4.548  12.962 -2.6630  1.3641 -0.5849
16999TIP3    H272489   3.772   4.483  12.826  1.4059 -1.4572  1.0033
17000TIP3   OH272490   1.506   5.659  15.869  0.1307 -0.3070 -0.3864
17000TIP3    H172491   1.424   5.632  15.828 -0.8214  0.9294  0.6133
17000TIP3    H272492   1.560   5.579  15.872 -1.1767 -1.2219 -0.7352
17001TIP3   OH272493   2.697   5.072  16.581  0.1589  0.2950  0.2932
17001TIP3    H172494   2.746   5.020  16.518 -0.9426 -0.0961 -0.2809
17001TIP3    H272495   2.761   5.097  16.647  1.0532 -0.4273 -0.2735
17002TIP3   OH272496   2.211   0.131  16.733 -0.1475 -0.1740 -0.5581
17002TIP3    H172497   2.163   0.201  16.776 -0.6928 -1.1393  0.4684
17002TIP3    H272498   2.293   0.171  16.704 -0.9077  1.1275 -0.9685
17003TIP3   OH272499   4.181   6.783   2.104 -0.0370  0.0272 -0.4206
17003TIP3    H172500   4.268   6.757   2.071 -1.4435 -4.2546 -1.3790
17003TIP3    H272501   4.147   6.705   2.146 -3.1250  1.8535  0.8010
17004TIP3   OH272502   1.198   5.836   5.475  0.6378  0.2664  0.2724
17004TIP3    H172503   1.285   5.852   5.439  0.6680 -0.5190 -0.0281
17004TIP3    H272504   1.204   5.749   5.514  0.3986  0.8023  1.5496
17005TIP3   OH272505   6.169   4.960   6.493  0.1801 -0.3417  0.4046
17005TIP3    H172506   6.196   5.041   6.451  0.3326 -1.3226 -1.4721
17005TIP3    H272507   6.250   4.915   6.515  0.1109  0.2249  1.9855
17006TIP3   OH272508   4.774   5.141  16.014  0.0620 -0.0796  0.1207
17006TIP3    H172509   4.752   5.048  16.012 -2.0321  0.3731 -0.2655
17006TIP3    H272510   4.802   5.161  15.925  0.1085 -0.2490  0.0973
17007TIP3   OH272511   4.908   2.331   0.313 -0.4046  0.1319 -0.0509
17007TIP3    H172512   5.001   2.310   0.321 -0.3106  0.9010  1.1069
17007TIP3    H272513   4.905   2.399   0.245 -0.1043  0.1563 -0.0409
17008TIP3   OH272514   2.382   0.060   0.960 -0.1770  0.1911  0.0358
17008TIP3    H172515   2.387   0.152   0.987  0.1465  0.7346 -1.7239
17008TIP3    H272516   2.316   0.059   0.890 -0.2066 -0.9232  0.0646
17009TIP3   OH272517   2.658   4.032   6.009  0.1074 -0.5287 -0.2866
17009TIP3    H172518   2.668   3.956   5.951 -0.3582 -1.3407  0.6682
17009TIP3    H272519   2.581   4.011   6.062  0.7019  0.0621  0.8320
17010TIP3   OH272520   0.462   0.813  12.966  0.1909 -0.2308  0.3752
17010TIP3    H172521   0.431   0.886  12.912 -1.4775  0.2529  1.8851
17010TIP3    H272522   0.428   0.735  12.923 -1.1201  0.1476  0.6961
17011TIP3   OH272523   2.117   1.194   3.894  0.2954  0.3200 -0.6062
17011TIP3    H172524   2.126   1.099   3.891 -0.3839  0.1809  0.9883
17011TIP3    H272525   2.101   1.219   3.803  2.0630 -0.8952 -1.3043
17012TIP3   OH272526   2.886   1.465  14.837 -0.0075  0.0418 -0.0606
17012TIP3    H172527   2.829   1.442  14.763 -0.5812 -1.6646  0.8477
17012TIP3    H272528   2.923   1.550  14.814 -0.7001 -0.1403 -1.9881
17013TIP3   OH272529   0.110   5.984  11.981  0.2653 -0.4454 -0.1383
17013TIP3    H172530   0.020   5.965  12.006  0.3620 -1.1069 -0.2669
17013TIP3    H272531   0.120   5.942  11.896  0.1398  1.2020 -1.0134
17014TIP3   OH272532   4.125   1.277  12.749 -0.3273 -0.2891 -0.6493
17014TIP3    H172533   4.206   1.316  12.718  0.2006 -1.8848 -1.4144
17014TIP3    H272534   4.058   1.342  12.730  0.7356  0.9995 -0.1335
17015TIP3   OH272535   4.868   1.291  12.920 -0.0823  0.2744  0.7318
17015TIP3    H172536   4.781   1.259  12.943  0.0673 -0.1520  0.7134
17015TIP3    H272537   4.898   1.337  12.999  0.1137 -0.5199  1.1369
17016TIP3   OH272538   6.124   5.131  17.007 -0.4363 -0.2376  0.3620
17016TIP3    H172539   6.064   5.197  17.043 -2.6161 -2.6257  1.4855
17016TIP3    H272540   6.082   5.102  16.926  0.9075  0.2542 -0.5436
17017TIP3   OH272541   2.413   0.896   0.229 -0.1812  0.1754  0.1172
17017TIP3    H172542   2.396   0.968   0.168 -1.9812  1.7696  2.3091
17017TIP3    H272543   2.364   0.822   0.193 -0.9533  0.9811 -0.5348
17018TIP3   OH272544   0.698   3.216  13.467 -0.6727  0.1075  0.0135
17018TIP3    H172545   0.737   3.287  13.518 -0.6381  0.2512 -0.2161
17018TIP3    H272546   0.736   3.224  13.380 -3.2513  2.0015 -1.1004
17019TIP3   OH272547   4.636   5.070  14.943  0.2785  0.3551 -0.3731
17019TIP3    H172548   4.657   5.043  14.854 -2.2051 -0.7869 -0.7029
17019TIP3    H272549   4.565   5.012  14.969  0.8839  0.6980  2.3645
17020TIP3   OH272550   4.529   2.694   1.900  0.3911 -0.0792  0.0886
17020TIP3    H172551   4.520   2.739   1.984  0.9822  1.0636 -0.4477
17020TIP3    H272552   4.617   2.658   1.901  0.8410  0.9620 -0.5145
17021TIP3   OH272553   4.941   1.706  13.187  0.4323  0.1672  0.1262
17021TIP3    H172554   4.952   1.780  13.247  0.1326  0.1615  0.1946
17021TIP3    H272555   4.933   1.746  13.100  0.8505  0.1767  0.0925
17022TIP3   OH272556   3.904   6.525   4.701 -0.9833  0.6630 -0.1696
17022TIP3    H172557   3.984   6.574   4.719 -0.4293 -0.3586  0.2340
17022TIP3    H272558   3.849   6.586   4.651  0.7514  0.8383 -2.0125
17023TIP3   OH272559   0.973   1.634   0.263 -0.6430 -0.3100 -0.1780
17023TIP3    H172560   1.022   1.615   0.184  0.1826  0.7472  0.0541
17023TIP3    H272561   0.938   1.722   0.250 -0.4591 -0.1033  0.6485
17024TIP3   OH272562   5.304   5.896   6.203 -0.7400  0.3719 -0.3955
17024TIP3    H172563   5.381   5.953   6.198 -0.8592  0.4241 -2.1210
17024TIP3    H272564   5.315   5.849   6.286  1.6041 -0.2469 -0.9814
17025TIP3   OH272565   0.278   2.367   5.013  0.7139 -0.6976 -0.7722
17025TIP3    H172566   0.310   2.410   4.934  2.8274 -2.1568 -0.7756
17025TIP3    H272567   0.184   2.387   5.015  1.0643  1.4164 -2.2974
17026TIP3   OH272568   5.616   2.112  13.373 -0.8805  0.3672  0.2818
17026TIP3    H172569   5.617   2.050  13.300 -1.1641 -1.1414  1.4780
17026TIP3    H272570   5.698   2.160  13.367 -0.2404 -0.7605 -0.2026
17027TIP3   OH272571   3.146   2.004   0.233  0.2961  0.1966  0.4138
17027TIP3    H172572   3.132   1.909   0.232  0.1190  0.1518  2.3261
17027TIP3    H272573   3.159   2.028   0.141 -1.8741 -1.3267 -0.3575
17028TIP3   OH272574   2.525   4.410  12.061  0.6584 -0.7412  0.6186
17028TIP3    H172575   2.438   4.371  12.066  0.7301 -0.9923  0.0002
17028TIP3    H272576   2.514   4.487  12.006  0.9188 -1.0472  0.1328
17029TIP3   OH272577   5.688   4.678   0.257 -0.1499 -0.4394 -0.6834
17029TIP3    H172578   5.610   4.625   0.239 -0.1782 -0.3669 -0.7708
17029TIP3    H272579   5.676   4.757   0.205 -1.6635  1.1293  1.8753
17030TIP3   OH272580   6.619   3.712   4.872 -0.4367  0.0465  0.2948
17030TIP3    H172581   6.605   3.636   4.816 -0.0779 -0.1012  0.4013
17030TIP3    H272582   6.547   3.771   4.850 -0.6523 -0.2712  0.1267
17031TIP3   OH272583   6.066   1.586  13.018  0.5303  0.2572  0.3083
17031TIP3    H172584   6.005   1.608  13.088  0.9776  1.0339  0.4657
17031TIP3    H272585   6.134   1.653  13.023  0.2198  0.7640 -1.3108
17032TIP3   OH272586   5.170   2.466   1.893  0.3532  0.4619  0.0967
17032TIP3    H172587   5.148   2.376   1.915 -1.5887  1.2650  1.6851
17032TIP3    H272588   5.266   2.470   1.903  0.6289 -1.6560 -1.1339
17033TIP3   OH272589   0.594   6.194  13.102  0.2357 -0.2268 -0.5272
17033TIP3    H172590   0.595   6.160  13.191 -0.6219 -0.8824 -0.7476
17033TIP3    H272591   0.640   6.277  13.107 -0.3121  0.0281  0.6451
17034TIP3   OH272592   0.049   6.411   2.145 -0.0138  0.4069 -0.3588
17034TIP3    H172593   0.039   6.354   2.220  2.2346 -1.3984 -1.3151
17034TIP3    H272594   0.124   6.467   2.167 -0.0918  0.6838 -0.7755
17035TIP3   OH272595   2.862   5.908   4.021  0.3512  0.0629 -0.0056
17035TIP3    H172596   2.803   5.894   3.947  2.9086 -0.6685 -2.0263
17035TIP3    H272597   2.863   6.003   4.032  0.0388  0.1994 -0.9955
17036TIP3   OH272598   0.834   4.229  13.666 -0.1514 -0.4924  0.4894
17036TIP3    H172599   0.814   4.321  13.648 -1.2832 -0.8793 -0.3449
17036TIP3    H272600   0.752   4.183  13.653 -0.0132 -1.4401  2.5194
17037TIP3   OH272601   2.165   3.578   2.727  0.0098 -0.1938  0.6066
17037TIP3    H172602   2.087   3.630   2.707  0.9058  1.5642  1.5243
17037TIP3    H272603   2.137   3.519   2.797 -1.1076 -1.2329 -0.6594
17038TIP3   OH272604   4.255   6.660  16.930 -0.0862  0.1246  0.4298
17038TIP3    H172605   4.347   6.682  16.915 -0.4801  0.7739 -1.1998
17038TIP3    H272606   4.240   6.580  16.878 -0.2446 -0.4832  1.3766
17039TIP3   OH272607   4.054   4.939   0.425 -0.3981 -0.4815 -0.4337
17039TIP3    H172608   4.050   4.907   0.335 -0.1828  0.0294 -0.6245
17039TIP3    H272609   3.978   4.995   0.434 -0.9683 -1.3075  0.0098
17040TIP3   OH272610   2.423   5.254  15.483 -0.4868  0.0062 -0.1201
17040TIP3    H172611   2.349   5.282  15.536 -1.4831 -1.0248 -0.9226
17040TIP3    H272612   2.395   5.170  15.445  0.7199  0.0628 -1.1947
17041TIP3   OH272613   5.869   2.492  12.401 -0.0727  0.1013  0.1677
17041TIP3    H172614   5.961   2.476  12.421 -0.3904 -0.5354  1.2580
17041TIP3    H272615   5.869   2.570  12.346  1.1952 -0.5574 -0.8164
17042TIP3   OH272616   6.655   0.375  13.846  0.1908 -0.0130 -0.0478
17042TIP3    H172617   6.597   0.350  13.917  0.0099  0.7511  0.0829
17042TIP3    H272618   6.636   0.313  13.776 -1.2778  0.6566 -0.2632
17043TIP3   OH272619   5.928   5.766   0.429  0.1894  0.1228  0.4038
17043TIP3    H172620   5.922   5.861   0.444  0.6698  0.3971 -1.0321
17043TIP3    H272621   6.016   5.743   0.457  0.1283  0.1296  0.6023
17044TIP3   OH272622   6.068   0.310  13.065 -0.8810 -0.5252  0.4570
17044TIP3    H172623   6.059   0.341  13.155 -1.7771  1.1661 -0.1863
17044TIP3    H272624   6.159   0.330  13.042 -1.3791  1.5954  0.1150
17045TIP3   OH272625   1.509   3.961  16.376  0.0067  0.5754 -0.1103
17045TIP3    H172626   1.532   3.888  16.318  0.8239 -0.4785  1.4499
17045TIP3    H272627   1.494   4.035  16.318  0.9574 -0.3878 -1.6462
17046TIP3   OH272628   5.095   6.569  12.582  0.4350 -0.3082 -0.7014
17046TIP3    H172629   5.150   6.558  12.505  0.7351  0.4724 -0.6102
17046TIP3    H272630   5.144   6.529  12.654 -1.4012 -4.3588 -1.4642
17047TIP3   OH272631   5.680   4.553  11.051  0.2559  0.3396 -0.6195
17047TIP3    H172632   5.631   4.614  11.106  0.1560 -0.6093  0.3651
17047TIP3    H272633   5.660   4.581  10.961  0.3079  1.8169 -0.2112
17048TIP3   OH272634   3.275   5.668  10.373  0.2398  0.1118 -0.8448
17048TIP3    H172635   3.280   5.761  10.396  0.3777 -0.7743  3.5618
17048TIP3    H272636   3.366   5.640  10.366  0.2232  0.4722 -3.7085
17049TIP3   OH272637   6.017   4.546  11.386  0.0879  0.2196 -1.2538
17049TIP3    H172638   6.066   4.598  11.322  0.2462 -0.3036 -1.5631
17049TIP3    H272639   5.940   4.599  11.406  1.5739  1.8731  0.5362
17050TIP3   OH272640   3.240   6.002   5.999  0.5150 -0.1144  0.4863
17050TIP3    H172641   3.172   6.032   6.060  1.7774  0.1122  1.8542
17050TIP3    H272642   3.322   6.035   6.037  1.5617 -1.8167 -0.2003
17051TIP3   OH272643   4.044   0.384   0.457 -0.0743 -0.6924 -0.0275
17051TIP3    H172644   4.119   0.364   0.402  0.2425  0.2493  0.0568
17051TIP3    H272645   3.971   0.395   0.396 -0.2772 -2.1093 -0.0786
17052TIP3   OH272646   0.008   5.667   2.175  0.7564  0.6508  0.1025
17052TIP3    H172647   0.034   5.757   2.194  1.2733  1.1792 -2.6216
17052TIP3    H272648   0.087   5.626   2.139  0.2531 -0.6097  0.3609
17053TIP3   OH272649   1.966   0.683  12.132  0.2108  0.1104  0.7613
17053TIP3    H172650   1.997   0.731  12.209 -0.1068  0.8488  0.4381
17053TIP3    H272651   1.872   0.674  12.146 -0.3152  2.4880 -0.6915
17054TIP3   OH272652   2.139   4.428  12.958  0.2381 -0.0902 -0.0873
17054TIP3    H172653   2.125   4.517  12.923 -0.4319 -0.5324 -0.9847
17054TIP3    H272654   2.229   4.406  12.932  1.0727  0.9728  1.6664
17055TIP3   OH272655   0.650   0.367   5.533  0.5112 -0.4458  0.3505
17055TIP3    H172656   0.693   0.347   5.616  1.7173  0.3889 -0.0465
17055TIP3    H272657   0.720   0.360   5.467  0.4394  2.3755 -0.1242
17056TIP3   OH272658   3.724   6.428  11.254  0.0144  0.3780 -0.4420
17056TIP3    H172659   3.771   6.345  11.252  0.0611  0.3751  0.3741
17056TIP3    H272660   3.740   6.467  11.169 -0.1714 -0.5409 -0.9053
17057TIP3   OH272661   0.225   0.144   5.139  0.2117  0.7434  0.1083
17057TIP3    H172662   0.305   0.092   5.141  1.3844  2.3865 -1.2968
17057TIP3    H272663   0.178   0.113   5.062 -0.5235 -0.1570  0.8811
17058TIP3   OH272664   1.242   4.746   0.354 -0.4729  0.0399 -0.2184
17058TIP3    H172665   1.221   4.827   0.402 -0.1232  1.1726 -1.8903
17058TIP3    H272666   1.333   4.758   0.326 -0.0645 -1.4257  0.4043
17059TIP3   OH272667   5.325   5.885   3.007  0.3756  0.0886 -0.7552
17059TIP3    H172668   5.352   5.956   3.066 -0.5683  0.4476 -0.7391
17059TIP3    H272669   5.359   5.806   3.048  0.1910  0.3895  0.0053
17060TIP3   OH272670   0.362   4.148   5.630 -0.1114 -0.0372 -0.0408
17060TIP3    H172671   0.290   4.200   5.595 -2.4478 -2.0040  1.5016
17060TIP3    H272672   0.427   4.147   5.560 -1.4198  2.0597 -1.3980
17061TIP3   OH272673   3.931   1.269  12.368  0.5838 -0.0331 -0.1371
17061TIP3    H172674   4.002   1.260  12.431  0.4079 -2.6429 -0.2247
17061TIP3    H272675   3.853   1.242  12.416 -0.3248  2.2120 -0.2213
17062TIP3   OH272676   0.165   3.627  11.642 -0.3995  0.0196 -0.4893
17062TIP3    H172677   0.073   3.604  11.628 -0.6625 -1.0830  2.4098
17062TIP3    H272678   0.162   3.715  11.680 -0.3966 -0.5093  0.7831
17063TIP3   OH272679   2.517   6.754  11.205  0.1379  0.7067  0.0062
17063TIP3    H172680   2.471   6.775  11.124  0.2314 -1.8066 -0.7800
17063TIP3    H272681   2.605   6.791  11.192 -0.3421  1.8036 -0.2798
17064TIP3   OH272682   4.993   2.241  13.798  0.1197  0.0015  0.0631
17064TIP3    H172683   5.007   2.265  13.890  1.0778  0.3138 -0.1576
17064TIP3    H272684   5.038   2.157  13.788  1.4616  0.7646 -0.5228
17065TIP3   OH272685   4.118   4.488  15.504 -0.2428  0.5099 -0.4972
17065TIP3    H172686   4.102   4.575  15.542  0.1116  0.4818 -0.2791
17065TIP3    H272687   4.197   4.457  15.548 -0.4840 -0.0113 -0.4273
17066TIP3   OH272688   6.271   2.740   2.115  0.1672 -0.0198  0.0658
17066TIP3    H172689   6.281   2.834   2.100 -0.3293 -0.2073 -1.6317
17066TIP3    H272690   6.359   2.705   2.105  0.4563  0.3113  1.2724
17067TIP3   OH272691   3.905   1.501  12.731  0.4759  0.4044  0.5836
17067TIP3    H172692   3.821   1.471  12.697  0.7746 -2.0735  1.8075
17067TIP3    H272693   3.903   1.480  12.824  3.4450 -2.5470  0.2058
17068TIP3   OH272694   2.589   2.306  15.658 -0.3428  0.6234 -0.5546
17068TIP3    H172695   2.658   2.372  15.660 -0.9283  1.2365  0.1683
17068TIP3    H272696   2.622   2.234  15.711 -0.9991  1.7028  1.3910
17069TIP3   OH272697   5.471   3.935   3.790 -0.3588 -0.0237 -0.4625
17069TIP3    H172698   5.441   3.957   3.702 -0.4414  1.2150 -0.1332
17069TIP3    H272699   5.566   3.928   3.782 -0.4207 -0.5364 -0.7760
17070TIP3   OH272700   5.237   5.060  12.880  0.0479 -0.4219 -0.0183
17070TIP3    H172701   5.200   4.975  12.904 -0.9726  0.4329  1.6433
17070TIP3    H272702   5.225   5.065  12.785 -2.1728 -1.1243  0.1578
17071TIP3   OH272703   6.511   4.371   6.170  0.2379 -0.0658  0.1900
17071TIP3    H172704   6.532   4.326   6.252  0.1876  0.5638  0.5553
17071TIP3    H272705   6.434   4.424   6.192 -0.5358 -0.8254 -0.5925
17072TIP3   OH272706   2.157   3.408  16.336  0.3582 -0.4201  0.1210
17072TIP3    H172707   2.251   3.396  16.344  0.3370  0.3701  2.4722
17072TIP3    H272708   2.119   3.340  16.392 -0.3977  0.1478  0.3242
17073TIP3   OH272709   0.256   5.397   4.548 -0.1615 -0.4512  0.3294
17073TIP3    H172710   0.168   5.371   4.524 -0.1850 -0.7548  0.7328
17073TIP3    H272711   0.245   5.448   4.629 -0.1353  0.9588 -0.5154
17074TIP3   OH272712   0.093   5.259  12.962  0.1410 -0.9888 -0.1559
17074TIP3    H172713   0.092   5.164  12.975  1.8154 -1.1425 -0.9197
17074TIP3    H272714   0.107   5.271  12.868 -0.2796  0.0223 -0.1028
17075TIP3   OH272715   4.800   1.896  16.316 -0.1934  0.5531  0.3375
17075TIP3    H172716   4.840   1.900  16.229  0.9973 -1.5800  0.7216
17075TIP3    H272717   4.709   1.924  16.302 -0.2682 -0.5587 -1.7721
17076TIP3   OH272718   6.437   0.254   5.763 -0.2029 -0.6333  0.0297
17076TIP3    H172719   6.357   0.267   5.814 -0.9181 -1.7307 -0.7505
17076TIP3    H272720   6.459   0.341   5.729 -0.6027 -0.1801  0.8887
17077TIP3   OH272721   3.677   3.060  13.625  0.0723  0.1053 -0.2717
17077TIP3    H172722   3.626   3.124  13.675 -3.0892 -1.7213 -0.8891
17077TIP3    H272723   3.676   2.981  13.678  1.0547 -0.4119 -0.9827
17078TIP3   OH272724   2.300   3.180  12.229 -0.0141  0.3174 -0.6235
17078TIP3    H172725   2.386   3.174  12.188  0.4622 -0.1220  0.4109
17078TIP3    H272726   2.246   3.118  12.180  0.6253 -0.4233 -0.4287
17079TIP3   OH272727   4.799   3.309   3.575  0.2046  0.2161 -0.1121
17079TIP3    H172728   4.807   3.331   3.482 -0.2118  0.6802 -0.0434
17079TIP3    H272729   4.840   3.382   3.621 -1.3666  1.0059  0.1219
17080TIP3   OH272730   2.839   0.768   0.203  0.4413 -0.1597 -0.3481
17080TIP3    H172731   2.762   0.731   0.246 -0.5075  2.4393  0.4070
17080TIP3    H272732   2.901   0.785   0.274  1.0312 -0.6188 -0.7339
17081TIP3   OH272733   0.638   6.603   3.004 -0.2591 -0.7640 -0.0779
17081TIP3    H172734   0.662   6.596   3.097 -1.7673  0.0979  0.4131
17081TIP3    H272735   0.711   6.650   2.964 -0.1234 -0.0677  0.9383
17082TIP3   OH272736   3.924   6.635  17.159 -0.1743 -0.2715 -0.1792
17082TIP3    H172737   3.853   6.591  17.112  0.5330 -0.4591 -1.1082
17082TIP3    H272738   3.968   6.688  17.092  1.0116 -0.7383  0.1902
17083TIP3   OH272739   3.211   3.578  13.997  0.0189  0.1935  0.5584
17083TIP3    H172740   3.122   3.596  13.967  0.1503 -0.0893  0.0045
17083TIP3    H272741   3.228   3.647  14.061  0.0429  1.3120 -0.6111
17084TIP3   OH272742   5.233   0.619  14.578 -0.3602 -0.2813 -0.2794
17084TIP3    H172743   5.290   0.643  14.651 -0.9190  1.7251 -0.4466
17084TIP3    H272744   5.160   0.681  14.583 -0.0534  0.4200 -2.9374
17085TIP3   OH272745   4.457   1.324   5.771 -0.1953 -0.6427 -0.2875
17085TIP3    H172746   4.385   1.349   5.713 -0.0884  2.9726  0.8529
17085TIP3    H272747   4.530   1.304   5.712 -0.7260  0.6925 -1.4562
17086TIP3   OH272748   0.484   3.206  14.864 -0.4979 -0.4466 -0.2056
17086TIP3    H172749   0.425   3.135  14.888  0.0914 -0.3744  1.5830
17086TIP3    H272750   0.441   3.285  14.896  0.8116 -0.4542  1.7483
17087TIP3   OH272751   4.005   4.620   3.798  0.0431 -0.2923  0.0431
17087TIP3    H172752   3.917   4.651   3.821 -0.8044 -1.8943 -0.8677
17087TIP3    H272753   4.055   4.700   3.783 -1.3690  0.6542  0.1613
17088TIP3   OH272754   4.491   3.696  15.225  0.4858  0.7433 -0.3497
17088TIP3    H172755   4.503   3.612  15.180 -0.1357 -0.2697  1.2847
17088TIP3    H272756   4.580   3.732  15.233  1.1686 -1.1148  1.3492
17089TIP3   OH272757   1.676   0.785   3.360  0.3066 -0.0627 -0.3411
17089TIP3    H172758   1.661   0.690   3.358 -1.2868  0.1705 -0.3590
17089TIP3    H272759   1.769   0.794   3.339  0.0387 -1.5223 -2.5599
17090TIP3   OH272760   2.619   4.286   5.369 -0.4646 -0.0428  0.1398
17090TIP3    H172761   2.674   4.225   5.319 -0.7112  0.5305 -0.8687
17090TIP3    H272762   2.608   4.244   5.454  0.1585 -0.9502 -0.2061
17091TIP3   OH272763   2.857   5.648   5.453 -0.0588  0.5993 -0.7507
17091TIP3    H172764   2.917   5.578   5.477  0.8575  1.4049 -0.6222
17091TIP3    H272765   2.781   5.603   5.415  0.1574 -0.4870  0.0602
17092TIP3   OH272766   4.679   0.062  13.412  0.1747 -0.4467  0.1374
17092TIP3    H172767   4.677   0.053  13.507 -1.0381 -1.6819  0.0291
17092TIP3    H272768   4.772   0.069  13.391  0.5414 -1.3221  1.3285
17093TIP3   OH272769   3.597   5.810  12.231 -0.0516  0.7602 -0.1023
17093TIP3    H172770   3.591   5.808  12.136 -0.5737 -0.1583 -0.0675
17093TIP3    H272771   3.506   5.803  12.260  0.2030 -0.5848  0.4594
17094TIP3   OH272772   0.056   2.667  10.186  0.4315 -0.1311  0.1146
17094TIP3    H172773   0.095   2.588  10.147  1.2220 -0.3071  1.1840
17094TIP3    H272774  -0.025   2.681  10.137  0.3669 -1.5089 -0.2250
17095TIP3   OH272775   2.560   5.321  16.123  0.0126  0.3896 -0.2872
17095TIP3    H172776   2.578   5.250  16.062  0.0774  1.7745 -1.9694
17095TIP3    H272777   2.604   5.296  16.204 -0.0763 -1.5140 -0.7952
17096TIP3   OH272778   2.821   1.821  11.114  0.3103  0.4570 -0.3413
17096TIP3    H172779   2.914   1.804  11.133  0.2320  1.0881  0.6976
17096TIP3    H272780   2.816   1.916  11.105 -0.3021  0.4589 -0.0070
17097TIP3   OH272781   1.550   5.572   7.124 -0.0915  0.2906 -1.1090
17097TIP3    H172782   1.579   5.491   7.083 -0.3864 -0.9477  1.0069
17097TIP3    H272783   1.625   5.600   7.177 -0.7609  0.1799 -0.0926
17098TIP3   OH272784   6.249   1.638  11.776  0.6292  0.3954  0.0262
17098TIP3    H172785   6.244   1.729  11.749  0.4809  0.4629  0.2795
17098TIP3    H272786   6.338   1.626  11.808  0.1927  0.8748  1.4909
17099TIP3   OH272787   0.238   3.845  13.986  0.0472 -0.2504  0.1490
17099TIP3    H172788   0.299   3.905  14.030 -0.6570  1.1455 -0.7081
17099TIP3    H272789   0.153   3.890  13.990  0.0938  0.4231 -3.4056
17100TIP3   OH272790   3.048   4.022  12.188 -0.6817 -0.7132  0.0520
17100TIP3    H172791   3.138   3.991  12.180  1.1690  2.7065  3.9004
17100TIP3    H272792   3.009   3.967  12.256 -1.2218 -1.6011 -0.9615
17101TIP3   OH272793   5.340   2.867  11.459  1.0270  0.4363 -0.4906
17101TIP3    H172794   5.303   2.784  11.429  0.1917  0.3808  0.6224
17101TIP3    H272795   5.354   2.855  11.553 -0.9151  2.1566  0.1050
17102TIP3   OH272796   3.149   5.657  15.143  0.4744 -0.2941  0.6107
17102TIP3    H172797   3.111   5.577  15.106 -0.9339  0.4580  0.3463
17102TIP3    H272798   3.075   5.701  15.185  1.5016  0.2248  1.9346
17103TIP3   OH272799   6.553   4.436  12.827  0.0168  0.2104 -0.1740
17103TIP3    H172800   6.641   4.428  12.791  1.6820  0.8212  3.3551
17103TIP3    H272801   6.504   4.486  12.762  2.4558  0.4080 -1.9485
17104TIP3   OH272802   2.483   1.353  16.099 -0.2017 -0.1826  0.3386
17104TIP3    H172803   2.390   1.354  16.078  0.1113  0.2562 -1.1782
17104TIP3    H272804   2.525   1.389  16.020  1.2200 -0.1168  1.1016
17105TIP3   OH272805   1.539   5.528   4.233 -0.3455 -0.3573  0.2446
17105TIP3    H172806   1.500   5.614   4.221  1.5589  0.4457 -0.8112
17105TIP3    H272807   1.579   5.531   4.320 -0.6478 -0.3392  0.3837
17106TIP3   OH272808   2.784   4.104  12.520 -0.8809 -0.3196 -0.6491
17106TIP3    H172809   2.778   4.047  12.597 -2.7753 -1.4238 -1.5559
17106TIP3    H272810   2.877   4.127  12.515 -0.5999 -0.7170  1.5890
17107TIP3   OH272811   4.909   5.622   1.645  0.3056  0.0584  0.3982
17107TIP3    H172812   4.818   5.647   1.662  0.9344  1.3297  2.2156
17107TIP3    H272813   4.939   5.683   1.579 -0.2721 -0.6739 -0.5673
17108TIP3   OH272814   2.128   0.955  16.337 -0.2900 -0.5169 -0.1483
17108TIP3    H172815   2.070   0.884  16.361  0.1467 -1.0462 -0.6309
17108TIP3    H272816   2.081   1.004  16.269 -0.9592  0.1881  0.8025
17109TIP3   OH272817   6.527   4.810   3.860 -0.4179  0.2323 -0.0150
17109TIP3    H172818   6.542   4.867   3.935  0.0500 -0.0704  0.1242
17109TIP3    H272819   6.536   4.867   3.784  1.1488  0.1369  0.0744
17110TIP3   OH272820   5.967   3.730   0.514 -0.1422 -0.0666  0.0156
17110TIP3    H172821   6.006   3.816   0.494  0.0406 -0.3928 -1.1401
17110TIP3    H272822   5.994   3.675   0.440 -3.1027 -0.2067 -1.0842
17111TIP3   OH272823   3.533   2.454  14.336  0.0383  0.6434  0.0993
17111TIP3    H172824   3.519   2.362  14.313  0.7556  0.2952  1.0011
17111TIP3    H272825   3.459   2.475  14.394  0.4526  0.3043  0.7643
17112TIP3   OH272826   0.086   2.569  15.403 -0.0143  0.2147  0.8470
17112TIP3    H172827   0.178   2.573  15.431  0.5979  1.0602 -1.0643
17112TIP3    H272828   0.072   2.477  15.380  1.0657  0.4274 -0.8557
17113TIP3   OH272829   0.987   3.687  15.882  0.1235  0.4204 -0.7645
17113TIP3    H172830   0.957   3.627  15.813 -1.3847 -0.8039  0.8503
17113TIP3    H272831   0.909   3.702  15.936  1.1087  1.8127  0.3564
17114TIP3   OH272832   0.285   2.966  12.503  0.3375  0.4344  0.2617
17114TIP3    H172833   0.213   3.003  12.450  1.0759  0.4417 -0.7700
17114TIP3    H272834   0.363   3.013  12.473  1.4714 -2.3919 -1.6877
17115TIP3   OH272835   2.160   0.701  10.591  0.0095 -0.3886  0.4222
17115TIP3    H172836   2.095   0.728  10.655  0.7375  1.5604  0.3996
17115TIP3    H272837   2.243   0.704  10.638  0.7082  2.1737 -0.8011
17116TIP3   OH272838   0.072   1.338   1.980  0.1602  0.0197 -0.0936
17116TIP3    H172839   0.010   1.265   1.989 -0.0925  0.4851  2.7583
17116TIP3    H272840   0.020   1.408   1.941  0.3640 -1.1801 -2.7142
17117TIP3   OH272841   5.361   1.737   4.171  0.3310  0.2757  0.9538
17117TIP3    H172842   5.361   1.680   4.095 -3.2237  1.2813 -0.0169
17117TIP3    H272843   5.420   1.809   4.147 -1.5701  1.1733 -1.4996
17118TIP3   OH272844   1.283   3.611   0.666  0.6202  0.7286  0.3430
17118TIP3    H172845   1.290   3.685   0.726  1.1657  2.4103 -1.6470
17118TIP3    H272846   1.341   3.634   0.593 -0.7155 -0.7381 -1.2781
17119TIP3   OH272847   1.807   1.810  13.162  0.0932 -0.4334  0.0411
17119TIP3    H172848   1.865   1.884  13.182 -0.0806 -0.0622 -0.7555
17119TIP3    H272849   1.826   1.745  13.229  0.9324 -0.0362  0.2013
17120TIP3   OH272850   2.915   3.768  13.012 -0.5544 -0.6848  0.1417
17120TIP3    H172851   2.876   3.821  13.081 -0.5424  0.7570 -0.8983
17120TIP3    H272852   2.881   3.680  13.026 -0.3078 -0.5011  2.1315
17121TIP3   OH272853   3.771   2.571   5.268  0.7202 -0.0376 -0.1502
17121TIP3    H172854   3.770   2.607   5.179  1.2988  1.3301  0.3710
17121TIP3    H272855   3.713   2.495   5.264  1.2688 -0.4097 -1.8641
17122TIP3   OH272856   5.616   1.021   4.273 -0.0058 -0.3202 -0.0053
17122TIP3    H172857   5.652   0.965   4.205  2.8026  0.3660  0.8197
17122TIP3    H272858   5.625   0.970   4.353 -0.7329 -0.0336  0.2674
17123TIP3   OH272859   1.899   5.497   4.413 -0.3410  0.3187 -0.2980
17123TIP3    H172860   1.908   5.541   4.498  3.3583 -1.2221  0.2860
17123TIP3    H272861   1.866   5.410   4.435 -2.7297  0.9923 -0.9219
17124TIP3   OH272862   4.079   6.488   1.116 -0.4573  0.1606  0.3401
17124TIP3    H172863   4.049   6.516   1.030  0.4535 -1.3930 -0.5267
17124TIP3    H272864   3.999   6.458   1.161 -0.8807  0.6199 -0.1049
17125TIP3   OH272865   4.365   2.285   3.374 -0.6438  0.3817 -0.0099
17125TIP3    H172866   4.287   2.329   3.342 -0.3163  0.3184 -0.9194
17125TIP3    H272867   4.349   2.273   3.468 -1.3520  1.1289 -0.0245
17126TIP3   OH272868   1.807   6.664  13.232 -0.1049 -0.0682 -0.1191
17126TIP3    H172869   1.765   6.584  13.199 -1.3090 -0.0285  1.1900
17126TIP3    H272870   1.775   6.733  13.174 -0.3752 -0.3198 -0.2738
17127TIP3   OH272871   3.024   4.891  12.075  0.0889 -0.4812 -0.3034
17127TIP3    H172872   3.108   4.934  12.093  1.0114 -2.0575 -0.6362
17127TIP3    H272873   2.976   4.897  12.157  0.5384  0.3818 -0.0865
17128TIP3   OH272874   2.242   5.003   5.751  0.1454  0.0417  0.3793
17128TIP3    H172875   2.280   4.960   5.674 -0.2964  0.3915 -0.0372
17128TIP3    H272876   2.317   5.043   5.795  0.2329  1.0706 -0.6584
17129TIP3   OH272877   3.064   1.381   1.203 -0.1629 -0.7941  0.0822
17129TIP3    H172878   3.046   1.377   1.297  1.9617  0.5179  0.6255
17129TIP3    H272879   2.985   1.418   1.164 -0.6673 -0.3013  1.5099
17130TIP3   OH272880   1.222   2.391  17.000 -0.0066 -0.0239 -0.6006
17130TIP3    H172881   1.153   2.328  16.983  0.4593 -0.3648 -1.2733
17130TIP3    H272882   1.279   2.348  17.064  1.0951 -0.9150 -2.1040
17131TIP3   OH272883   5.290   0.855  14.106 -0.0537 -1.1269 -0.4306
17131TIP3    H172884   5.266   0.918  14.039 -0.3490 -0.2499  0.4788
17131TIP3    H272885   5.363   0.806  14.068 -0.8472 -1.3178 -1.7578
17132TIP3   OH272886   4.768   4.120   5.396 -0.0111  0.5121  0.0053
17132TIP3    H172887   4.858   4.101   5.421 -0.5076 -0.5706  1.1159
17132TIP3    H272888   4.742   4.191   5.454  0.0385  0.6346 -0.1221
17133TIP3   OH272889   2.322   3.869   5.853 -0.4080 -0.0266  0.2147
17133TIP3    H172890   2.234   3.835   5.868 -0.1920 -0.0342  1.6117
17133TIP3    H272891   2.345   3.913   5.935  1.6769 -1.8117  0.6856
17134TIP3   OH272892   5.845   6.337  10.594 -0.3227 -0.4616 -0.8408
17134TIP3    H172893   5.810   6.409  10.542 -2.7166 -1.2066 -0.3915
17134TIP3    H272894   5.775   6.316  10.656  0.3642 -2.9918 -0.7988
17135TIP3   OH272895   1.158   2.480  14.435 -0.1172 -0.6020  0.1525
17135TIP3    H172896   1.145   2.525  14.519  3.3396  0.5722  0.2083
17135TIP3    H272897   1.170   2.388  14.458  0.4831 -0.3351  0.9387
17136TIP3   OH272898   1.326   0.761   2.338 -0.0253  0.4721 -0.2637
17136TIP3    H172899   1.309   0.834   2.398 -0.1749 -0.1570  0.4762
17136TIP3    H272900   1.248   0.757   2.283 -0.7865 -0.1961  0.8236
17137TIP3   OH272901   0.550   1.041  14.008 -0.6706  0.0558  0.0677
17137TIP3    H172902   0.463   1.003  14.022 -0.3120 -2.2465 -2.9198
17137TIP3    H272903   0.605   0.967  13.985  1.6701  1.6969  0.0346
17138TIP3   OH272904   5.433   4.743   5.694  0.1190 -0.1075 -0.7067
17138TIP3    H172905   5.490   4.669   5.671 -1.8367 -1.7080 -0.6703
17138TIP3    H272906   5.384   4.761   5.614  1.0111  1.6147 -0.8986
17139TIP3   OH272907   1.300   0.705   3.699  0.2955 -0.0566 -0.7268
17139TIP3    H172908   1.274   0.620   3.735 -1.2751  0.8898  0.5255
17139TIP3    H272909   1.381   0.727   3.744 -0.8191  0.3819  1.2132
17140TIP3   OH272910   6.481   3.830   3.277 -0.3909  0.1822  0.1349
17140TIP3    H172911   6.527   3.901   3.321 -0.3172 -0.4902  1.1836
17140TIP3    H272912   6.417   3.800   3.341 -0.4616 -0.6500 -0.3114
17141TIP3   OH272913   2.312   1.280  13.587 -0.2237  0.2276  0.3889
17141TIP3    H172914   2.267   1.335  13.651  0.1700  0.0312  0.8376
17141TIP3    H272915   2.248   1.268  13.517  0.3021  2.9083 -0.6814
17142TIP3   OH272916   1.989   4.366   1.978  0.2436 -0.4795  0.0541
17142TIP3    H172917   2.085   4.360   1.977  0.2488 -0.3590 -0.2178
17142TIP3    H272918   1.967   4.383   2.069  0.4233 -1.4901  0.2937
17143TIP3   OH272919   4.470   6.754  14.105 -0.6285 -0.4422  0.1092
17143TIP3    H172920   4.462   6.849  14.097 -1.0843 -0.3061  1.7926
17143TIP3    H272921   4.520   6.727  14.028  0.5225  1.3021  0.2020
17144TIP3   OH272922   6.741   3.189  13.698  0.3401 -0.0802 -0.5322
17144TIP3    H172923   6.782   3.164  13.615 -0.5041  1.1837 -1.3650
17144TIP3    H272924   6.652   3.155  13.692  0.2388  0.1162 -0.1895
17145TIP3   OH272925   6.639   4.650  11.911  0.0544 -0.3271  0.6710
17145TIP3    H172926   6.583   4.669  11.836  0.8463 -0.4064  0.0479
17145TIP3    H272927   6.660   4.736  11.947 -0.3338 -0.2890  0.8121
17146TIP3   OH272928   3.302   3.555  11.792 -0.1307  0.1564 -0.0747
17146TIP3    H172929   3.362   3.609  11.740 -0.1449 -0.2030 -0.4653
17146TIP3    H272930   3.248   3.619  11.839  0.4054  0.4822  0.1043
17147TIP3   OH272931   5.449   1.070   1.976  0.0098 -0.1685 -0.0842
17147TIP3    H172932   5.504   1.092   1.901 -1.0704 -1.6806 -1.4081
17147TIP3    H272933   5.371   1.125   1.965 -1.0044 -1.7550 -1.2300
17148TIP3   OH272934   1.656   0.093   0.620  0.2068  0.4384  0.1543
17148TIP3    H172935   1.645   0.052   0.534 -0.5489  1.6176 -0.3272
17148TIP3    H272936   1.738   0.142   0.613 -0.4605  1.5260 -0.3279
17149TIP3   OH272937   5.980   6.050   2.032 -0.1581  0.1497  0.0680
17149TIP3    H172938   5.959   5.965   1.993  3.4201 -0.8318 -0.0557
17149TIP3    H272939   5.949   6.043   2.123  0.1224 -1.3380  0.0752
17150TIP3   OH272940   6.431   4.609  12.594 -0.4432 -0.5883 -0.4564
17150TIP3    H172941   6.368   4.545  12.559 -0.8171  0.6359 -2.1240
17150TIP3    H272942   6.435   4.678  12.528  0.2736  0.9257  1.0818
17151TIP3   OH272943   3.329   0.928   5.835 -0.1072 -0.6005  0.0750
17151TIP3    H172944   3.396   0.860   5.837  1.6791  1.0680  0.9125
17151TIP3    H272945   3.378   1.010   5.831 -2.1672  0.6549 -2.0169
17152TIP3   OH272946   5.168   0.858  14.357 -0.1537 -0.0031 -0.6444
17152TIP3    H172947   5.210   0.867  14.271  0.3578 -0.5432 -0.4592
17152TIP3    H272948   5.228   0.900  14.418  0.5099 -1.3945 -0.2791
17153TIP3   OH272949   3.991   6.718  15.785 -0.8466  0.2070  0.3734
17153TIP3    H172950   3.916   6.663  15.763  0.8798 -2.5071  0.7843
17153TIP3    H272951   4.026   6.680  15.865  0.8756  1.4847  0.2898
17154TIP3   OH272952   5.045   4.447   5.900 -0.5262  0.1456 -0.0047
17154TIP3    H172953   5.039   4.413   5.989 -0.4684  1.0628  0.3640
17154TIP3    H272954   5.138   4.465   5.886 -0.5979  0.4790 -0.0629
17155TIP3   OH272955   1.866   0.657  13.789 -0.2566 -0.5030 -0.3961
17155TIP3    H172956   1.812   0.579  13.800  0.7990 -1.1181  0.6250
17155TIP3    H272957   1.817   0.727  13.833 -0.5293 -0.9082 -0.0442
17156TIP3   OH272958   1.569   5.261   1.046  0.2321  0.0244  0.1658
17156TIP3    H172959   1.642   5.321   1.029 -0.0117 -0.0411 -1.2914
17156TIP3    H272960   1.557   5.216   0.963 -1.7270  0.3130  0.2559
17157TIP3   OH272961   0.079   0.083  14.873 -0.1825  0.3469 -0.0715
17157TIP3    H172962   0.173   0.088  14.856 -0.1758 -1.5466 -0.9188
17157TIP3    H272963   0.068   0.002  14.924 -1.3210  0.6850  0.2599
17158TIP3   OH272964   2.958   6.571   0.203  0.1409 -0.7020 -0.2726
17158TIP3    H172965   2.927   6.616   0.282 -0.0868 -0.7247 -0.3473
17158TIP3    H272966   2.942   6.635   0.133  1.1171 -0.3523 -0.1899
17159TIP3   OH272967   1.751   3.596  12.854 -0.0131 -0.5878  0.5186
17159TIP3    H172968   1.695   3.518  12.861 -0.7509 -0.0198  1.1933
17159TIP3    H272969   1.817   3.584  12.922 -1.2835  0.2571  1.9704
17160TIP3   OH272970   1.736   0.952  12.640 -0.1447 -0.4549 -0.0910
17160TIP3    H172971   1.668   1.005  12.683 -0.3400 -0.1961 -0.7118
17160TIP3    H272972   1.808   0.951  12.702  0.3611  1.6064 -0.5849
17161TIP3   OH272973   5.831   5.291   1.981 -0.3225 -0.6814  0.2677
17161TIP3    H172974   5.877   5.374   1.993  1.4429 -1.2990 -1.7134
17161TIP3    H272975   5.859   5.237   2.054  2.1819 -1.0210 -0.8467
17162TIP3   OH272976   1.427   5.794   4.207  0.8621  0.0594  0.1238
17162TIP3    H172977   1.480   5.832   4.137 -0.0907 -0.0790 -0.7054
17162TIP3    H272978   1.453   5.841   4.286  0.6240  1.5555 -0.6511
17163TIP3   OH272979   0.240   1.691  15.137  0.0284 -0.0740 -0.4358
17163TIP3    H172980   0.153   1.729  15.134 -1.1483 -2.6015 -0.6813
17163TIP3    H272981   0.295   1.752  15.087 -1.8512  0.9340 -1.3489
17164TIP3   OH272982   2.293   1.783   4.243  0.0645 -0.7496  0.2492
17164TIP3    H172983   2.349   1.719   4.198 -1.0493 -0.0937 -2.2174
17164TIP3    H272984   2.327   1.868   4.216 -0.2366 -0.2971  1.2400
17165TIP3   OH272985   4.166   6.311  16.742 -0.2303  0.0797 -0.3868
17165TIP3    H172986   4.100   6.302  16.673  1.5663 -0.8081 -2.0971
17165TIP3    H272987   4.212   6.228  16.742 -0.0106  0.1451  1.7826
17166TIP3   OH272988   2.369   0.965   6.692 -0.2755 -0.5416  0.0037
17166TIP3    H172989   2.312   0.889   6.701 -0.1647 -0.6770 -0.4281
17166TIP3    H272990   2.309   1.037   6.670 -0.4060 -0.4527  0.6247
17167TIP3   OH272991   6.438   0.893  12.942 -0.1437 -0.0528 -0.0848
17167TIP3    H172992   6.467   0.913  13.031 -1.9359 -1.6562  0.9393
17167TIP3    H272993   6.435   0.978  12.898  0.8959  0.7606  1.3399
17168TIP3   OH272994   3.629   3.253   6.647 -0.1780  0.5166 -0.3819
17168TIP3    H172995   3.651   3.171   6.602 -0.8762  1.1466 -1.9441
17168TIP3    H272996   3.534   3.259   6.641 -0.4692  0.0186  2.3620
17169TIP3   OH272997   6.746   5.288   2.941  0.0898 -0.1666  0.2396
17169TIP3    H172998   6.801   5.265   2.867 -1.9484 -0.5622 -1.2482
17169TIP3    H272999   6.697   5.365   2.911 -0.0117  0.3211  1.5967
17170TIP3   OH273000   3.604   1.011   1.770 -0.3988  0.3691 -0.7505
17170TIP3    H173001   3.565   1.099   1.763  0.3140  0.6054 -2.2458
17170TIP3    H273002   3.534   0.952   1.745 -1.1790  0.4131  1.2219
17171TIP3   OH273003   3.180   0.844  17.039  0.1002  0.8828 -0.2390
17171TIP3    H173004   3.249   0.909  17.041  0.1080  0.8696  0.8745
17171TIP3    H273005   3.118   0.874  17.106  0.1699 -0.3072  0.3830
17172TIP3   OH273006   5.292   5.235   2.452  0.0678 -0.3123  0.1127
17172TIP3    H173007   5.295   5.277   2.538 -1.6529  1.0291 -0.4257
17172TIP3    H273008   5.332   5.149   2.466  0.2508  0.0441  2.1275
17173TIP3   OH273009   6.602   2.664  17.058  0.2831 -0.1463  0.3643
17173TIP3    H173010   6.595   2.624  17.144 -3.2270 -2.1030 -0.6293
17173TIP3    H273011   6.634   2.594  17.001 -0.9672 -0.0412 -0.5108
17174TIP3   OH273012   3.185   4.245  13.406  0.8393  0.0368 -0.0759
17174TIP3    H173013   3.214   4.203  13.325 -0.2904 -0.7186 -0.1208
17174TIP3    H273014   3.211   4.183  13.475  2.8737  1.2313  0.2944
17175TIP3   OH273015   2.473   4.971  10.824 -0.0154 -0.1417 -0.0371
17175TIP3    H173016   2.564   4.941  10.831  0.5611  1.3567 -0.7018
17175TIP3    H273017   2.463   5.034  10.896  0.0232  0.9638 -0.9690
17176TIP3   OH273018   3.749   6.693  16.756 -0.0213  0.1994 -0.8484
17176TIP3    H173019   3.741   6.748  16.833 -0.5934  0.7234 -1.2806
17176TIP3    H273020   3.666   6.647  16.749  0.1439 -0.0873 -0.9722
17177TIP3   OH273021   3.035   1.278  13.097  0.7640 -0.0648 -0.0884
17177TIP3    H173022   3.117   1.253  13.139  0.8354  1.3856  0.6921
17177TIP3    H273023   3.050   1.262  13.004  1.6141 -0.6165  0.1345
17178TIP3   OH273024   4.567   3.179  14.644 -0.2320 -0.4047 -0.5768
17178TIP3    H173025   4.647   3.137  14.674  0.2291 -0.1700 -1.4708
17178TIP3    H273026   4.497   3.120  14.674  0.3785 -1.6626 -1.5327
17179TIP3   OH273027   3.258   0.190  13.784  0.2987  0.4481  0.1801
17179TIP3    H173028   3.219   0.104  13.770  0.7366  0.2648  0.0896
17179TIP3    H273029   3.200   0.231  13.849 -1.6986  1.2730 -1.9841
17180TIP3   OH273030   1.824   3.874  12.193 -0.3893  0.4965 -0.6261
17180TIP3    H173031   1.771   3.904  12.119  1.2274  0.2516 -1.9280
17180TIP3    H273032   1.882   3.808  12.156 -0.8238 -1.0458  1.2756
17181TIP3   OH273033   2.866   3.662  13.461 -0.2909  0.0319  0.0518
17181TIP3    H173034   2.840   3.750  13.489  0.8823  0.0667  1.0993
17181TIP3    H273035   2.808   3.603  13.508  0.3044  0.1815  1.0098
17182TIP3   OH273036   5.545   1.242  14.311 -0.4828  0.3700 -0.8750
17182TIP3    H173037   5.529   1.193  14.230 -1.5517 -1.3320  0.2885
17182TIP3    H273038   5.563   1.174  14.376  0.3756  1.7024  0.3305
17183TIP3   OH273039   5.389   2.399   6.397  0.3248  0.1293  0.2892
17183TIP3    H173040   5.458   2.418   6.335  1.7265 -1.1323  1.3874
17183TIP3    H273041   5.312   2.379   6.343  1.3190 -0.2504 -1.0167
17184TIP3   OH273042   5.679   4.679   3.531 -0.5778  0.0646  0.4742
17184TIP3    H173043   5.620   4.657   3.604 -1.8301 -2.7396 -1.2239
17184TIP3    H273044   5.752   4.619   3.540 -0.5576 -0.0460 -0.3816
17185TIP3   OH273045   3.071   1.998  11.628 -0.2059  0.2796  0.5356
17185TIP3    H173046   3.011   2.034  11.563 -0.7424 -0.7562  0.4348
17185TIP3    H273047   3.017   1.938  11.680  1.0184 -1.8701 -0.5174
17186TIP3   OH273048   0.565   3.461   2.795  0.2343  0.7407 -0.3208
17186TIP3    H173049   0.545   3.394   2.729  1.3514 -0.1463  0.2028
17186TIP3    H273050   0.480   3.487   2.829 -0.2098 -1.0583  0.0568
17187TIP3   OH273051   5.383   0.916  15.154 -0.1129  0.3813 -0.1154
17187TIP3    H173052   5.441   0.973  15.103 -1.0794  1.0922 -0.4632
17187TIP3    H273053   5.398   0.943  15.244  2.2530 -1.4800  0.1446
17188TIP3   OH273054   6.258   5.960   5.399  0.1453  0.3577  0.4369
17188TIP3    H173055   6.166   5.988   5.391  0.6126  2.2019  1.0785
17188TIP3    H273056   6.258   5.898   5.471 -0.7691 -0.5835 -0.3363
17189TIP3   OH273057   3.022   2.541  13.960 -0.3428 -0.2986  0.3176
17189TIP3    H173058   2.951   2.480  13.942 -1.3476  0.4403  1.6295
17189TIP3    H273059   3.069   2.501  14.033 -2.2497  1.3836  2.6133
17190TIP3   OH273060   4.683   0.156   6.257  0.4134 -0.3928  0.2901
17190TIP3    H173061   4.618   0.105   6.306  0.2477 -0.0348  0.4529
17190TIP3    H273062   4.766   0.111   6.273  0.3505 -0.3262  0.8492
17191TIP3   OH273063   3.636   0.417   2.067 -0.2990 -0.0326 -0.1709
17191TIP3    H173064   3.693   0.348   2.101  0.5807  0.8094  0.0888
17191TIP3    H273065   3.571   0.431   2.136 -1.1819 -1.3561 -0.6807
17192TIP3   OH273066   3.596   0.504   3.184 -0.0123  0.3090 -0.3279
17192TIP3    H173067   3.611   0.515   3.090 -0.9606 -0.7328 -0.6185
17192TIP3    H273068   3.666   0.446   3.213  0.5633  1.0155 -0.2873
17193TIP3   OH273069   3.748   5.862   0.553  0.2818 -0.1189  0.2143
17193TIP3    H173070   3.714   5.948   0.530 -0.2005 -0.1117  0.9281
17193TIP3    H273071   3.799   5.835   0.476 -0.8897  0.1020 -0.6630
17194TIP3   OH273072   2.752   2.794  17.069  0.4893 -0.2700  0.4035
17194TIP3    H173073   2.769   2.839  17.152 -0.6573  1.3202 -0.1757
17194TIP3    H273074   2.753   2.863  17.004  1.3342 -1.4926 -0.9336
17195TIP3   OH273075   4.024   1.672   2.318  0.0810  0.2251  0.0274
17195TIP3    H173076   4.083   1.747   2.308  1.5026 -1.0068 -1.2716
17195TIP3    H273077   4.062   1.603   2.264 -3.1656 -0.3163 -1.8675
17196TIP3   OH273078   0.328   1.492  15.626  0.2238 -0.8695 -0.0948
17196TIP3    H173079   0.392   1.435  15.583  0.0060 -1.4552  0.3412
17196TIP3    H273080   0.251   1.488  15.570  0.5036 -0.3105 -0.5235
17197TIP3   OH273081   1.958   5.311  13.606  0.6424 -0.4665 -0.4695
17197TIP3    H173082   1.909   5.371  13.663  2.1726  1.4915 -1.1299
17197TIP3    H273083   1.991   5.244  13.666  0.9231  0.6955  0.7176
17198TIP3   OH273084   6.464   6.627   0.010  0.0784 -0.2628  0.4803
17198TIP3    H173085   6.419   6.710  -0.007  0.1097 -0.4138 -0.3780
17198TIP3    H273086   6.544   6.653   0.055 -0.2073  0.1179  0.7877
17199TIP3   OH273087   0.829   1.385  14.516 -0.3477  0.8580 -0.1686
17199TIP3    H173088   0.805   1.293  14.516 -1.7238  1.1292  2.1206
17199TIP3    H273089   0.912   1.387  14.565 -0.9627  0.9332  0.8959
17200TIP3   OH273090   1.958   3.155   1.525  0.2667  0.3662  0.5905
17200TIP3    H173091   2.013   3.157   1.447 -0.0351 -1.0519  0.3194
17200TIP3    H273092   1.874   3.190   1.496  0.3324  0.3851  0.4238
17201TIP3   OH273093   3.675   5.655  15.059  0.3435  0.1365 -0.0980
17201TIP3    H173094   3.682   5.643  14.965 -1.7362 -1.1937 -0.1526
17201TIP3    H273095   3.629   5.739  15.069  1.6760  0.8981 -0.1979
17202TIP3   OH273096   0.310   3.720   1.748 -0.4003 -0.5138 -0.6799
17202TIP3    H173097   0.369   3.683   1.814 -0.4468  0.4420 -0.0805
17202TIP3    H273098   0.225   3.724   1.792 -0.1957  1.2066 -0.3539
17203TIP3   OH273099   3.834   1.496  13.640 -0.4902 -0.8551  0.7184
17203TIP3    H173100   3.890   1.488  13.717 -0.6020  0.5957  0.9901
17203TIP3    H273101   3.894   1.517  13.568 -0.6423  0.6680  1.0034
17204TIP3   OH273102   3.269   4.661  12.209 -0.5527 -0.0607 -0.6166
17204TIP3    H173103   3.329   4.587  12.210  0.5360  0.7360  2.0707
17204TIP3    H273104   3.226   4.656  12.124  0.7956 -2.6829 -1.2461
17205TIP3   OH273105   5.302   3.626   2.508 -0.7472 -0.0248  0.1720
17205TIP3    H173106   5.253   3.555   2.466 -1.0280  0.8571 -1.0689
17205TIP3    H273107   5.390   3.619   2.472 -0.6860  0.0536  0.3076
17206TIP3   OH273108   3.039   0.303  11.707 -0.0949  0.3277 -0.1140
17206TIP3    H173109   2.981   0.321  11.633 -3.3279  0.8488  2.3032
17206TIP3    H273110   2.999   0.228  11.751  1.2582  0.4783  1.4832
17207TIP3   OH273111   0.097   5.729  15.758  0.2622 -0.1003  0.1586
17207TIP3    H173112   0.160   5.701  15.824  0.0081  1.8014  1.2742
17207TIP3    H273113   0.143   5.796  15.707  0.0702 -0.7446 -0.9017
17208TIP3   OH273114   2.114   4.205   0.392  0.2564 -0.5810  0.6964
17208TIP3    H173115   2.148   4.283   0.347  1.3216 -0.8883  0.9371
17208TIP3    H273116   2.132   4.222   0.485 -0.3479 -0.7183  0.8443
17209TIP3   OH273117   0.626   6.112  13.695 -0.4796 -0.0822  0.6098
17209TIP3    H173118   0.694   6.115  13.762  0.5282  1.3896 -0.4279
17209TIP3    H273119   0.673   6.104  13.612 -1.5601  0.6325 -0.1020
17210TIP3   OH273120   0.943   1.150   1.180  0.1375  0.1081 -0.4037
17210TIP3    H173121   0.905   1.088   1.242 -1.6429  1.6202  0.1231
17210TIP3    H273122   1.033   1.122   1.169 -0.2541 -1.7702  0.8148
17211TIP3   OH273123   2.413   6.252   4.345 -0.0972  0.5114  0.2698
17211TIP3    H173124   2.470   6.242   4.269 -0.6301  1.0013 -0.2036
17211TIP3    H273125   2.452   6.324   4.395  0.6346 -0.2500  0.8259
17212TIP3   OH273126   5.577   5.337   0.194 -0.0712  0.0464  0.2905
17212TIP3    H173127   5.607   5.354   0.105 -3.2023  0.5302 -0.7827
17212TIP3    H273128   5.637   5.270   0.227  2.7179  1.5918 -1.1915
17213TIP3   OH273129   0.568   4.525   4.733  0.2155 -0.2090  0.1647
17213TIP3    H173130   0.535   4.615   4.725 -0.0336 -0.2303  0.9319
17213TIP3    H273131   0.574   4.494   4.643 -2.9037 -0.5949 -0.0267
17214TIP3   OH273132   5.418   4.975  13.163  0.3721 -0.0754  0.0482
17214TIP3    H173133   5.411   5.067  13.137  1.6712 -0.0230 -0.2065
17214TIP3    H273134   5.334   4.936  13.140  0.7054  0.4619 -2.2482
17215TIP3   OH273135   6.115   1.849  15.173 -0.1067 -0.1087  0.5197
17215TIP3    H173136   6.108   1.791  15.097  1.4973  0.7861 -0.3734
17215TIP3    H273137   6.194   1.900  15.157 -0.3020  0.8475  2.3079
17216TIP3   OH273138   1.581   2.503   4.711 -0.3076  0.1014  0.0073
17216TIP3    H173139   1.674   2.484   4.712 -0.1046  0.8543 -1.2757
17216TIP3    H273140   1.542   2.432   4.660 -0.5314 -0.5047  0.9954
17217TIP3   OH273141   4.177   5.262  13.895 -0.1397 -0.0011  0.1918
17217TIP3    H173142   4.086   5.277  13.923 -1.0558 -1.9424 -1.5066
17217TIP3    H273143   4.220   5.226  13.972 -0.6495  1.3424  1.1529
17218TIP3   OH273144   5.001   1.264   2.918  0.2710 -0.4047  0.4390
17218TIP3    H173145   5.002   1.182   2.968 -0.9939 -1.2412 -0.8204
17218TIP3    H273146   5.059   1.248   2.844  1.1416  0.3695  0.9422
17219TIP3   OH273147   2.966   2.597  11.617 -0.0701  0.5184  0.4806
17219TIP3    H173148   2.922   2.523  11.575  0.1264 -0.5689  2.1052
17219TIP3    H273149   3.003   2.647  11.544 -0.5168 -0.7797 -0.6839
17220TIP3   OH273150   6.193   4.613  15.321 -0.1463 -0.4419  0.6274
17220TIP3    H173151   6.175   4.524  15.350  2.3368 -1.1365  0.2187
17220TIP3    H273152   6.263   4.643  15.378 -1.0062  1.3237  0.8167
17221TIP3   OH273153   2.953   5.661   2.599 -0.4425  0.2629  0.2442
17221TIP3    H173154   2.934   5.631   2.687  1.0511  1.3856  1.0000
17221TIP3    H273155   3.038   5.705   2.606  0.5069 -0.9693 -2.0587
17222TIP3   OH273156   2.735   1.765  15.099 -0.5037 -0.4558  0.6852
17222TIP3    H173157   2.750   1.823  15.173 -0.3888 -1.2404  1.2902
17222TIP3    H273158   2.822   1.734  15.074 -0.5284 -0.0962  0.1337
17223TIP3   OH273159   0.805   1.299   6.692 -0.4626  0.1156  0.3746
17223TIP3    H173160   0.837   1.368   6.635 -1.5717  0.7122  0.4528
17223TIP3    H273161   0.794   1.223   6.634  0.3597  0.1086  0.2134
17224TIP3   OH273162   3.678   5.163   6.171  0.2747 -0.6671  0.1924
17224TIP3    H173163   3.633   5.231   6.222 -1.2214 -0.3074 -1.5235
17224TIP3    H273164   3.656   5.183   6.080  0.5483 -2.9329 -0.4162
17225TIP3   OH273165   5.705   1.806  11.318  0.2298  0.1268 -0.7025
17225TIP3    H173166   5.659   1.860  11.253  0.5379 -0.4582 -1.4284
17225TIP3    H273167   5.786   1.780  11.274 -0.2713 -1.5694 -0.6737
17226TIP3   OH273168   2.935   5.802  14.949  0.0476  0.1124  0.3010
17226TIP3    H173169   2.915   5.879  15.002 -1.9676 -0.0025 -0.1855
17226TIP3    H273170   2.855   5.788  14.897  0.1300 -2.6341  0.7814
17227TIP3   OH273171   5.366   6.466  16.261  0.1480 -0.1183  0.0004
17227TIP3    H173172   5.278   6.455  16.294  0.0435 -1.9914 -0.8005
17227TIP3    H273173   5.410   6.520  16.327 -1.4103  0.3960  0.6689
17228TIP3   OH273174   0.875   0.192  15.333  0.3569  0.5448  0.0184
17228TIP3    H173175   0.846   0.208  15.243  1.1098  0.6567 -0.2071
17228TIP3    H273176   0.835   0.108  15.356 -0.1718  0.7121 -0.2717
17229TIP3   OH273177   6.440   2.217  15.301  0.7928  0.2029 -0.2442
17229TIP3    H173178   6.435   2.306  15.337  0.4865 -0.1819  0.7014
17229TIP3    H273179   6.352   2.201  15.266  0.7008  0.0867  0.0404
17230TIP3   OH273180   4.048   4.868   0.164  0.7544  0.1336  0.5480
17230TIP3    H173181   3.996   4.795   0.128 -0.8597  1.5622 -0.1431
17230TIP3    H273182   4.138   4.849   0.137 -0.0128 -0.2150 -2.0424
17231TIP3   OH273183   2.498   2.028   4.369 -0.0760 -0.5493 -0.1618
17231TIP3    H173184   2.575   1.972   4.359  0.6384  0.4572 -0.4346
17231TIP3    H273185   2.493   2.047   4.463 -0.2928 -1.0043 -0.0748
17232TIP3   OH273186   2.559   5.641  11.618 -0.2108 -0.1531  0.0427
17232TIP3    H173187   2.476   5.598  11.598 -0.1939 -0.6577  1.0007
17232TIP3    H273188   2.623   5.596  11.563 -0.7517  1.1904 -1.7906
17233TIP3   OH273189   4.480   2.200  12.855  0.3890  0.1373  0.5471
17233TIP3    H173190   4.500   2.186  12.763 -0.0202 -0.3047  0.5208
17233TIP3    H273191   4.543   2.266  12.884 -1.5711  2.8242 -0.8875
17234TIP3   OH273192   4.144   1.963  12.336 -0.1103  0.2911  0.2019
17234TIP3    H173193   4.075   1.924  12.389 -0.4047 -0.7682 -0.9008
17234TIP3    H273194   4.112   2.051  12.316 -2.0625 -0.7687 -1.7820
17235TIP3   OH273195   4.984   5.097  16.868  0.2039  0.0147  0.2292
17235TIP3    H173196   4.986   5.002  16.880  0.3463  0.2685  2.6646
17235TIP3    H273197   5.044   5.131  16.934  0.4213  1.8014 -0.8275
17236TIP3   OH273198   3.875   2.916  16.662  0.5225 -0.8021  0.2938
17236TIP3    H173199   3.802   2.866  16.697 -0.3034 -0.8346 -1.3905
17236TIP3    H273200   3.936   2.850  16.629  0.2296 -0.7516 -0.3701
17237TIP3   OH273201   4.782   6.195   5.027 -0.0876 -0.3041  0.7451
17237TIP3    H173202   4.829   6.221   5.106 -0.0695  1.2097  0.2650
17237TIP3    H273203   4.850   6.180   4.962 -0.1993  1.3148  0.2159
17238TIP3   OH273204   0.241   3.873   2.783  0.1106 -0.0319 -0.2927
17238TIP3    H173205   0.184   3.864   2.706  0.3677  0.1837 -0.5100
17238TIP3    H273206   0.304   3.940   2.758 -0.5632  0.9447  0.5759
17239TIP3   OH273207   5.802   6.661   4.083  0.0151 -0.0085  0.2396
17239TIP3    H173208   5.768   6.592   4.141  2.0292 -1.3371 -0.0712
17239TIP3    H273209   5.794   6.624   3.995  1.0413  0.1734  0.0620
17240TIP3   OH273210   6.758   4.329   4.354 -0.1394  0.0561 -0.2021
17240TIP3    H173211   6.705   4.406   4.376 -0.8150 -0.2945 -0.5612
17240TIP3    H273212   6.775   4.339   4.260  0.5398  0.2256 -0.0652
17241TIP3   OH273213   1.529   2.821  12.107 -0.3315  0.4092 -0.3574
17241TIP3    H173214   1.511   2.893  12.168  1.4771  0.3153  0.3496
17241TIP3    H273215   1.444   2.798  12.072 -1.1437  1.9501  0.4776
17242TIP3   OH273216   1.963   4.990   5.677 -0.4599  0.5662  0.2636
17242TIP3    H173217   1.913   4.939   5.742 -1.1655  0.7765 -0.1049
17242TIP3    H273218   2.054   4.964   5.692 -0.9123 -2.0768 -0.9779
17243TIP3   OH273219   4.971   2.692   3.900 -0.1169  0.5876  0.0981
17243TIP3    H173220   5.022   2.746   3.961 -1.5745  0.3483  1.5794
17243TIP3    H273221   4.893   2.744   3.882 -0.6643 -0.2246  0.0773
17244TIP3   OH273222   1.254   2.340  12.654 -0.4487 -0.2463  0.7085
17244TIP3    H173223   1.275   2.247  12.666 -1.1016 -0.5732 -0.5143
17244TIP3    H273224   1.283   2.360  12.565 -1.0608  0.5087  0.6682
17245TIP3   OH273225   3.897   3.331   2.079 -0.1470 -0.2016 -0.2093
17245TIP3    H173226   3.947   3.380   2.015  1.3278 -0.5723  0.6221
17245TIP3    H273227   3.812   3.376   2.082  0.5756  1.2587 -0.6954
17246TIP3   OH273228   3.979   0.008  16.718 -0.0004  0.3078 -0.1827
17246TIP3    H173229   3.902  -0.046  16.697  0.6730 -0.5588 -0.4476
17246TIP3    H273230   3.957   0.094  16.683 -1.2064  0.2962  0.4904
17247TIP3   OH273231   6.781   6.076   2.449 -0.1106 -0.4484 -0.2984
17247TIP3    H173232   6.846   6.087   2.518 -0.9118  0.5313  0.3238
17247TIP3    H273233   6.711   6.025   2.489  0.8129 -2.6861 -1.3584
17248TIP3   OH273234   4.944   3.431  15.690  0.5423 -0.0646 -0.3552
17248TIP3    H173235   4.850   3.414  15.681  0.7623 -0.8306 -1.4784
17248TIP3    H273236   4.950   3.497  15.758 -0.9542  1.3325 -1.4900
17249TIP3   OH273237   1.413   0.713  16.852 -0.0025  0.5596  0.7845
17249TIP3    H173238   1.354   0.788  16.845 -0.6649  0.0246  0.5130
17249TIP3    H273239   1.379   0.650  16.789  1.1308  0.4071  0.3144
17250TIP3   OH273240   3.849   5.528  13.105  0.0296 -0.6610  0.1372
17250TIP3    H173241   3.757   5.537  13.129  0.3590  0.6018  0.9743
17250TIP3    H273242   3.862   5.593  13.036  0.1321 -1.3623 -0.5268
17251TIP3   OH273243   5.552   3.281   3.976 -0.2632  0.5551 -0.5928
17251TIP3    H173244   5.464   3.267   4.012  0.1105 -0.3850 -0.0093
17251TIP3    H273245   5.573   3.372   3.999  0.4574 -0.3289  2.7517
17252TIP3   OH273246   6.057   0.612   3.363  0.1394 -0.1052 -0.1547
17252TIP3    H173247   6.046   0.686   3.422  1.0142 -0.9642  1.1409
17252TIP3    H273248   5.998   0.631   3.290 -0.8128  1.0922  0.8707
17253TIP3   OH273249   2.665   4.241  11.555 -0.2647 -0.3757  0.2141
17253TIP3    H173250   2.591   4.181  11.556 -1.1652  0.6902  0.8631
17253TIP3    H273251   2.630   4.322  11.517  0.3342  0.3847  1.2026
17254TIP3   OH273252   4.449   1.583  16.508 -0.1677  0.0291  0.1289
17254TIP3    H173253   4.430   1.490  16.512 -1.1760 -0.1552 -4.3873
17254TIP3    H273254   4.365   1.626  16.528 -0.3823 -0.1175 -0.4637
17255TIP3   OH273255   6.348   0.647   0.780 -0.3223 -0.5403  0.4886
17255TIP3    H173256   6.293   0.630   0.857 -0.5306  2.1510  1.0419
17255TIP3    H273257   6.435   0.663   0.816 -0.7531  2.4160  0.4709
17256TIP3   OH273258   0.417   0.377   5.391  0.1129 -0.1644 -0.0487
17256TIP3    H173259   0.498   0.385   5.443 -0.7252  1.1904  1.1101
17256TIP3    H273260   0.421   0.288   5.356  1.0149 -0.9611  1.8823
17257TIP3   OH273261   3.708   6.297  16.024  1.0291 -0.4405  0.1925
17257TIP3    H173262   3.669   6.377  15.989 -0.5375 -1.1203  0.2963
17257TIP3    H273263   3.635   6.235  16.030  1.7844 -1.2399  2.0223
17258TIP3   OH273264   1.761   4.679   2.357  0.0865  0.2857 -0.5442
17258TIP3    H173265   1.758   4.709   2.266 -2.9165  1.7996 -0.0697
17258TIP3    H273266   1.673   4.694   2.390  1.2942  0.7265  2.9248
17259TIP3   OH273267   5.507   4.197   4.471 -0.1422 -0.1045 -0.0832
17259TIP3    H173268   5.428   4.189   4.417  0.7025  0.3809 -1.4642
17259TIP3    H273269   5.480   4.250   4.546 -0.7833  1.4235 -1.3370
17260TIP3   OH273270   2.488   1.708  16.719  0.1924 -0.1761  0.0886
17260TIP3    H173271   2.568   1.760  16.706  0.7607 -1.3501 -1.4776
17260TIP3    H273272   2.454   1.737  16.804  1.5377  1.3193  0.1734
17261TIP3   OH273273   6.499   2.841   0.812 -0.0379 -0.3297 -0.5803
17261TIP3    H173274   6.435   2.886   0.757  0.0956 -0.8174 -1.1415
17261TIP3    H273275   6.544   2.912   0.859 -1.2702  0.0010  0.1604
17262TIP3   OH273276   1.829   1.481   3.299 -0.7705  0.6781  0.5165
17262TIP3    H173277   1.746   1.454   3.258 -1.4514  0.0798  2.1743
17262TIP3    H273278   1.803   1.547   3.363 -0.0142  0.2474  1.2833
17263TIP3   OH273279   4.545   1.945  15.274  0.1047  0.1360 -0.1383
17263TIP3    H173280   4.460   1.908  15.298 -0.1794  0.3096 -0.8455
17263TIP3    H273281   4.530   2.040  15.268  0.7242  0.3415  1.2375
17264TIP3   OH273282   1.426   3.153   4.711  0.0041 -0.4757  0.6002
17264TIP3    H173283   1.398   3.087   4.775 -0.9920  0.3806  1.0807
17264TIP3    H273284   1.521   3.155   4.720 -0.0823 -0.6115  1.8400
17265TIP3   OH273285   6.326   3.599  13.323  0.1876  0.4302 -0.2817
17265TIP3    H173286   6.401   3.540  13.313  0.8473  0.7160  2.2237
17265TIP3    H273287   6.250   3.541  13.318  0.7403 -0.3640  0.2073
17266TIP3   OH273288   6.508   3.004  11.550 -0.5039 -0.2423  0.0061
17266TIP3    H173289   6.446   3.025  11.480  0.8608 -2.1251 -1.9109
17266TIP3    H273290   6.465   2.936  11.601  0.4014 -2.7183 -2.2631
17267TIP3   OH273291   2.770   0.936  16.302  0.2816 -0.0124 -0.0676
17267TIP3    H173292   2.715   1.012  16.286 -0.9714 -0.7837  0.3765
17267TIP3    H273293   2.840   0.969  16.358 -1.0210  0.5702  1.3206
17268TIP3   OH273294   1.520   6.007  12.645  0.0644  0.4914  0.0870
17268TIP3    H173295   1.506   6.071  12.715  1.2500  0.0650  0.7350
17268TIP3    H273296   1.578   6.051  12.583  1.6214 -0.2463  0.9835
17269TIP3   OH273297   2.218   6.495  13.776 -0.1323  0.0566 -0.0145
17269TIP3    H173298   2.211   6.501  13.681  1.3141 -0.0870 -0.1545
17269TIP3    H273299   2.235   6.585  13.805 -2.2239  0.4038  0.3138
17270TIP3   OH273300   6.791   6.813   5.717 -0.1482 -0.6280 -0.0957
17270TIP3    H173301   6.860   6.803   5.652  1.1785 -1.6174  1.3923
17270TIP3    H273302   6.829   6.870   5.784 -0.7657 -1.1337  0.7106
17271TIP3   OH273303   4.440   5.626   1.301  0.1282  0.1915  0.3722
17271TIP3    H173304   4.383   5.684   1.250 -0.0391  0.7196  1.1503
17271TIP3    H273305   4.402   5.626   1.389  0.3556 -0.7910  0.4827
17272TIP3   OH273306   1.903   2.353   5.592 -0.0629  1.0082  0.5487
17272TIP3    H173307   1.842   2.425   5.608  0.3751  2.0009 -1.8730
17272TIP3    H273308   1.888   2.328   5.501  1.1945 -0.6307  0.7374
17273TIP3   OH273309   6.774   6.702  14.404  0.2165  0.2720 -0.5264
17273TIP3    H173310   6.711   6.755  14.355 -0.7101 -0.5300 -0.2372
17273TIP3    H273311   6.836   6.671  14.338  0.6122  1.4711 -0.7413
17274TIP3   OH273312   3.315   5.521   2.040  0.5647 -0.3067 -0.2445
17274TIP3    H173313   3.352   5.467   1.970  0.1851  2.6262 -2.9460
17274TIP3    H273314   3.391   5.559   2.084  0.8118 -2.3620  1.2331
17275TIP3   OH273315   6.186   2.452   2.224  0.1849 -0.3702 -0.7806
17275TIP3    H173316   6.130   2.529   2.221  1.0536  0.2466 -1.5750
17275TIP3    H273317   6.125   2.378   2.221 -0.6007  0.2870 -1.2218
17276TIP3   OH273318   4.762   2.116  15.684 -0.2500 -0.8214  0.7991
17276TIP3    H173319   4.806   2.051  15.628  0.2149  0.5311 -0.4555
17276TIP3    H273320   4.669   2.104  15.665 -0.0523  0.5158 -1.3925
17277TIP3   OH273321   0.611   5.255   3.573  0.0846 -0.0498 -0.4457
17277TIP3    H173322   0.625   5.183   3.634 -1.4328 -1.0265 -1.1962
17277TIP3    H273323   0.518   5.249   3.549  0.1037  1.6840 -1.1331
17278TIP3   OH273324   6.049   3.598   3.525  0.0291  0.0585  0.1653
17278TIP3    H173325   5.976   3.621   3.583 -0.4234 -2.5995  0.8186
17278TIP3    H273326   6.008   3.584   3.440 -0.2819 -1.4515  0.5361
17279TIP3   OH273327   4.081   6.088   0.130 -0.7958  0.0657  0.0844
17279TIP3    H173328   3.989   6.092   0.155 -1.3571 -0.4704 -1.7188
17279TIP3    H273329   4.087   6.145   0.053  0.4237  0.2242  0.2818
17280TIP3   OH273330   1.186   0.542  11.916 -0.3456 -0.0179 -0.1185
17280TIP3    H173331   1.194   0.449  11.933 -1.3828 -0.2409 -0.7426
17280TIP3    H273332   1.159   0.548  11.824  1.4704  0.9791 -0.6302
17281TIP3   OH273333   5.309   2.919  12.354  0.3769 -0.7265  0.2607
17281TIP3    H173334   5.265   2.871  12.424 -2.6335  2.5238  0.8367
17281TIP3    H273335   5.332   3.003  12.392  3.4861 -0.7168 -1.3071
17282TIP3   OH273336   6.814   6.322  14.246 -0.5652  0.4439  0.3280
17282TIP3    H173337   6.886   6.374  14.209 -0.9234  2.0055  1.7223
17282TIP3    H273338   6.826   6.235  14.208  0.3270  1.3974 -1.7562
17283TIP3   OH273339   6.249   6.590  14.304 -0.0732 -0.3453  0.1375
17283TIP3    H173340   6.216   6.589  14.215  1.1338  1.0571 -0.3701
17283TIP3    H273341   6.174   6.564  14.358 -1.4514  0.8962 -1.0885
17284TIP3   OH273342   3.059   5.008  16.572  0.3559  0.2269 -0.3960
17284TIP3    H173343   3.034   5.086  16.622  1.4114 -0.5338  1.4311
17284TIP3    H273344   3.048   5.033  16.480 -1.8692  1.6326  0.1841
17285TIP3   OH273345   1.147   3.954  12.402 -0.7588  0.1993  0.1612
17285TIP3    H173346   1.140   3.882  12.464  1.8141  0.5493  0.9797
17285TIP3    H273347   1.077   4.014  12.428 -0.0462  0.1270  2.5008
17286TIP3   OH273348   4.510   0.212   3.841  0.4147 -0.0356  0.5092
17286TIP3    H173349   4.454   0.154   3.894  1.1972 -0.1498  1.2285
17286TIP3    H273350   4.449   0.276   3.805 -0.3119 -0.6728  0.5736
17287TIP3   OH273351   0.751   4.861  12.753  0.3742  0.3962  0.7648
17287TIP3    H173352   0.753   4.801  12.679  0.0499  1.3795 -0.0755
17287TIP3    H273353   0.668   4.842  12.798  1.1353 -1.0401  1.6300
17288TIP3   OH273354   6.357   3.244   3.842 -0.0855  0.5099  0.1011
17288TIP3    H173355   6.273   3.277   3.811  0.3232  2.2132  0.6939
17288TIP3    H273356   6.336   3.164   3.890 -1.0854 -0.3432 -1.6449
17289TIP3   OH273357   6.554   6.021  14.078 -0.1243 -0.1159  0.2945
17289TIP3    H173358   6.578   5.955  14.142  0.0016 -1.3059 -0.9244
17289TIP3    H273359   6.496   5.974  14.017  1.2441  0.4235 -1.5106
17290TIP3   OH273360   1.976   6.468  14.373  0.1675 -0.7126 -0.4233
17290TIP3    H173361   1.986   6.443  14.465 -1.9626  0.4536  0.1911
17290TIP3    H273362   1.936   6.392  14.331 -0.6171 -0.5762  0.0620
17291TIP3   OH273363   1.710   3.973   4.024 -0.0116 -0.0231  0.1174
17291TIP3    H173364   1.638   4.033   4.009  0.5974  0.8387  0.5727
17291TIP3    H273365   1.697   3.902   3.961 -1.8470 -0.4338  0.9036
17292TIP3   OH273366   0.900   1.085  16.768 -0.1301  0.1089 -0.0402
17292TIP3    H173367   0.925   1.058  16.857  0.9504  1.4669  0.1003
17292TIP3    H273368   0.819   1.136  16.781  1.7002  3.1248  0.6934
17293TIP3   OH273369   6.397   0.865   3.045 -0.6093  0.0543 -0.0728
17293TIP3    H173370   6.391   0.908   3.130  1.0605 -0.0298  0.1221
17293TIP3    H273371   6.485   0.885   3.014 -1.8693  1.8623 -2.7918
17294TIP3   OH273372   5.772   4.090   3.016  0.1381  0.1389  0.2411
17294TIP3    H173373   5.686   4.050   3.026 -0.6243  1.3316 -1.1270
17294TIP3    H273374   5.788   4.090   2.921  0.8189  1.5568  0.3232
17295TIP3   OH273375   1.763   0.934  12.025 -0.2745 -0.2760  0.2107
17295TIP3    H173376   1.747   0.866  12.090 -0.4891 -1.0419 -0.6196
17295TIP3    H273377   1.850   0.967  12.046 -0.3348 -0.5220  0.8713
17296TIP3   OH273378   1.265   3.624  14.854  0.6263  0.2858 -0.0869
17296TIP3    H173379   1.256   3.604  14.947  1.9944  0.8789  0.1971
17296TIP3    H273380   1.199   3.692  14.838  1.6966  1.6535  0.9645
17297TIP3   OH273381   2.380   5.835   5.474  0.3555  0.3182  0.1264
17297TIP3    H173382   2.456   5.841   5.532  1.7838  3.2730 -1.7519
17297TIP3    H273383   2.386   5.748   5.434  1.2993 -0.4318  1.8067
17298TIP3   OH273384   0.696   0.593   5.998  0.0371 -0.3561 -0.0181
17298TIP3    H173385   0.632   0.617   5.930  0.1508  0.8011  0.2595
17298TIP3    H273386   0.656   0.520   6.044 -1.0030  0.2216  0.0174
17299TIP3   OH273387   4.265   6.273   0.744  0.1885  0.1844 -0.1742
17299TIP3    H173388   4.222   6.309   0.666 -0.1637 -0.1142 -0.1207
17299TIP3    H273389   4.194   6.230   0.792  0.3398  0.6525  0.4808
17300TIP3   OH273390   2.839   6.485   3.217  0.0313 -0.1375 -0.4736
17300TIP3    H173391   2.875   6.512   3.301 -1.4660  0.6410 -0.0422
17300TIP3    H273392   2.914   6.485   3.157  0.8520  0.7610  0.5184
17301TIP3   OH273393   1.516   3.138  12.563 -0.1891 -0.1696  0.1188
17301TIP3    H173394   1.456   3.075  12.522  1.2411 -1.8957  0.5563
17301TIP3    H273395   1.560   3.181  12.489 -2.3496  1.6167 -0.2327
17302TIP3   OH273396   6.058   1.933  11.088 -0.5125  0.2531 -0.3026
17302TIP3    H173397   6.030   1.863  11.147 -0.8439  0.6015 -0.0388
17302TIP3    H273398   6.153   1.933  11.093 -0.5151 -0.1435 -0.2603
17303TIP3   OH273399   5.412   2.968  15.274 -0.1254  0.0574  0.1749
17303TIP3    H173400   5.445   2.885  15.309 -1.9839 -0.6943  0.2725
17303TIP3    H273401   5.392   3.020  15.352 -1.1749 -0.3482  0.1973
17304TIP3   OH273402   0.411   3.438   1.005 -0.9581 -0.4036  0.3710
17304TIP3    H173403   0.319   3.415   0.991 -1.2439  1.1425 -0.5125
17304TIP3    H273404   0.420   3.525   0.967  1.2239 -1.1065 -0.9094
17305TIP3   OH273405   0.417   3.561  11.661  0.4258 -0.3234  0.1157
17305TIP3    H173406   0.322   3.562  11.674  0.6377  3.0979  2.7228
17305TIP3    H273407   0.428   3.555  11.566 -2.3818 -0.5574 -0.2815
17306TIP3   OH273408   4.271   3.486   4.689  0.2549 -0.7284  0.0272
17306TIP3    H173409   4.211   3.437   4.746  0.2575 -0.4147  0.3032
17306TIP3    H273410   4.312   3.550   4.747  1.8063 -1.7512  0.1222
17307TIP3   OH273411   3.332   0.267  14.211 -0.2637 -0.0662 -0.3474
17307TIP3    H173412   3.397   0.257  14.280 -0.3233  0.9918 -0.1189
17307TIP3    H273413   3.382   0.294  14.134 -0.4439  0.9984 -0.1043
17308TIP3   OH273414   4.288   2.303  16.428  0.1791  0.5605  0.7891
17308TIP3    H173415   4.239   2.236  16.380  0.5313  0.6161  0.3506
17308TIP3    H273416   4.374   2.304  16.387  0.0615  1.5452  0.5435
17309TIP3   OH273417   3.593   3.255   0.927  0.4598 -0.0766  0.4197
17309TIP3    H173418   3.511   3.305   0.919  0.3153 -0.1486  1.2731
17309TIP3    H273419   3.648   3.309   0.983  0.8582 -0.2020  0.1477
17310TIP3   OH273420   2.811   5.623   2.205  0.6067  0.0601 -0.1754
17310TIP3    H173421   2.903   5.633   2.232  0.9484 -1.4437 -0.6818
17310TIP3    H273422   2.760   5.652   2.281  1.4864  0.9717  0.0938
17311TIP3   OH273423   3.539   5.095  16.707 -0.4174 -0.4438  0.1868
17311TIP3    H173424   3.530   5.099  16.612 -0.2078  0.0098  0.1859
17311TIP3    H273425   3.490   5.171  16.739 -0.0485 -0.2983  0.4098
17312TIP3   OH273426   3.387   3.485   5.327  0.1447 -0.2863 -0.3039
17312TIP3    H173427   3.308   3.511   5.375  0.3436 -1.4086  0.6730
17312TIP3    H273428   3.459   3.511   5.383  0.4495 -0.0615 -0.7929
17313TIP3   OH273429   1.428   1.079  16.418  0.2126  0.3821  0.2748
17313TIP3    H173430   1.339   1.100  16.389  0.9915  1.4037 -1.5656
17313TIP3    H273431   1.465   1.163  16.442  1.0493  0.1280 -0.0998
17314TIP3   OH273432   3.092   6.116   0.689 -0.4510  0.1989  0.0359
17314TIP3    H173433   3.143   6.038   0.668  0.4772  0.9578 -0.6560
17314TIP3    H273434   3.083   6.162   0.605 -2.6393 -0.0967  0.0567
17315TIP3   OH273435   4.138   6.411  16.284  0.0444 -0.2441  0.0709
17315TIP3    H173436   4.164   6.386  16.196  0.2400  0.7068 -0.1508
17315TIP3    H273437   4.219   6.444  16.324 -0.0742 -0.5311  0.5589
17316TIP3   OH273438   4.631   6.159   5.680 -0.0056 -0.5158 -0.4337
17316TIP3    H173439   4.540   6.186   5.668 -0.2728 -1.1181  0.1387
17316TIP3    H273440   4.663   6.212   5.753  0.6544  0.9277 -1.7250
17317TIP3   OH273441   4.566   1.285   4.067 -0.1592 -0.4059  0.3185
17317TIP3    H173442   4.642   1.341   4.083 -0.2237 -0.5346  1.1130
17317TIP3    H273443   4.499   1.318   4.127 -0.2108 -1.3041  0.7762
17318TIP3   OH273444   0.233   4.528  12.318 -0.1550  0.1176  0.6514
17318TIP3    H173445   0.144   4.561  12.319 -0.5420 -0.8800  0.2638
17318TIP3    H273446   0.247   4.493  12.407 -0.9549 -1.7335  0.1014
17319TIP3   OH273447   3.135   6.021  14.423  0.0741  0.6133  0.2524
17319TIP3    H173448   3.175   6.025  14.336 -0.8434 -1.5863 -0.3626
17319TIP3    H273449   3.204   6.048  14.483  0.4948  2.9859 -1.1775
17320TIP3   OH273450   2.003   4.924  15.254 -0.5937 -0.0702  0.4301
17320TIP3    H173451   1.947   4.872  15.197 -1.4947  0.8270  0.4737
17320TIP3    H273452   1.995   5.013  15.221  3.8148 -0.2850 -2.0607
17321TIP3   OH273453   5.075   1.637   5.016 -0.1218 -0.0589  0.1046
17321TIP3    H173454   5.095   1.698   5.087 -0.9351 -1.9862  2.1409
17321TIP3    H273455   5.144   1.570   5.022 -0.1179 -0.1812 -1.0535
17322TIP3   OH273456   1.352   5.995  17.041 -0.1060  0.6727 -0.7909
17322TIP3    H173457   1.324   5.904  17.035 -0.2995  0.4435  2.2296
17322TIP3    H273458   1.289   6.043  16.986 -0.9959 -0.8075 -1.1206
17323TIP3   OH273459   2.845   5.829  12.894 -0.7974 -0.9398 -0.1472
17323TIP3    H173460   2.820   5.883  12.968  0.3361  0.5207 -0.7725
17323TIP3    H273461   2.766   5.822  12.841 -1.3808 -1.2714  0.7394
17324TIP3   OH273462   0.647   3.109   6.096 -0.2235  0.1882 -0.5355
17324TIP3    H173463   0.731   3.064   6.099 -0.5863 -0.4648  0.8126
17324TIP3    H273464   0.583   3.039   6.082 -0.7557  0.2978  1.1353
17325TIP3   OH273465   0.835   0.722  14.225 -0.3872 -0.9008 -0.0457
17325TIP3    H173466   0.838   0.674  14.143  0.9119 -0.2910 -0.3780
17325TIP3    H273467   0.894   0.673  14.284 -0.2678 -0.5927  0.0946
17326TIP3   OH273468   2.944   6.255   4.978 -0.4036 -0.1060  0.4612
17326TIP3    H173469   2.978   6.231   5.064  1.2055  1.1273  0.2108
17326TIP3    H273470   3.008   6.316   4.942 -1.5073  0.1413 -1.2393
17327TIP3   OH273471   0.137   6.026  16.964  0.4030 -0.1204  0.1515
17327TIP3    H173472   0.062   6.035  17.022 -0.0330  0.1160 -0.4324
17327TIP3    H273473   0.161   5.934  16.968  1.6033  0.2156  2.1722
17328TIP3   OH273474   5.491   3.123   2.445  0.0504 -0.6500  0.6174
17328TIP3    H173475   5.469   3.057   2.379 -1.1402  0.0202  0.3117
17328TIP3    H273476   5.515   3.073   2.522  0.7946 -1.4482 -0.1144
17329TIP3   OH273477   4.163   2.856   6.201  0.1598  0.3421 -0.5019
17329TIP3    H173478   4.234   2.852   6.137  0.4901 -1.8796 -0.0533
17329TIP3    H273479   4.087   2.821   6.155 -0.0517  0.4587 -0.2402
17330TIP3   OH273480   1.084   4.205  11.356 -0.4086  0.1787  0.7284
17330TIP3    H173481   0.992   4.188  11.377 -0.1527 -1.8760  0.3780
17330TIP3    H273482   1.126   4.119  11.362  1.7179  1.2343  1.9205
17331TIP3   OH273483   0.533   4.842   3.152  0.5394  0.4225  0.3847
17331TIP3    H173484   0.564   4.777   3.214 -0.8292 -0.7479 -0.1047
17331TIP3    H273485   0.475   4.899   3.202 -1.4720 -1.2067 -0.0071
17332TIP3   OH273486   5.923   4.938  16.267 -0.8872  0.4750  0.3437
17332TIP3    H173487   5.964   4.982  16.193 -1.4929  1.5717  0.6435
17332TIP3    H273488   5.978   4.862  16.283  1.0402  1.8801  0.7098
17333TIP3   OH273489   4.234   4.995  14.774  0.2707  0.5279 -0.4650
17333TIP3    H173490   4.272   5.061  14.717  0.3954  0.5224 -0.3899
17333TIP3    H273491   4.201   5.044  14.849  0.6683  0.4733 -0.2478
17334TIP3   OH273492   4.302   0.367   3.755 -0.2744 -0.5198 -0.1650
17334TIP3    H173493   4.223   0.366   3.809 -1.5219 -0.9992 -1.8868
17334TIP3    H273494   4.291   0.443   3.698  1.1839  0.1913  0.4465
17335TIP3   OH273495   0.876   2.013   4.772 -0.4762  0.0310 -0.2100
17335TIP3    H173496   0.832   1.944   4.722 -0.1543 -1.4938  1.5106
17335TIP3    H273497   0.954   2.034   4.719 -1.9334  1.0501 -2.0701
17336TIP3   OH273498   2.483   4.727  11.472  0.4266 -0.0273  0.1039
17336TIP3    H173499   2.434   4.775  11.539 -1.2531 -0.4399 -0.7777
17336TIP3    H273500   2.574   4.756  11.484  0.1343  0.1933  2.2909
17337TIP3   OH273501   1.246   3.844   4.570  0.0004 -0.3493 -0.1621
17337TIP3    H173502   1.174   3.797   4.527 -0.1705  0.1893 -0.4674
17337TIP3    H273503   1.202   3.900   4.634  0.2044 -0.5877  0.1912
17338TIP3   OH273504   4.177   3.100  13.779  0.0060 -0.7174 -0.3888
17338TIP3    H173505   4.114   3.038  13.816 -0.3361 -0.5917 -0.7470
17338TIP3    H273506   4.133   3.135  13.702  0.4046 -0.4114 -0.4813
17339TIP3   OH273507   1.371   4.529  11.965 -0.0274 -0.4171  0.3827
17339TIP3    H173508   1.462   4.554  11.952 -0.0606 -0.3149  0.3500
17339TIP3    H273509   1.324   4.571  11.893 -0.4488  1.4062  1.6800
17340TIP3   OH273510   5.620   3.861  16.892  0.3073 -0.5095  0.2405
17340TIP3    H173511   5.641   3.860  16.799  0.0093  0.0614  0.1562
17340TIP3    H273512   5.662   3.940  16.925 -0.1431 -0.3498  0.4480
17341TIP3   OH273513   6.338   1.274  14.062  0.1032  0.2237  0.0801
17341TIP3    H173514   6.316   1.263  14.154 -1.9492  1.9520 -0.1255
17341TIP3    H273515   6.259   1.311  14.023  1.1723  0.2227 -2.2411
17342TIP3   OH273516   2.760   5.204  15.213  0.9600  0.2580 -0.6017
17342TIP3    H173517   2.707   5.191  15.135 -0.9092 -1.0354  0.7933
17342TIP3    H273518   2.737   5.292  15.243  0.9071  0.3565 -0.9256
17343TIP3   OH273519   5.236   1.127   4.033  0.6427 -0.4573  0.0450
17343TIP3    H173520   5.293   1.171   3.970 -0.5796  0.7927 -0.2196
17343TIP3    H273521   5.175   1.077   3.979  0.5350 -0.5862  0.2850
17344TIP3   OH273522   5.866   3.554  12.170  0.5781 -0.0174  0.2736
17344TIP3    H173523   5.855   3.572  12.263  0.6156  0.3554  0.2100
17344TIP3    H273524   5.869   3.641  12.129  1.9429 -0.1357  0.0823
17345TIP3   OH273525   0.338   0.607   4.378  0.7674  0.1400 -0.1629
17345TIP3    H173526   0.335   0.672   4.308 -0.5023 -0.9776 -1.2013
17345TIP3    H273527   0.419   0.558   4.363  0.9497  0.4836 -0.3070
17346TIP3   OH273528   5.857   2.486  15.153 -0.5306  0.1308 -0.4256
17346TIP3    H173529   5.888   2.511  15.066 -1.1891  0.2440 -0.6286
17346TIP3    H273530   5.764   2.510  15.154 -0.6752 -0.4284  0.0967
17347TIP3   OH273531   3.851   6.140   3.803  0.1567 -0.1736 -0.3894
17347TIP3    H173532   3.894   6.215   3.843 -0.3960 -0.1169  0.1144
17347TIP3    H273533   3.782   6.178   3.749  1.4394 -0.2077 -2.1022
17348TIP3   OH273534   0.392   4.375  11.545 -0.4934 -0.9144 -0.3069
17348TIP3    H173535   0.348   4.346  11.625 -0.5378  0.5755  0.2369
17348TIP3    H273536   0.449   4.301  11.521 -0.7339 -1.5152  0.9064
17349TIP3   OH273537   3.350   1.041  17.071  0.5740 -0.1145  0.2094
17349TIP3    H173538   3.309   1.096  17.138 -0.3661 -0.3155 -0.1772
17349TIP3    H273539   3.423   0.999  17.116  0.0530 -0.1289  1.0780
17350TIP3   OH273540   5.569   3.458  14.501 -0.6585 -0.3577 -0.1366
17350TIP3    H173541   5.575   3.413  14.585 -0.0928  0.1376  0.0960
17350TIP3    H273542   5.560   3.551  14.523 -0.5870 -0.2292 -0.6177
17351TIP3   OH273543   4.103   3.322   1.697 -0.2443 -0.3991  0.4583
17351TIP3    H173544   4.169   3.368   1.646 -0.0278 -1.5249 -0.3137
17351TIP3    H273545   4.120   3.229   1.680 -2.5956 -0.7202 -0.5583
17352TIP3   OH273546   0.007   0.460   0.782  0.2153 -0.2609  0.1664
17352TIP3    H173547   0.052   0.385   0.744 -0.9138 -1.0861  0.4031
17352TIP3    H273548   0.009   0.527   0.714 -1.1271 -1.4473 -1.0858
17353TIP3   OH273549   1.416   0.106  14.261 -0.0928 -0.4809  0.2769
17353TIP3    H173550   1.438   0.192  14.225  2.2509 -1.0897  0.0824
17353TIP3    H273551   1.380   0.058  14.188 -1.3272  0.2797  0.3614
17354TIP3   OH273552   6.188   0.109  11.483  0.2190  0.2067  0.2144
17354TIP3    H173553   6.217   0.092  11.393  1.5788 -0.6892  0.8044
17354TIP3    H273554   6.242   0.182  11.512  0.3135 -0.0020  0.5635
17355TIP3   OH273555   2.289   0.572  15.073  0.1204  0.2526  0.3571
17355TIP3    H173556   2.361   0.526  15.030  0.8727  1.5680  0.1690
17355TIP3    H273557   2.317   0.583  15.164  0.5297  1.4728  0.0991
17356TIP3   OH273558   5.426   0.431  15.582 -0.1346  0.2960 -0.2164
17356TIP3    H173559   5.494   0.443  15.648 -1.0554 -0.2746  0.8495
17356TIP3    H273560   5.465   0.369  15.520 -0.1255 -1.0289  1.0639
17357TIP3   OH273561   1.453   5.136   2.158 -0.0890 -0.2348 -0.4315
17357TIP3    H173562   1.359   5.149   2.163 -0.3486 -1.7486 -0.9438
17357TIP3    H273563   1.472   5.132   2.064  0.6735  1.2137 -0.3592
17358TIP3   OH273564   3.758   5.410  16.769 -0.3345  0.2363 -0.1645
17358TIP3    H173565   3.835   5.400  16.826  1.1359 -0.2228 -2.1178
17358TIP3    H273566   3.694   5.350  16.806 -0.1689  1.3040  2.0785
17359TIP3   OH273567   1.151   5.159   4.473 -0.0189  0.4853 -0.2279
17359TIP3    H173568   1.197   5.109   4.406  0.2481  0.3139  0.0797
17359TIP3    H273569   1.156   5.104   4.552  0.7963  1.2481  0.2784
17360TIP3   OH273570   6.609   4.148  11.629  0.5196  0.1619 -0.2770
17360TIP3    H173571   6.593   4.184  11.542  1.4326  0.5294 -0.3047
17360TIP3    H273572   6.662   4.214  11.674  0.9207 -0.4684  0.2052
17361TIP3   OH273573   1.002   6.775  11.258  0.4416  0.2946 -0.4801
17361TIP3    H173574   0.913   6.750  11.286  0.0916  0.0989 -1.6951
17361TIP3    H273575   1.053   6.694  11.269  0.8059  0.7384  1.4256
17362TIP3   OH273576   5.299   4.938   4.589  0.0085  1.0074  0.1901
17362TIP3    H173577   5.252   4.923   4.507 -1.0952  0.7387  0.8528
17362TIP3    H273578   5.371   4.996   4.565 -1.2530  2.2867 -0.6963
17363TIP3   OH273579   5.934   2.196  13.787  0.5044  0.2254  0.2225
17363TIP3    H173580   5.960   2.125  13.730 -1.5458 -0.7107  0.3475
17363TIP3    H273581   5.987   2.186  13.866  0.4334 -1.0179  0.1237
17364TIP3   OH273582   4.152   6.416   3.008  0.2456 -0.0725 -0.4562
17364TIP3    H173583   4.203   6.339   2.985  1.0431  0.6213 -1.1006
17364TIP3    H273584   4.184   6.442   3.095 -0.2216 -0.6143 -0.1154
17365TIP3   OH273585   4.597   2.559   4.299  0.2756  0.1732  0.2288
17365TIP3    H173586   4.658   2.509   4.245 -1.8219 -0.3889 -1.7980
17365TIP3    H273587   4.602   2.648   4.265 -1.8680 -0.3966 -1.8752
17366TIP3   OH273588   3.425   5.526  14.858  0.5512  0.2915  0.1808
17366TIP3    H173589   3.352   5.465  14.847 -0.1390  1.1645 -0.2198
17366TIP3    H273590   3.451   5.517  14.950  2.0032 -2.2735 -0.3811
17367TIP3   OH273591   5.812   2.373   1.730  0.3236  0.5561 -0.2062
17367TIP3    H173592   5.840   2.406   1.816  0.7104 -1.6324  0.5872
17367TIP3    H273593   5.887   2.322   1.699 -0.5255 -0.3081 -0.9174
17368TIP3   OH273594   5.412   4.110   2.556  0.0585  0.7002 -0.3096
17368TIP3    H173595   5.330   4.065   2.534 -0.2847  1.4059 -0.4919
17368TIP3    H273596   5.460   4.114   2.474  0.3378  0.1781 -0.1778
17369TIP3   OH273597   6.191   4.627  12.863 -0.4480  0.0340 -0.0676
17369TIP3    H173598   6.188   4.539  12.901 -0.8094  0.2285  0.3591
17369TIP3    H273599   6.154   4.684  12.930  0.7583  0.6664  0.0815
17370TIP3   OH273600   3.714   6.132   0.456  0.2304 -0.1846  0.4823
17370TIP3    H173601   3.654   6.175   0.395  1.0226 -0.4814 -0.5359
17370TIP3    H273602   3.747   6.204   0.510 -1.2915 -0.0636  1.3236
17371TIP3   OH273603   3.338   0.482   0.417  0.0370 -0.0387 -0.2508
17371TIP3    H173604   3.367   0.404   0.463  0.0928  0.1154 -0.0204
17371TIP3    H273605   3.347   0.553   0.482 -2.6201 -0.2620  0.5036
17372TIP3   OH273606   4.813   3.604  11.497 -0.1691 -0.5060 -0.4082
17372TIP3    H173607   4.718   3.614  11.487 -0.1197 -0.8901 -1.3955
17372TIP3    H273608   4.850   3.686  11.463 -0.2080  0.7161  2.2542
17373TIP3   OH273609   6.717   2.760   4.391 -0.3442  0.2451 -0.4438
17373TIP3    H173610   6.678   2.829   4.444 -0.5068  1.1851 -1.7393
17373TIP3    H273611   6.703   2.680   4.441 -0.1545  1.1435  1.0895
17374TIP3   OH273612   4.250   0.932  16.397  0.2388  0.3561  0.1014
17374TIP3    H173613   4.300   0.999  16.445  1.6743  0.6712 -1.7225
17374TIP3    H273614   4.312   0.860  16.386 -1.3741 -1.4872  2.2755
17375TIP3   OH273615   0.547   3.071  14.619  0.4881  0.1032  0.6456
17375TIP3    H173616   0.541   3.117  14.703  3.9222  1.8357  0.1257
17375TIP3    H273617   0.477   3.110  14.566  0.0253  0.9652  1.8363
17376TIP3   OH273618   3.203   5.386  14.777 -0.0980 -0.0555  0.2865
17376TIP3    H173619   3.134   5.447  14.753 -1.4464 -1.2117  1.0168
17376TIP3    H273620   3.158   5.318  14.828  1.7546 -0.2994  1.7397
17377TIP3   OH273621   0.133   0.725   0.215  0.0117 -0.2719  0.6238
17377TIP3    H173622   0.218   0.758   0.185  0.1926 -0.1268  1.2746
17377TIP3    H273623   0.085   0.804   0.241 -0.9410 -0.1846 -1.2161
17378TIP3   OH273624   6.470   5.195   2.424 -0.0156 -0.1688 -0.5661
17378TIP3    H173625   6.471   5.276   2.374 -0.2479 -0.4914 -1.1040
17378TIP3    H273626   6.557   5.158   2.411  0.3825  0.3969  0.3692
17379TIP3   OH273627   1.783   3.970  11.297  0.7419  0.0132  0.0263
17379TIP3    H173628   1.782   4.059  11.263  1.3019  0.7341  1.8014
17379TIP3    H273629   1.876   3.949  11.307  0.6050  0.2437  2.0800
17380TIP3   OH273630   4.448   2.092  14.937 -0.3030  0.2749 -0.3110
17380TIP3    H173631   4.536   2.055  14.951 -0.3204  0.0308 -0.8277
17380TIP3    H273632   4.390   2.016  14.940 -0.6539  0.5642  1.2431
17381TIP3   OH273633   4.539   3.997  11.605  0.1889  0.5149 -0.3399
17381TIP3    H173634   4.520   3.907  11.629 -0.2932  0.9910  1.1545
17381TIP3    H273635   4.635   4.002  11.602  0.2185 -0.3539 -1.7702
17382TIP3   OH273636   1.686   6.222   0.037  0.1171  0.0355 -0.7481
17382TIP3    H173637   1.757   6.191  -0.018  0.0988  1.8951 -1.8731
17382TIP3    H273638   1.612   6.232  -0.022 -0.2602  0.8908 -0.1468
17383TIP3   OH273639   1.160   0.867  17.094  0.4295 -0.3225  0.0265
17383TIP3    H173640   1.074   0.875  17.052  0.3823 -2.2320 -0.3042
17383TIP3    H273641   1.178   0.773  17.096  1.7934 -0.0801  1.5746
17384TIP3   OH273642   5.275   2.170   0.471  0.0330  0.3751 -0.2778
17384TIP3    H173643   5.259   2.204   0.383  1.6060  0.9227 -0.3987
17384TIP3    H273644   5.364   2.135   0.467 -0.5839 -1.4088  0.5864
17385TIP3   OH273645   6.784   2.360   1.156 -1.0607 -0.0621  0.3491
17385TIP3    H173646   6.719   2.290   1.144  0.9187 -2.2436  1.3804
17385TIP3    H273647   6.782   2.380   1.249  0.3526 -0.9012  0.6013
17386TIP3   OH273648   5.058   5.953  10.507 -0.4308  0.0652 -0.7711
17386TIP3    H173649   5.093   5.973  10.594 -1.2949  0.3889 -0.4973
17386TIP3    H273650   5.123   5.893  10.469 -0.1756 -0.2885  0.1948
17387TIP3   OH273651   1.527   1.311   4.734  0.7388  0.9161 -0.3381
17387TIP3    H173652   1.502   1.308   4.642 -1.0746 -1.4357  0.1548
17387TIP3    H273653   1.623   1.317   4.733  0.8602 -0.5226 -2.3925
17388TIP3   OH273654   5.881   3.336   3.839  0.1379  0.0808  0.1319
17388TIP3    H173655   5.864   3.252   3.881  1.3782  0.5614  1.7251
17388TIP3    H273656   5.868   3.320   3.746 -0.6891 -1.5894  0.4948
17389TIP3   OH273657   5.123   2.274  11.234 -0.3600 -0.2623 -0.0489
17389TIP3    H173658   5.096   2.256  11.324  0.1015 -0.9369 -0.0339
17389TIP3    H273659   5.041   2.279  11.185 -0.8805  3.4140  0.9193
17390TIP3   OH273660   3.676   5.157  12.138  0.5514  0.4605 -0.0459
17390TIP3    H173661   3.738   5.218  12.178  0.5492  0.9023 -0.6887
17390TIP3    H273662   3.631   5.209  12.071 -1.2230  0.4274  1.0602
17391TIP3   OH273663   1.855   0.596   1.897 -0.2969  0.1780  0.5811
17391TIP3    H173664   1.787   0.570   1.834  0.1460  1.5613 -0.5084
17391TIP3    H273665   1.899   0.514   1.919 -1.2407 -0.5091  0.0107
17392TIP3   OH273666   5.746   1.238  12.450  0.0181 -0.0642 -0.6902
17392TIP3    H173667   5.819   1.277  12.401  2.3041 -1.8539  1.1135
17392TIP3    H273668   5.708   1.174  12.389  1.8800 -1.2124 -0.7229
17393TIP3   OH273669   6.418   0.942  15.375 -0.5877 -0.0516 -0.3172
17393TIP3    H173670   6.478   0.917  15.445  0.3300 -0.1663 -1.1315
17393TIP3    H273671   6.347   0.989  15.420  0.1384  0.1454  0.6480
17394TIP3   OH273672   6.643   3.383  13.956 -0.5036 -0.0105 -0.2668
17394TIP3    H173673   6.722   3.425  13.921 -0.7036 -0.0927 -0.8236
17394TIP3    H273674   6.631   3.305  13.901 -1.0838  0.1108 -0.3134
17395TIP3   OH273675   5.048   2.018  12.625 -0.1171  0.3933  0.2003
17395TIP3    H173676   5.107   2.076  12.674 -0.4035  0.0439  0.9738
17395TIP3    H273677   5.107   1.959  12.577  0.2470 -1.6137  2.9186
17396TIP3   OH273678   2.854   1.092  12.434  0.1934 -0.1200 -1.0905
17396TIP3    H173679   2.927   1.101  12.373  0.2250  0.6320 -0.9604
17396TIP3    H273680   2.826   1.182  12.450  0.0162 -0.3245 -0.2023
17397TIP3   OH273681   5.682   1.050  11.786 -0.2900 -0.2468 -0.1033
17397TIP3    H173682   5.673   1.099  11.704  0.0854 -0.8375 -0.5053
17397TIP3    H273683   5.675   0.958  11.760 -0.5178 -0.4239  0.5777
17398TIP3   OH273684   3.944   5.691  15.136  0.5746 -0.4586 -0.0799
17398TIP3    H173685   3.969   5.613  15.185  0.4788  0.5554  1.6965
17398TIP3    H273686   3.852   5.677  15.113  0.5715 -0.8911  0.1894
17399TIP3   OH273687   0.276   3.450   5.006  0.2976  0.1855  0.1065
17399TIP3    H173688   0.202   3.487   5.053  0.3297  1.3794 -0.7241
17399TIP3    H273689   0.271   3.489   4.919 -0.0011 -2.2780 -1.0548
17400TIP3   OH273690   3.218   1.872  15.227  0.3638 -0.1533  0.5004
17400TIP3    H173691   3.292   1.813  15.241  0.7415 -0.1819 -1.2856
17400TIP3    H273692   3.256   1.948  15.183 -0.5796  0.0553  0.0084
17401TIP3   OH273693   5.458   3.276  11.049 -0.3362  0.2255  0.5459
17401TIP3    H173694   5.364   3.262  11.040  0.1173 -2.7427 -0.6127
17401TIP3    H273695   5.477   3.258  11.141 -1.0578  2.5352  1.2152
17402TIP3   OH273696   5.693   1.723  13.469  0.1038  0.2184  0.3551
17402TIP3    H173697   5.676   1.802  13.520 -1.0732  1.0347 -1.2048
17402TIP3    H273698   5.782   1.735  13.436 -0.1810  1.0810 -0.1431
17403TIP3   OH273699   4.546   4.341  11.946 -0.0450  0.2100 -0.3253
17403TIP3    H173700   4.610   4.269  11.947 -1.2358 -0.9029 -1.2417
17403TIP3    H273701   4.518   4.348  12.037  1.2294  0.6021  0.0635
17404TIP3   OH273702   6.629   6.031  14.522  0.6914 -0.5563 -0.0759
17404TIP3    H173703   6.695   5.975  14.482  1.0822 -2.5403  3.0142
17404TIP3    H273704   6.614   5.993  14.608 -3.5890  0.5757 -0.1126
17405TIP3   OH273705   3.685   2.026  12.351 -0.4573 -0.2248 -0.4994
17405TIP3    H173706   3.690   2.113  12.389 -1.5011 -0.4604  0.2340
17405TIP3    H273707   3.663   2.041  12.259 -0.9784  0.2901 -0.2993
17406TIP3   OH273708   3.563   2.011  12.046  0.1694  0.0123  0.1206
17406TIP3    H173709   3.482   2.050  12.078  0.5627  0.0942  1.0460
17406TIP3    H273710   3.588   2.065  11.971 -0.1120  0.5812  0.4319
17407TIP3   OH273711   1.947   2.901   0.269  0.0881  0.2110 -0.6342
17407TIP3    H173712   1.991   2.882   0.187  1.6314 -0.3305  0.2681
17407TIP3    H273713   1.959   2.822   0.322 -1.5461  0.2485 -0.1473
17408TIP3   OH273714   0.653   5.849   6.667  0.7013  0.2823  0.7335
17408TIP3    H173715   0.732   5.796   6.681  1.0171  0.7810  0.8870
17408TIP3    H273716   0.605   5.844   6.750 -0.8106 -2.2065 -0.1731
17409TIP3   OH273717   0.822   6.562  14.125  0.1842  0.2415 -0.3479
17409TIP3    H173718   0.887   6.592  14.061 -0.8446  0.5806 -1.2749
17409TIP3    H273719   0.861   6.484  14.164  1.9108  1.4165  0.4323
17410TIP3   OH273720   5.701   5.813  14.986 -0.2367 -0.0471  0.1268
17410TIP3    H173721   5.669   5.855  15.066  1.6143 -0.1500  0.9558
17410TIP3    H273722   5.729   5.885  14.930  0.1086 -0.0469  0.2992
17411TIP3   OH273723   1.176   4.992  13.865  0.1037 -0.4132  0.6428
17411TIP3    H173724   1.185   5.057  13.795 -0.0868 -0.0714  0.9312
17411TIP3    H273725   1.083   4.971  13.867  0.3124 -1.5141 -0.1661
17412TIP3   OH273726   3.669   1.644  13.929  0.7581 -0.3261  0.1099
17412TIP3    H173727   3.732   1.714  13.946  1.8023 -0.9872 -0.8845
17412TIP3    H273728   3.724   1.569  13.906 -0.3855 -1.1314 -0.0228
17413TIP3   OH273729   3.712   1.666   2.709  0.3481  0.3749 -0.6306
17413TIP3    H173730   3.776   1.621   2.653 -0.3015  0.6563 -1.6137
17413TIP3    H273731   3.705   1.754   2.671 -0.3094  0.4790 -0.2728
17414TIP3   OH273732   5.781   2.560   2.002  0.1362 -0.4316  0.2355
17414TIP3    H173733   5.754   2.606   1.923 -0.1322 -2.5478 -0.9566
17414TIP3    H273734   5.855   2.611   2.035  0.5950  0.1935 -1.6623
17415TIP3   OH273735   5.244   2.679   4.602 -0.3023  0.0128  0.0752
17415TIP3    H173736   5.202   2.737   4.665 -1.3801  0.9128 -1.4115
17415TIP3    H273737   5.337   2.697   4.610 -0.2182 -1.1655  2.6143
17416TIP3   OH273738   5.492   5.215   1.342 -0.2233 -0.3392  0.2737
17416TIP3    H173739   5.565   5.178   1.392 -0.3972 -1.3156 -0.1712
17416TIP3    H273740   5.416   5.204   1.398 -0.5561 -2.1183 -0.4428
17417TIP3   OH273741   2.390   2.164  16.827  0.1926 -0.0242 -0.2110
17417TIP3    H173742   2.385   2.119  16.911 -0.7598 -1.2471 -0.9027
17417TIP3    H273743   2.480   2.151  16.797  0.0753 -1.0086 -0.1474
17418TIP3   OH273744   4.554   3.032   4.510  0.4595  0.0644 -0.4555
17418TIP3    H173745   4.608   2.966   4.466 -0.0177  0.3323 -1.4780
17418TIP3    H273746   4.509   3.077   4.439  0.3227  1.0991  0.2712
17419TIP3   OH273747   6.831   2.436   1.761  0.0328 -0.3756 -0.3291
17419TIP3    H173748   6.856   2.527   1.744  0.2939 -0.6880 -1.7530
17419TIP3    H273749   6.781   2.439   1.842 -0.0746  1.0597 -0.4329
17420TIP3   OH273750   4.830   5.138  15.708  0.2992 -0.0040 -0.2886
17420TIP3    H173751   4.818   5.232  15.694  1.6036  0.1357 -0.6117
17420TIP3    H273752   4.741   5.103  15.713 -0.2345  1.3887  0.8674
17421TIP3   OH273753   3.525   5.183  16.453  0.7488  0.0069 -1.0148
17421TIP3    H173754   3.610   5.224  16.471 -0.7034  2.0058  2.0307
17421TIP3    H273755   3.490   5.231  16.378  1.1509  1.0694 -0.5378
17422TIP3   OH273756   4.363   6.072  15.838 -0.2914  0.6250  0.0552
17422TIP3    H173757   4.321   6.142  15.888 -1.2442  0.1982 -0.1225
17422TIP3    H273758   4.343   5.992  15.888  1.2650  0.5240  0.5679
17423TIP3   OH273759   2.117   1.520  14.184 -0.6623  0.1567  0.1615
17423TIP3    H173760   2.187   1.455  14.194 -0.5089  0.5156  1.7808
17423TIP3    H273761   2.040   1.478  14.223 -0.7687  0.6115  0.4550
17424TIP3   OH273762   0.801   2.267  13.732 -0.2727 -0.0257 -0.0700
17424TIP3    H173763   0.785   2.347  13.783  0.6850  1.7896 -2.4168
17424TIP3    H273764   0.891   2.244  13.751 -0.1724  0.1707 -0.3012
17425TIP3   OH273765   5.676   2.080   4.320  0.0156 -0.4484  0.2552
17425TIP3    H173766   5.761   2.047   4.349 -0.3521 -0.9809  0.7318
17425TIP3    H273767   5.698   2.155   4.264  0.9087 -1.9977 -1.5872
17426TIP3   OH273768   2.424   1.381   5.101  0.2769  0.0847 -0.4300
17426TIP3    H173769   2.519   1.375   5.115  0.2866 -1.4064 -0.8481
17426TIP3    H273770   2.386   1.380   5.189  0.5632 -3.0029 -0.2011
17427TIP3   OH273771   4.972   1.956   5.167  0.1416 -0.5341 -0.1480
17427TIP3    H173772   4.910   2.022   5.136  0.0128 -1.0049 -0.9061
17427TIP3    H273773   4.924   1.907   5.233  0.8296  1.3100  1.8595
17428TIP3   OH273774   5.800   1.140   0.099 -0.6112 -1.3429 -0.5930
17428TIP3    H173775   5.725   1.189   0.133 -2.0806 -2.3592 -2.2142
17428TIP3    H273776   5.780   1.048   0.120  0.3084 -1.6012 -0.8041
17429TIP3   OH273777   1.116   1.282  16.091  0.4247 -0.2301 -0.3960
17429TIP3    H173778   1.128   1.221  16.019 -0.0698  0.2581 -0.9040
17429TIP3    H273779   1.203   1.290  16.131  0.9076  0.1706 -1.4906
17430TIP3   OH273780   1.274   5.920  16.367  0.6699  0.2046 -0.0564
17430TIP3    H173781   1.278   5.959  16.280  0.8334  0.8691  0.2373
17430TIP3    H273782   1.350   5.955  16.413 -0.0489  0.7996  0.7181
17431TIP3   OH273783   0.610   0.094  10.701  0.4736  0.1193 -0.3159
17431TIP3    H173784   0.571   0.162  10.645  1.4283  1.1440  0.2214
17431TIP3    H273785   0.553   0.018  10.689 -1.6927  1.5335  0.4279
17432TIP3   OH273786   3.649   0.588   1.276 -0.0376 -0.0612 -0.0161
17432TIP3    H173787   3.613   0.675   1.295 -0.2428  0.1366 -1.1856
17432TIP3    H273788   3.576   0.528   1.289 -0.1146  0.0397  0.0204
17433TIP3   OH273789   5.218   3.008   2.912 -0.0736  0.5685  0.3912
17433TIP3    H173790   5.134   3.054   2.914 -0.3579  0.1144 -0.5129
17433TIP3    H273791   5.252   3.017   3.001 -0.6611  1.5206  0.5357
17434TIP3   OH273792   0.435   6.600   4.462 -0.7098 -0.1799  0.0927
17434TIP3    H173793   0.341   6.585   4.463 -0.5179 -1.5141  1.2340
17434TIP3    H273794   0.474   6.514   4.482  0.7056  0.5497  0.6512
17435TIP3   OH273795   1.020   0.110   4.049 -0.3264  0.0304  0.0867
17435TIP3    H173796   0.954   0.073   4.107 -1.2664  1.1606 -0.2248
17435TIP3    H273797   1.097   0.123   4.106 -0.2535 -1.5302  0.3866
17436TIP3   OH273798   2.090   3.642   3.489  0.1934 -0.1530  0.4728
17436TIP3    H173799   2.095   3.702   3.563 -2.4242 -0.9816  1.4474
17436TIP3    H273800   2.179   3.609   3.478  1.5396  3.1288  0.4692
17437TIP3   OH273801   2.798   2.155   0.207  0.3084  0.2597  0.5838
17437TIP3    H173802   2.760   2.212   0.140 -0.6021  1.0366  1.7178
17437TIP3    H273803   2.832   2.080   0.158 -0.8167  0.5427 -0.6917
17438TIP3   OH273804   4.873   4.294  14.078 -0.0090  0.3525  0.4667
17438TIP3    H173805   4.885   4.235  14.152  2.1180 -0.9112 -0.7895
17438TIP3    H273806   4.950   4.279  14.023 -0.1350  3.2260 -0.6642
17439TIP3   OH273807   4.028   0.613  12.272  0.7120  0.0383 -0.1400
17439TIP3    H173808   3.957   0.675  12.260  0.9483  0.2312 -0.5842
17439TIP3    H273809   4.105   0.656  12.233  1.3456  0.3292  1.3825
17440TIP3   OH273810   2.231   5.970  16.887 -0.2512  0.5534 -0.2152
17440TIP3    H173811   2.227   5.978  16.792 -0.3449  0.1114 -0.2507
17440TIP3    H273812   2.238   6.060  16.919 -1.3267  0.7825 -0.5891
17441TIP3   OH273813   6.316   5.319  11.185 -0.1567  0.5878 -0.0024
17441TIP3    H173814   6.354   5.405  11.168 -0.2189  0.7178  0.4878
17441TIP3    H273815   6.391   5.264  11.206  0.0726  0.0776 -2.0022
17442TIP3   OH273816   0.963   4.469   5.649  0.1102  0.5457  0.3354
17442TIP3    H173817   0.977   4.540   5.711 -3.6587  0.3335  1.6838
17442TIP3    H273818   0.889   4.498   5.596  3.2209  0.8203 -4.5361
17443TIP3   OH273819   2.774   0.358  12.943  0.4765 -1.0133 -0.0322
17443TIP3    H173820   2.859   0.377  12.904 -1.3253  0.1149 -3.8983
17443TIP3    H273821   2.770   0.262  12.947  1.1325 -1.1664 -2.0057
17444TIP3   OH273822   2.767   3.294  11.396 -0.3984 -0.4602 -0.0873
17444TIP3    H173823   2.791   3.381  11.427  0.2239 -0.7208  0.1726
17444TIP3    H273824   2.708   3.260  11.463 -0.3211 -0.3994  0.0106
17445TIP3   OH273825   1.857   5.726   1.875 -0.5571  0.6483  0.2941
17445TIP3    H173826   1.765   5.751   1.870 -0.3281  1.2952 -0.9462
17445TIP3    H273827   1.894   5.782   1.944 -1.2089 -0.0550  1.2378
17446TIP3   OH273828   4.444   1.153  15.364 -0.1539 -0.0272 -0.2942
17446TIP3    H173829   4.503   1.227  15.350  0.4069 -0.3632  0.2284
17446TIP3    H273830   4.493   1.093  15.420 -1.0409 -0.2567  0.2668
17447TIP3   OH273831   3.826   0.632   6.330 -0.3180  0.3013  0.7654
17447TIP3    H173832   3.861   0.618   6.242 -0.1428 -2.0339  1.1422
17447TIP3    H273833   3.773   0.711   6.322 -0.0005  0.3641 -1.3480
17448TIP3   OH273834   2.877   5.205   4.124  0.5035 -0.3624  0.3939
17448TIP3    H173835   2.925   5.125   4.106 -0.6165 -0.9585 -0.0090
17448TIP3    H273836   2.867   5.206   4.219  0.8149 -0.5240  0.4293
17449TIP3   OH273837   1.895   3.714  16.986 -0.0355 -0.5765  1.2573
17449TIP3    H173838   1.920   3.629  16.951  0.1809 -0.5618  1.3723
17449TIP3    H273839   1.962   3.733  17.052 -0.1121 -0.3422  1.2679
17450TIP3   OH273840   2.044   0.487   5.576  0.1807 -0.5792  0.5793
17450TIP3    H173841   2.051   0.579   5.547  0.9781 -0.2756  1.6797
17450TIP3    H273842   2.098   0.439   5.513 -0.0380 -0.2662  0.1415
17451TIP3   OH273843   6.160   3.812  12.888  0.3442  0.3266 -0.9307
17451TIP3    H173844   6.233   3.806  12.950 -0.7996 -0.5456  0.4180
17451TIP3    H273845   6.173   3.895  12.843  2.3488  0.0130 -0.9895
17452TIP3   OH273846   5.528   0.165  13.957  0.2843 -0.7681  0.1110
17452TIP3    H173847   5.443   0.137  13.922 -0.0874  0.4103  0.0322
17452TIP3    H273848   5.552   0.241  13.904  1.7051 -1.4471 -0.2836
17453TIP3   OH273849   5.339   4.007  16.059 -0.1958 -0.1715  0.1788
17453TIP3    H173850   5.283   3.950  16.007 -1.5796  0.3809  1.0098
17453TIP3    H273851   5.386   4.060  15.995 -0.1488 -1.0814 -0.5502
17454TIP3   OH273852   5.775   5.290  11.113  0.5368  0.7206  0.2043
17454TIP3    H173853   5.784   5.251  11.200  2.3729  0.7682  0.0746
17454TIP3    H273854   5.785   5.216  11.052 -1.4790  0.5618 -0.0049
17455TIP3   OH273855   3.349   3.396   1.397  0.2229  0.3369 -0.6819
17455TIP3    H173856   3.445   3.389   1.397  0.1606 -0.7089 -0.5012
17455TIP3    H273857   3.324   3.371   1.486 -0.1877  1.1631 -0.5606
17456TIP3   OH273858   4.814   3.895  10.299  0.0482  0.3366  0.2951
17456TIP3    H173859   4.786   3.876  10.209 -0.1629 -0.4117  0.5069
17456TIP3    H273860   4.833   3.989  10.299 -1.4192  0.6519 -0.1237
17457TIP3   OH273861   3.961   4.254  14.574 -0.5816  0.4031  0.4435
17457TIP3    H173862   3.938   4.234  14.483 -0.7526  1.0044  0.3467
17457TIP3    H273863   4.053   4.229  14.581 -0.0868  1.8618 -0.3785
17458TIP3   OH273864   4.699   1.767   5.310  0.3196 -0.1345 -0.3965
17458TIP3    H173865   4.632   1.814   5.260 -0.2443 -3.4215 -3.0503
17458TIP3    H273866   4.661   1.759   5.398 -2.0889 -0.4526 -1.3763
17459TIP3   OH273867   6.815   0.491   4.751  0.0476  0.1033 -0.8699
17459TIP3    H173868   6.796   0.497   4.845 -1.6160  1.2279 -1.2295
17459TIP3    H273869   6.745   0.542   4.709  1.2959  0.4238 -2.6718
17460TIP3   OH273870   1.348   5.194  12.734  0.0982  0.0329  0.2839
17460TIP3    H173871   1.378   5.281  12.761 -3.5513  1.4324  0.3366
17460TIP3    H273872   1.254   5.194  12.751 -1.4610 -1.4064 -5.7555
17461TIP3   OH273873   3.363   5.808  12.807  0.1714  0.2060 -0.7187
17461TIP3    H173874   3.396   5.805  12.717  0.4647  0.6560 -0.6285
17461TIP3    H273875   3.415   5.741  12.853  0.6031  0.5523 -0.6956
17462TIP3   OH273876   2.636   2.788   3.129 -0.1729  0.3975 -0.8630
17462TIP3    H173877   2.546   2.755   3.122  0.4794 -1.3408 -1.7370
17462TIP3    H273878   2.656   2.820   3.041  0.4023 -0.1880 -0.9500
17463TIP3   OH273879   3.351   6.088   6.516  0.2750 -0.1428 -0.2331
17463TIP3    H173880   3.432   6.137   6.501  0.6970 -1.4475 -2.9591
17463TIP3    H273881   3.283   6.141   6.475  0.7760 -1.7412 -3.4595
17464TIP3   OH273882   5.487   5.063  15.807  0.0773 -0.5525  0.5331
17464TIP3    H173883   5.473   5.007  15.731 -2.4787  1.1740 -0.4312
17464TIP3    H273884   5.405   5.112  15.816  1.7433  2.2507  1.9268
17465TIP3   OH273885   4.534   2.921  15.959 -0.3503  0.6937  0.0058
17465TIP3    H173886   4.455   2.892  15.915 -0.3555  0.5241  0.1222
17465TIP3    H273887   4.503   2.963  16.039 -0.2851 -0.4025  0.6266
17466TIP3   OH273888   1.222   6.178   0.980 -0.0097  0.0708 -0.0145
17466TIP3    H173889   1.290   6.199   1.043  0.9059  0.0395 -0.9663
17466TIP3    H273890   1.159   6.250   0.988  0.9143  0.9135 -0.2106
17467TIP3   OH273891   0.822   6.266   1.249  0.8390 -0.3579  0.7612
17467TIP3    H173892   0.845   6.305   1.334 -0.3370  1.6335  0.2398
17467TIP3    H273893   0.890   6.201   1.232  1.0077 -0.9546  3.3018
17468TIP3   OH273894   4.838   3.277  14.939 -0.2416 -0.1288  0.4128
17468TIP3    H173895   4.834   3.289  14.844 -0.0242  1.0379  0.5338
17468TIP3    H273896   4.783   3.200  14.956 -0.1577 -0.4421 -0.6661
17469TIP3   OH273897   2.129   2.374   4.695 -0.1906 -0.4659  0.6822
17469TIP3    H173898   2.202   2.324   4.730  1.9318  1.9973  0.0478
17469TIP3    H273899   2.164   2.418   4.617 -2.6024  0.1243 -0.1686
17470TIP3   OH273900   3.692   3.073  11.563  0.1429 -0.2070  0.2428
17470TIP3    H173901   3.675   3.143  11.626 -0.0751 -1.8788  2.1367
17470TIP3    H273902   3.606   3.055  11.523 -0.2688 -0.8587  1.3772
17471TIP3   OH273903   6.368   6.551   4.881 -0.0326  0.0234  0.0969
17471TIP3    H173904   6.407   6.629   4.842  0.7565 -0.3733  0.0736
17471TIP3    H273905   6.427   6.528   4.953 -0.9401  0.1736  0.9156
17472TIP3   OH273906   3.515   2.131  10.634 -0.1579 -0.2004 -0.0175
17472TIP3    H173907   3.600   2.163  10.662 -0.6386  1.1634 -0.0260
17472TIP3    H273908   3.505   2.047  10.678  0.7887  0.0583  0.7253
17473TIP3   OH273909   2.055   4.620   5.134 -0.0065 -0.3460  0.2696
17473TIP3    H173910   2.078   4.697   5.187 -0.7925 -1.3549  2.1963
17473TIP3    H273911   1.961   4.608   5.151 -0.8696  0.5088 -3.1093
17474TIP3   OH273912   3.724   5.322   0.700  0.4474  0.6564 -0.9303
17474TIP3    H173913   3.755   5.403   0.740  0.0826  0.9455 -1.2251
17474TIP3    H273914   3.804   5.273   0.681  0.6310  0.6216 -0.0851
17475TIP3   OH273915   5.929   1.807   4.544  0.1119  0.4049 -0.1166
17475TIP3    H173916   6.009   1.775   4.584  0.3487 -0.7839 -1.4582
17475TIP3    H273917   5.862   1.798   4.613  0.7335 -0.4725  0.3907
17476TIP3   OH273918   2.633   3.820   1.859  0.0789 -0.0859  0.0675
17476TIP3    H173919   2.701   3.876   1.897 -0.5541  1.3914 -0.8912
17476TIP3    H273920   2.551   3.864   1.882 -0.4332 -0.4943 -0.9383
17477TIP3   OH273921   1.372   4.399   5.340 -0.3846  0.1325  0.3012
17477TIP3    H173922   1.296   4.365   5.387  0.0300 -2.0312 -0.4761
17477TIP3    H273923   1.336   4.428   5.256 -0.2957 -1.9022 -0.5132
17478TIP3   OH273924   1.716   2.665  15.313 -0.3682 -0.0838 -0.2092
17478TIP3    H173925   1.723   2.698  15.224 -0.9093  0.0806 -0.1983
17478TIP3    H273926   1.684   2.575  15.303  2.4122 -1.1576 -0.3092
17479TIP3   OH273927   4.193   1.515  12.933  0.2106  0.2267  0.0253
17479TIP3    H173928   4.149   1.442  12.977 -2.0244  0.6552 -1.3375
17479TIP3    H273929   4.277   1.479  12.904  0.5248 -0.8534  2.1007
17480TIP3   OH273930   5.321   5.406  12.528  0.2540  0.3733  0.0831
17480TIP3    H173931   5.401   5.456  12.511  1.7134 -2.0594 -0.8727
17480TIP3    H273932   5.295   5.372  12.442 -0.8740 -0.1601  0.6174
17481TIP3   OH273933   1.833   1.590   4.968  0.0107 -0.1055 -0.7850
17481TIP3    H173934   1.866   1.528   4.903  1.1293  0.7565 -1.0828
17481TIP3    H273935   1.847   1.676   4.927 -1.2087  0.3681 -0.2572
17482TIP3   OH273936   1.212   0.233  14.689  0.2100 -0.1710 -0.3190
17482TIP3    H173937   1.194   0.185  14.609 -0.8311  0.1928 -0.3138
17482TIP3    H273938   1.217   0.166  14.757 -2.2456 -0.2597 -0.1317
17483TIP3   OH273939   3.467   2.139   0.362  0.3139 -0.3995  0.0336
17483TIP3    H173940   3.399   2.201   0.338 -0.0185 -0.9167 -0.3840
17483TIP3    H273941   3.470   2.077   0.289  1.2233 -0.3898  0.0511
17484TIP3   OH273942   2.700   3.338   2.616  0.1924  0.4514  0.3234
17484TIP3    H173943   2.709   3.253   2.573  2.0292  1.5325 -1.6482
17484TIP3    H273944   2.758   3.332   2.693 -0.1085 -0.2367  0.5052
17485TIP3   OH273945   1.893   3.147   0.147  0.1004 -0.4859  0.0621
17485TIP3    H173946   1.938   3.065   0.171  0.4275 -0.0192  1.1134
17485TIP3    H273947   1.808   3.118   0.113  0.7706 -1.3281 -0.9816
17486TIP3   OH273948   6.540   6.387   0.107 -0.5545 -0.1492 -0.3648
17486TIP3    H173949   6.620   6.357   0.066  1.7597  1.4106  2.5858
17486TIP3    H273950   6.521   6.471   0.065 -1.5675 -1.1465 -2.0304
17487TIP3   OH273951   5.846   1.310   1.239  0.2032 -0.3622 -0.1046
17487TIP3    H173952   5.778   1.274   1.296 -2.0237  3.0488 -0.2977
17487TIP3    H273953   5.812   1.297   1.150  0.8092 -0.4517 -0.3300
17488TIP3   OH273954   6.590   4.055   4.268 -0.3036  0.5096  1.3295
17488TIP3    H173955   6.658   4.120   4.288 -0.0320  0.2588  1.2277
17488TIP3    H273956   6.637   3.985   4.222 -0.6704  0.4367  1.0649
17489TIP3   OH273957   3.949   2.907  12.618 -0.0662  0.1173  0.6083
17489TIP3    H173958   3.972   2.815  12.636  0.5655  0.1369 -0.0642
17489TIP3    H273959   3.896   2.903  12.539 -1.1071  0.2220  1.2934
17490TIP3   OH273960   6.627   4.846   4.818  0.3089  0.0346 -0.2299
17490TIP3    H173961   6.586   4.852   4.904  0.2037 -1.0808 -0.1802
17490TIP3    H273962   6.555   4.862   4.756  0.7201  2.6159 -0.1442
17491TIP3   OH273963   2.801   1.879   0.135  0.4052  0.0541 -0.0249
17491TIP3    H173964   2.735   1.837   0.191  0.5099  1.0336  0.8750
17491TIP3    H273965   2.764   1.876   0.047  0.1866 -1.4426  0.0867
17492TIP3   OH273966   3.524   4.170   2.780  0.3623  0.6647 -0.0066
17492TIP3    H173967   3.541   4.118   2.859 -1.6164 -0.2093 -0.1013
17492TIP3    H273968   3.434   4.150   2.757 -0.0602  3.1717 -0.8176
17493TIP3   OH273969   2.535   5.164  14.670 -0.0490 -0.6980  0.7217
17493TIP3    H173970   2.588   5.107  14.614  1.0408 -0.5395  1.5656
17493TIP3    H273971   2.482   5.104  14.722 -0.9065 -0.8528 -0.2938
17494TIP3   OH273972   2.354   5.305   4.930 -0.4673 -0.3557  0.0802
17494TIP3    H173973   2.326   5.263   5.011 -0.3415  0.5774  0.6205
17494TIP3    H273974   2.284   5.367   4.910 -0.3251 -0.3247 -0.3250
17495TIP3   OH273975   1.859   4.138   0.651 -0.5305  0.2544 -0.7944
17495TIP3    H173976   1.952   4.151   0.637 -0.6309  1.1987 -0.6456
17495TIP3    H273977   1.818   4.156   0.566 -0.7846  2.2860 -0.3049
17496TIP3   OH273978   5.296   5.716   5.536  0.4971  0.2194  0.2238
17496TIP3    H173979   5.275   5.702   5.444  0.2475  0.4830  0.2389
17496TIP3    H273980   5.265   5.805   5.555  1.0416  0.3678  0.4196
17497TIP3   OH273981   6.490   3.399   2.441  0.1446  0.1121  0.1517
17497TIP3    H173982   6.403   3.428   2.466  0.4175  2.2788 -1.1858
17497TIP3    H273983   6.544   3.416   2.519 -0.4275 -0.4187  0.6761
17498TIP3   OH273984   1.833   1.998   0.597 -0.0178  0.3346 -0.0659
17498TIP3    H173985   1.884   2.060   0.544 -1.8403 -0.4363 -2.8980
17498TIP3    H273986   1.890   1.921   0.605  0.1816  0.3470 -1.2103
17499TIP3   OH273987   2.474   0.159  16.441  0.1548 -0.1610 -0.3434
17499TIP3    H173988   2.471   0.167  16.537 -0.4058  0.8181 -0.4309
17499TIP3    H273989   2.429   0.077  16.423 -2.1191  0.8974  0.1045
17500TIP3   OH273990   1.222   0.100   2.272  0.1892  0.0908 -0.3007
17500TIP3    H173991   1.212   0.008   2.294  0.7227  0.3822  1.2916
17500TIP3    H273992   1.157   0.116   2.203  0.3984 -1.5478 -0.9099
17501TIP3   OH273993   4.714   6.148  16.323  0.1562  0.2567  0.1911
17501TIP3    H173994   4.629   6.184  16.349 -0.6750 -1.3842 -0.0974
17501TIP3    H273995   4.692   6.077  16.262  1.7966  0.4124 -0.6234
17502TIP3   OH273996   6.124   4.671   0.113 -0.1018  0.6866  0.1359
17502TIP3    H173997   6.123   4.675   0.017 -0.2599  0.9856  0.1500
17502TIP3    H273998   6.177   4.594   0.133  1.7818  1.8687 -0.1505
17503TIP3   OH273999   2.625   5.311  13.391  0.0733  0.0791  0.1642
17503TIP3    H174000   2.635   5.298  13.485  0.5172  1.4193  0.3239
17503TIP3    H274001   2.541   5.270  13.370 -0.2664  0.2009  1.2386
17504TIP3   OH274002   2.514   5.827   1.204  0.0758  0.0729 -0.3827
17504TIP3    H174003   2.598   5.873   1.204  1.1286 -1.7010 -1.6516
17504TIP3    H274004   2.460   5.876   1.266  1.7670  1.7494 -0.1222
17505TIP3   OH274005   1.666   5.748   5.520  0.7053 -0.5055 -0.4248
17505TIP3    H174006   1.744   5.706   5.483  0.8385 -1.4647  0.8803
17505TIP3    H274007   1.691   5.770   5.610  0.2152  1.2834 -0.6778
17506TIP3   OH274008   3.988   5.557   0.167  0.8046  0.3418 -0.1622
17506TIP3    H174009   3.973   5.592   0.255 -0.8821 -2.0585  0.6131
17506TIP3    H274010   4.083   5.555   0.157  1.0449  0.2445  1.8121
17507TIP3   OH274011   6.771   1.466  15.241  0.8547 -0.1202 -0.3022
17507TIP3    H174012   6.705   1.399  15.222  1.1558 -0.0799 -1.5488
17507TIP3    H274013   6.834   1.459  15.169  2.1986 -0.1254  0.8377
17508TIP3   OH274014   4.197   0.474  10.861  0.2141  0.2502 -0.1272
17508TIP3    H174015   4.115   0.521  10.850  0.5373  0.4111 -2.6210
17508TIP3    H274016   4.200   0.413  10.787  2.1775  0.0212  0.0683
17509TIP3   OH274017   0.742   2.082  13.511  0.0607  0.4249  0.2323
17509TIP3    H174018   0.713   1.993  13.531  0.6944  0.6728  2.5207
17509TIP3    H274019   0.717   2.133  13.588  2.1815  1.6537  0.1734
17510TIP3   OH274020   6.689   5.064  13.926 -0.2566 -0.0473 -0.3940
17510TIP3    H174021   6.722   5.087  14.013 -0.8958 -1.8437  0.3775
17510TIP3    H274022   6.672   5.148  13.884  0.6197  0.8752  0.9876
17511TIP3   OH274023   4.741   5.946  16.163 -0.0931  0.2687  0.3209
17511TIP3    H174024   4.808   5.894  16.208 -0.3739 -0.7563 -0.4070
17511TIP3    H274025   4.777   5.960  16.075 -1.1565 -0.9756 -0.3363
17512TIP3   OH274026   5.214   0.613   5.195  0.0874 -0.3299 -0.8971
17512TIP3    H174027   5.148   0.580   5.255 -0.2786 -0.5518 -1.4220
17512TIP3    H274028   5.195   0.571   5.111  0.2826  0.3641 -1.2987
17513TIP3   OH274029   3.843   4.530   3.565 -0.3723 -0.5679  0.3416
17513TIP3    H174030   3.754   4.536   3.599 -1.5042  1.9311 -2.6344
17513TIP3    H274031   3.898   4.562   3.637 -2.2104  0.8613  1.1878
17514TIP3   OH274032   5.535   4.781  13.336  0.3169  0.5078 -0.2531
17514TIP3    H174033   5.499   4.832  13.263  2.8617  0.4348 -1.6581
17514TIP3    H274034   5.529   4.690  13.308 -2.4434  0.0559  1.4493
17515TIP3   OH274035   6.595   4.592   4.394 -0.2629  0.3116  0.1816
17515TIP3    H174036   6.605   4.676   4.348  1.9083 -1.2986 -2.5638
17515TIP3    H274037   6.530   4.544   4.342  1.1445 -0.9942 -0.4523
17516TIP3   OH274038   3.652   4.951  12.324 -0.6869  0.0884  0.0678
17516TIP3    H174039   3.659   5.033  12.274  0.2621 -0.3849 -0.6042
17516TIP3    H274040   3.604   4.892  12.265  0.6432 -0.5462 -0.4048
17517TIP3   OH274041   2.302   0.695   1.344  0.3879  0.1170 -1.0120
17517TIP3    H174042   2.371   0.636   1.314 -0.0373 -0.7415 -0.3582
17517TIP3    H274043   2.332   0.726   1.429  0.2523  0.2390 -1.0081
17518TIP3   OH274044   4.104   2.490  15.000 -0.6040  0.0124  0.1402
17518TIP3    H174045   4.166   2.422  15.027 -0.3033  1.0811  2.4360
17518TIP3    H274046   4.086   2.472  14.908  1.6395 -1.4729 -0.0798
17519TIP3   OH274047   6.172   4.359  13.579  0.2545  0.4374  0.0254
17519TIP3    H174048   6.259   4.331  13.609 -0.2648  0.7225  1.9302
17519TIP3    H274049   6.190   4.433  13.520  1.3311 -0.0576 -0.2973
17520TIP3   OH274050   2.717   4.838  16.029 -0.1680  0.2887  0.4435
17520TIP3    H174051   2.744   4.915  16.079  0.5115  0.3007  0.0638
17520TIP3    H274052   2.726   4.765  16.091 -0.4264  0.4540  0.6815
17521TIP3   OH274053   5.049   6.407  14.532 -0.2171  0.1844 -0.8300
17521TIP3    H174054   4.968   6.403  14.482 -0.9901  1.5004  0.2527
17521TIP3    H274055   5.059   6.320  14.570 -0.3812 -0.3901 -2.0351
17522TIP3   OH274056   6.818   2.110  14.023 -0.0881  0.0513 -0.2799
17522TIP3    H174057   6.803   2.018  14.047  0.0868 -0.1469 -0.9253
17522TIP3    H274058   6.912   2.116  14.006  0.0682  0.5772  0.6862
17523TIP3   OH274059   1.330   4.780   3.527  0.1217  0.5347  0.3921
17523TIP3    H174060   1.402   4.817   3.578 -0.2961  0.5266  0.9914
17523TIP3    H274061   1.343   4.685   3.531  1.4244  0.5776 -1.4789
17524TIP3   OH274062   2.036   6.345   4.627  0.2591 -0.0069 -0.4228
17524TIP3    H174063   2.042   6.252   4.603  0.7550 -0.0930  0.0197
17524TIP3    H274064   1.942   6.360   4.638  0.2901 -1.2193  2.3291
17525TIP3   OH274065   1.411   1.481   2.133  0.3856 -0.1516 -0.2513
17525TIP3    H174066   1.370   1.419   2.193  1.0034 -0.7510 -0.4286
17525TIP3    H274067   1.382   1.452   2.046  0.7473 -0.2487 -0.3400
17526TIP3   OH274068   6.226   0.701  15.568 -0.0426 -0.8448 -0.6775
17526TIP3    H174069   6.199   0.726  15.656  1.0847  1.2672 -0.8505
17526TIP3    H274070   6.317   0.731  15.561 -0.3414 -0.2062 -2.7974
17527TIP3   OH274071   0.100   3.898   0.630 -0.0724 -0.0320 -0.3847
17527TIP3    H174072   0.092   3.977   0.683  1.5762 -1.0966  1.5923
17527TIP3    H274073   0.087   3.826   0.692 -1.8876 -1.3655 -2.1856
17528TIP3   OH274074   1.183   4.774  12.219 -0.0804  0.6042  0.3914
17528TIP3    H174075   1.252   4.740  12.276  0.8718 -0.2800 -1.2097
17528TIP3    H274076   1.173   4.707  12.151 -1.9500  1.1143  0.1273
17529TIP3   OH274077   1.434   3.507  16.071  0.1421 -0.4637 -0.4492
17529TIP3    H174078   1.460   3.497  15.980 -0.2506  0.3069 -0.6582
17529TIP3    H274079   1.430   3.418  16.106  2.7493 -0.6609 -0.4753
17530TIP3   OH274080   5.515   2.405   5.731 -0.5971 -0.4671 -0.1001
17530TIP3    H174081   5.479   2.342   5.668 -1.5347  0.7422 -0.8156
17530TIP3    H274082   5.509   2.360   5.815 -0.7988 -1.5107 -0.6503
17531TIP3   OH274083   2.154   6.282   0.187 -0.4584  0.4735  0.0796
17531TIP3    H174084   2.233   6.229   0.196 -0.0724  1.1830  0.8912
17531TIP3    H274085   2.102   6.235   0.122  1.2870  0.7950 -1.6317
17532TIP3   OH274086   0.213   2.044  13.909 -0.2086 -0.3366 -0.5288
17532TIP3    H174087   0.273   2.063  13.982  0.8461 -2.3109 -0.7898
17532TIP3    H274088   0.270   2.040  13.832 -1.1228  0.4525 -1.2612
17533TIP3   OH274089   2.186   2.750   1.346 -0.2868  0.4054 -0.1327
17533TIP3    H174090   2.103   2.708   1.324 -0.4269  1.1333 -1.0722
17533TIP3    H274091   2.252   2.687   1.317 -0.5043 -0.0178  0.2843
17534TIP3   OH274092   2.686   1.721  11.968  0.0044  0.3315  0.3024
17534TIP3    H174093   2.686   1.817  11.972  0.0819  0.2984  2.8059
17534TIP3    H274094   2.593   1.697  11.963 -0.2041  0.5550  2.2969
17535TIP3   OH274095   4.992   0.292   2.764 -0.0266  0.0691  0.2525
17535TIP3    H174096   4.915   0.255   2.721  0.8721 -1.6497  0.0487
17535TIP3    H274097   4.972   0.288   2.857  0.0411 -0.9737  0.2373
17536TIP3   OH274098   1.555   6.106  15.210 -0.0685  0.3113 -0.2296
17536TIP3    H174099   1.487   6.172  15.223 -1.3763 -0.9076 -0.5616
17536TIP3    H274100   1.635   6.145  15.246 -0.4974  2.5577 -1.5067
17537TIP3   OH274101   2.114   2.695  16.572  0.3120  0.5996  0.2405
17537TIP3    H174102   2.195   2.740  16.546  0.1067  0.8134 -0.0294
17537TIP3    H274103   2.045   2.760  16.560 -0.1176 -0.0512 -1.0210
17538TIP3   OH274104   3.486   1.155   5.793  0.3528  0.5531 -0.1452
17538TIP3    H174105   3.483   1.169   5.887 -2.3925 -1.8236  0.2634
17538TIP3    H274106   3.416   1.212   5.759 -0.0433 -0.1183 -0.4664
17539TIP3   OH274107   4.387   3.551  15.568 -0.5065  0.1324 -0.4643
17539TIP3    H174108   4.339   3.577  15.646 -0.7925  0.7350 -0.8359
17539TIP3    H274109   4.403   3.457  15.580  0.2712  0.3946  0.7432
17540TIP3   OH274110   1.332   4.505  14.946  0.0658 -0.0730 -0.2414
17540TIP3    H174111   1.264   4.572  14.944 -2.0135 -2.0538 -0.6236
17540TIP3    H274112   1.336   4.472  14.856  1.4830 -0.0889 -0.1962
17541TIP3   OH274113   3.834   4.275  13.134  0.6549 -0.0438 -0.0204
17541TIP3    H174114   3.777   4.351  13.150 -0.8208 -0.3179 -3.0729
17541TIP3    H274115   3.874   4.294  13.049  1.9675 -1.7317  0.1879
17542TIP3   OH274116   1.089   0.671   1.226  0.1698 -0.0932  0.2469
17542TIP3    H174117   1.150   0.689   1.155 -0.0508 -0.5873 -0.0715
17542TIP3    H274118   1.142   0.679   1.305  0.0658  2.0843  0.1738
17543TIP3   OH274119   4.801   2.238   2.971 -0.0782 -0.0242  0.0082
17543TIP3    H174120   4.821   2.199   2.886  0.4190 -0.6765  0.4164
17543TIP3    H274121   4.795   2.164   3.031 -2.9577  0.1771  0.1061
17544TIP3   OH274122   1.185   0.980   1.284  0.1482  0.0897 -0.2748
17544TIP3    H174123   1.204   0.891   1.314  2.8022  0.9966  1.0197
17544TIP3    H274124   1.233   0.989   1.202  0.3118  0.4962 -0.1361
17545TIP3   OH274125   1.287   1.135  11.634 -0.5064 -0.6402  0.2567
17545TIP3    H174126   1.383   1.143  11.627 -0.2176 -0.5284  3.1510
17545TIP3    H274127   1.267   1.055  11.586  1.0793 -0.7811 -0.2478
17546TIP3   OH274128   4.520   1.342  16.262  0.6169 -0.2472  0.2257
17546TIP3    H174129   4.464   1.271  16.293  2.0737 -1.8602 -0.6158
17546TIP3    H274130   4.581   1.358  16.334 -0.1545  0.6820  0.6894
17547TIP3   OH274131   2.529   1.537  17.128  0.7276 -0.2720 -0.3986
17547TIP3    H174132   2.557   1.464  17.074  1.3053 -0.3546  0.0041
17547TIP3    H274133   2.462   1.499  17.186  0.3091 -0.2457 -0.8611
17548TIP3   OH274134   3.191   1.580   6.515 -0.3360  0.2108 -0.3837
17548TIP3    H174135   3.113   1.635   6.527 -1.2130 -0.4394 -2.6034
17548TIP3    H274136   3.228   1.572   6.603 -1.7909  1.9593  0.4641
17549TIP3   OH274137   6.033   4.951   0.170 -0.1211  0.4788  0.2629
17549TIP3    H174138   5.977   4.941   0.092  0.9324 -0.0351 -0.4511
17549TIP3    H274139   6.064   4.863   0.189  0.8956  0.8276  0.2991
17550TIP3   OH274140   4.636   2.678   2.385  0.1462  0.0169  0.0560
17550TIP3    H174141   4.571   2.726   2.437  2.0789  1.7454  1.0379
17550TIP3    H274142   4.720   2.718   2.409  1.5617 -1.8777 -1.4123
17551TIP3   OH274143   3.418   1.789  13.052  0.2348  0.1757 -0.3782
17551TIP3    H174144   3.472   1.867  13.046  0.2629  0.0651 -2.1418
17551TIP3    H274145   3.328   1.822  13.049  0.2372  0.2132  0.0081
17552TIP3   OH274146   4.287   4.615   5.392 -0.4352  0.3370  0.4871
17552TIP3    H174147   4.329   4.532   5.413  1.2604  0.7088 -1.1774
17552TIP3    H274148   4.349   4.681   5.425  0.2546  0.8986 -1.7643
17553TIP3   OH274149   2.692   0.875   1.024  0.2449 -0.5207  0.3941
17553TIP3    H174150   2.775   0.921   1.036 -0.2945  0.4128  0.6520
17553TIP3    H274151   2.681   0.868   0.929  0.7439 -0.8925  0.3622
17554TIP3   OH274152   4.590   1.716   3.815 -0.0603  0.3836 -0.2881
17554TIP3    H174153   4.532   1.642   3.831 -1.4907  1.4267 -0.4896
17554TIP3    H274154   4.611   1.711   3.722 -0.4272  0.3971 -0.3747
17555TIP3   OH274155   1.951   2.484  10.554  0.4908 -0.5871  0.4226
17555TIP3    H174156   1.982   2.433  10.479 -0.7642 -0.8141  0.0258
17555TIP3    H274157   1.856   2.484  10.545  0.3926  0.7334  1.1421
17556TIP3   OH274158   4.208   4.951   4.440 -0.2531  0.4613 -0.2745
17556TIP3    H174159   4.138   4.994   4.391 -0.3443  0.5158 -0.0989
17556TIP3    H274160   4.163   4.882   4.489 -0.2592  0.7868  0.1914
17557TIP3   OH274161   1.073   1.453   5.764 -1.0861  0.0935 -0.6376
17557TIP3    H174162   1.007   1.458   5.833 -1.5541 -1.7571 -0.9082
17557TIP3    H274163   1.157   1.450   5.812 -1.3297  0.1148 -0.2014
17558TIP3   OH274164   0.941   0.600   0.106 -0.0920 -0.7314  0.2927
17558TIP3    H174165   0.986   0.605   0.022 -0.6953  0.4840  0.0169
17558TIP3    H274166   0.970   0.679   0.153 -0.3619 -0.9937  0.9092
17559TIP3   OH274167   5.153   6.684  11.512 -0.2256 -0.1000  0.4679
17559TIP3    H174168   5.148   6.770  11.555  0.2117 -0.2726  0.8863
17559TIP3    H274169   5.109   6.696  11.428 -0.4542  0.4472  0.6611
17560TIP3   OH274170   1.854   4.993  14.148  0.6247 -0.0104 -0.1927
17560TIP3    H174171   1.948   4.985  14.134  0.4471  0.9427 -2.2880
17560TIP3    H274172   1.842   5.084  14.178  0.4405 -0.4201  1.0294
17561TIP3   OH274173   2.613   1.676   6.002 -0.3335  0.1839  0.2616
17561TIP3    H174174   2.596   1.605   6.064  0.9287 -0.4874 -0.1388
17561TIP3    H274175   2.593   1.638   5.916 -1.9509  1.0684  0.2000
17562TIP3   OH274176   2.837   2.195   0.488 -0.3184 -0.1833  0.1976
17562TIP3    H174177   2.905   2.262   0.487 -1.0884  0.7261  2.3245
17562TIP3    H274178   2.807   2.188   0.398  0.9137  1.1318 -0.3439
17563TIP3   OH274179   1.606   3.283  10.894 -0.4617 -0.0342  0.0244
17563TIP3    H174180   1.640   3.203  10.933  0.6043  0.1488 -0.4941
17563TIP3    H274181   1.599   3.263  10.801  0.3000  0.6257 -0.1858
17564TIP3   OH274182   0.377   4.792   2.925  0.1304  0.2403  0.3661
17564TIP3    H174183   0.449   4.826   2.871  0.1513 -3.1830 -2.0973
17564TIP3    H274184   0.415   4.786   3.013  1.6029  1.8790 -0.0893
17565TIP3   OH274185   3.503   0.345  17.025 -0.3023  0.1144 -0.6594
17565TIP3    H174186   3.555   0.423  17.007 -0.7701  0.1222 -2.0653
17565TIP3    H274187   3.556   0.295  17.088  1.1035  0.4348 -1.5417
17566TIP3   OH274188   4.791   4.656  16.969  0.2494  0.1749  0.0679
17566TIP3    H174189   4.738   4.661  17.049 -2.1110 -0.8646 -1.3003
17566TIP3    H274190   4.789   4.563  16.946  1.6970  0.3167 -0.7103
17567TIP3   OH274191   4.920   2.442   3.823 -0.2769 -0.0857  0.5469
17567TIP3    H174192   4.927   2.532   3.854  1.4401  0.6051 -1.5739
17567TIP3    H274193   5.006   2.422   3.786 -1.2540 -1.8112 -1.0152
17568TIP3   OH274194   1.449   2.407  13.379  0.3377  0.2252  0.5401
17568TIP3    H174195   1.506   2.331  13.368 -2.0283 -1.6114  0.2501
17568TIP3    H274196   1.481   2.449  13.459  0.8073 -1.9573  1.5798
17569TIP3   OH274197   0.989   5.591  15.509  0.0672  0.2885 -0.0783
17569TIP3    H174198   1.038   5.673  15.523 -1.0732  0.7069  2.0230
17569TIP3    H274199   1.032   5.528  15.566  0.1810 -0.2277 -0.7404
17570TIP3   OH274200   4.671   0.825   1.253  0.2182  0.3264 -0.4307
17570TIP3    H174201   4.636   0.903   1.210 -0.3678 -0.3322 -1.1744
17570TIP3    H274202   4.758   0.813   1.215  0.3708  0.6899 -0.2068
17571TIP3   OH274203   0.991   3.430   4.660  0.2484 -0.1916  0.0251
17571TIP3    H174204   0.924   3.394   4.602  0.1428  0.0212  0.0122
17571TIP3    H274205   1.029   3.354   4.704 -0.3954 -0.2795  0.4557
17572TIP3   OH274206   2.800   2.783   3.647  0.0908 -0.1061  0.3194
17572TIP3    H174207   2.759   2.851   3.701 -3.0698 -0.5081 -1.3501
17572TIP3    H274208   2.748   2.782   3.566  3.0116 -1.2792 -1.7164
17573TIP3   OH274209   1.266   3.192  11.872 -0.2413  0.3946  0.2320
17573TIP3    H174210   1.178   3.225  11.891  0.1921  0.8342  1.5444
17573TIP3    H274211   1.304   3.259  11.815 -0.3713  0.7629  0.5723
17574TIP3   OH274212   1.617   0.948   0.932 -0.1312 -0.1384  0.2146
17574TIP3    H174213   1.529   0.915   0.949  0.0281  0.9682  4.1769
17574TIP3    H274214   1.603   1.029   0.882 -1.2403 -0.6600 -0.3451
17575TIP3   OH274215   5.103   1.123  16.121  0.2455 -0.2637  0.1691
17575TIP3    H174216   5.141   1.047  16.078 -0.4478 -1.7940  2.1157
17575TIP3    H274217   5.169   1.152  16.184 -0.0575 -0.1765  0.4555
17576TIP3   OH274218   0.430   3.509  16.992 -0.2372 -0.0502  0.0525
17576TIP3    H174219   0.460   3.529  17.081  0.1185 -0.7012  0.0825
17576TIP3    H274220   0.499   3.454  16.955 -0.9629 -0.8132 -0.1941
17577TIP3   OH274221   4.224   0.685   0.750  0.1760  0.0367 -0.8122
17577TIP3    H174222   4.175   0.607   0.725  3.0165 -1.6536 -1.5304
17577TIP3    H274223   4.259   0.665   0.837  0.0507  1.0202 -0.5143
17578TIP3   OH274224   6.753   0.752  10.853  0.3537 -0.2853  0.1064
17578TIP3    H174225   6.814   0.738  10.781 -0.0590 -2.3694  0.1195
17578TIP3    H274226   6.671   0.714  10.823 -0.0955 -0.2897  1.3025
17579TIP3   OH274227   4.970   2.037  16.526 -0.0410  0.1885  0.4952
17579TIP3    H174228   4.894   2.003  16.479  0.4205 -0.8092  0.4593
17579TIP3    H274229   5.014   2.093  16.461  0.6727 -1.2913 -0.3511
17580TIP3   OH274230   4.507   1.246  11.812  0.4413  0.1886  0.0349
17580TIP3    H174231   4.526   1.319  11.753 -1.2134 -0.7247 -1.7438
17580TIP3    H274232   4.458   1.286  11.884  0.9225  1.0749 -0.1175
17581TIP3   OH274233   6.500   5.179  10.560  0.4970 -0.1304 -0.4120
17581TIP3    H174234   6.478   5.118  10.490  0.1821 -0.2595 -0.2014
17581TIP3    H274235   6.472   5.264  10.528 -1.7811 -0.4844  0.4713
17582TIP3   OH274236   3.989   3.817  10.713 -0.3097 -0.2207 -0.5163
17582TIP3    H174237   3.956   3.735  10.676 -0.8055  0.2119 -1.0473
17582TIP3    H274238   3.935   3.885  10.673 -1.1559  0.2511  1.2835
17583TIP3   OH274239   1.729   0.502   4.118  0.0382 -0.1649 -0.2532
17583TIP3    H174240   1.732   0.438   4.047 -1.2641 -0.9294  0.3479
17583TIP3    H274241   1.656   0.559   4.095 -0.5418 -0.5587  0.5726
17584TIP3   OH274242   3.706   3.181  11.128 -0.3226  0.0811  0.5401
17584TIP3    H174243   3.639   3.159  11.192  0.2862  0.9744  1.5039
17584TIP3    H274244   3.673   3.144  11.046 -1.2966 -0.7370  1.2734
17585TIP3   OH274245   0.606   3.456  14.667  0.0161  0.1325  0.5865
17585TIP3    H174246   0.698   3.430  14.669  0.3035  1.1013  0.7418
17585TIP3    H274247   0.586   3.468  14.574  0.3121  0.7558  0.5929
17586TIP3   OH274248   0.252   4.912  16.977 -0.6130 -0.0775 -0.1156
17586TIP3    H174249   0.178   4.881  16.925 -1.5505  1.5069  0.1689
17586TIP3    H274250   0.212   4.972  17.040  0.8419  0.2644  0.5142
17587TIP3   OH274251   4.130   4.830  12.321 -0.2461  0.2209  0.2437
17587TIP3    H174252   4.083   4.786  12.249  0.0267  0.9766 -0.4103
17587TIP3    H274253   4.085   4.914  12.331  0.5229  0.6580  0.0862
17588TIP3   OH274254   1.196   4.968   3.888 -0.3719 -0.0750 -0.5429
17588TIP3    H174255   1.208   5.035   3.955 -2.0287 -2.2206  2.0972
17588TIP3    H274256   1.101   4.961   3.877 -0.3034 -2.4156 -0.1862
17589TIP3   OH274257   6.617   1.834   1.067 -0.6915 -0.2098 -0.2114
17589TIP3    H174258   6.612   1.808   0.975  0.1480 -1.5628  0.0933
17589TIP3    H274259   6.647   1.755   1.113 -2.2319  0.0568  1.3992
17590TIP3   OH274260   0.192   1.160   5.711 -0.0295 -0.7704 -0.0982
17590TIP3    H174261   0.234   1.150   5.626 -1.6825 -1.3527 -0.8766
17590TIP3    H274262   0.259   1.134   5.774  0.9685 -1.0710 -1.2498
17591TIP3   OH274263   0.960   0.660   0.900  0.0030 -0.0124 -0.2049
17591TIP3    H174264   0.901   0.635   0.970  1.6435  1.0299  1.6463
17591TIP3    H274265   1.045   0.671   0.942  1.0392  0.8046 -2.3286
17592TIP3   OH274266   1.480   6.305  16.422  0.1439  0.4099  0.3608
17592TIP3    H174267   1.469   6.219  16.463  2.0475 -0.4382 -0.7500
17592TIP3    H274268   1.479   6.367  16.495 -2.9637 -0.2975  1.0574
17593TIP3   OH274269   2.797   4.954  15.710  0.4809 -0.2881 -0.0593
17593TIP3    H174270   2.856   4.939  15.636  2.0717 -0.8432  1.2749
17593TIP3    H274271   2.723   5.003  15.672  1.3104 -0.4320 -1.9673
17594TIP3   OH274272   4.099   4.762  15.607  0.0732 -0.2793 -0.1341
17594TIP3    H174273   4.030   4.826  15.589 -0.3984 -0.5877  0.5069
17594TIP3    H274274   4.175   4.814  15.633  0.2154  0.0821 -1.2252
17595TIP3   OH274275   2.985   6.419   5.291 -0.3428 -0.0689  0.3025
17595TIP3    H174276   2.997   6.412   5.385  1.1413  3.2054  0.4920
17595TIP3    H274277   3.056   6.366   5.254 -0.4375 -0.7050  1.0119
17596TIP3   OH274278   0.973   0.167  15.652  0.3999  0.6223 -0.2821
17596TIP3    H174279   0.988   0.127  15.738  0.2763  1.9246  0.3788
17596TIP3    H274280   0.959   0.093  15.593 -0.6984 -0.2935  1.0476
17597TIP3   OH274281   0.581   4.789   4.688 -0.1780  0.3373  0.0519
17597TIP3    H174282   0.524   4.848   4.640 -0.7771 -1.3195 -1.3686
17597TIP3    H274283   0.663   4.789   4.638 -0.0412  0.2687  0.2745
17598TIP3   OH274284   2.657   5.659  13.130  0.5027 -0.4295  0.1166
17598TIP3    H174285   2.648   5.678  13.223  1.7582 -1.1086  0.4020
17598TIP3    H274286   2.655   5.745  13.087 -2.2279 -0.2069  0.5130
17599TIP3   OH274287   1.912   6.719   2.398  0.1323 -0.5236  0.0927
17599TIP3    H174288   1.931   6.774   2.474  1.4417 -1.2061  0.3010
17599TIP3    H274289   1.863   6.645   2.435 -2.8347  1.0511 -0.3861
17600TIP3   OH274290   5.307   2.997  14.835 -0.6708 -0.1160 -0.4281
17600TIP3    H174291   5.224   2.961  14.805  0.3378 -2.4768 -0.5937
17600TIP3    H274292   5.368   2.981  14.763  0.2402  0.3260  0.2213
17601TIP3   OH274293   2.985   1.734  16.180 -0.1358  0.1440  0.2642
17601TIP3    H174294   2.919   1.671  16.152 -0.9827  0.4497  1.4876
17601TIP3    H274295   2.986   1.801  16.112  2.2631 -2.1119 -2.1944
17602TIP3   OH274296   5.996   3.418   4.369 -0.2177  1.1108 -0.2834
17602TIP3    H174297   5.925   3.378   4.318  0.5659  1.3027 -1.5575
17602TIP3    H274298   6.061   3.444   4.304  1.8453 -0.6254  0.9298
17603TIP3   OH274299   0.025   2.827  12.345  0.2752  0.5727  0.0329
17603TIP3    H174300  -0.055   2.837  12.396  0.3281 -0.8642  0.4315
17603TIP3    H274301   0.086   2.781  12.403  0.6052 -0.3752 -1.0148
17604TIP3   OH274302   5.731   4.895   3.352  0.7714  0.1647  0.2031
17604TIP3    H174303   5.802   4.945   3.392 -0.8291  2.5487  0.2829
17604TIP3    H274304   5.706   4.830   3.419 -0.8800  3.0941  2.7100
17605TIP3   OH274305   6.005   0.764  14.967 -0.2031 -0.2070  0.2152
17605TIP3    H174306   6.092   0.781  14.931 -0.1754  0.6743  0.6790
17605TIP3    H274307   6.000   0.668  14.973  0.6740 -0.2717  0.0417
17606TIP3   OH274308   5.654   3.694   2.974  0.1584 -0.3890  0.5012
17606TIP3    H174309   5.607   3.777   2.985  2.1958  1.1706 -1.6425
17606TIP3    H274310   5.593   3.628   3.008 -1.7421  1.8916  1.8552
17607TIP3   OH274311   3.624   2.623  13.544  0.4983 -0.1134  0.0863
17607TIP3    H174312   3.687   2.586  13.482  1.0854  2.1881 -0.7979
17607TIP3    H274313   3.538   2.603  13.506  0.8447  0.8283 -1.2450
17608TIP3   OH274314   5.124   1.098   0.368 -0.1472 -0.3717 -0.3417
17608TIP3    H174315   5.187   1.073   0.301 -0.0991 -2.2804  0.3746
17608TIP3    H274316   5.098   1.188   0.344  0.8417 -0.5210 -2.1278
17609TIP3   OH274317   3.334   3.010   5.420  0.0259  0.0407  0.4559
17609TIP3    H174318   3.276   3.045   5.353  0.1189 -1.9868 -0.7829
17609TIP3    H274319   3.277   2.961   5.479  0.1538  0.3790  0.8659
17610TIP3   OH274320   2.575   5.417   5.200 -0.1588  0.9430 -0.2545
17610TIP3    H174321   2.608   5.339   5.245  0.4343  1.2684 -0.1122
17610TIP3    H274322   2.654   5.461   5.168 -0.4344  1.9386  0.4237
17611TIP3   OH274323   4.913   2.351  10.572 -0.2373  0.5974  0.0101
17611TIP3    H174324   4.844   2.299  10.530 -0.4494  0.4965  0.4740
17611TIP3    H274325   4.971   2.376  10.500 -0.9557  0.9983 -0.4522
17612TIP3   OH274326   1.815   1.421  10.874  0.1904 -0.2785  0.2767
17612TIP3    H174327   1.846   1.365  10.803  0.5196 -0.5035  0.5932
17612TIP3    H274328   1.870   1.397  10.949 -0.5397 -0.4469  0.7640
17613TIP3   OH274329   0.820   1.882  15.496  0.0997  0.5386 -0.1024
17613TIP3    H174330   0.855   1.823  15.430 -0.1691 -1.6671  1.6118
17613TIP3    H274331   0.891   1.892  15.559 -1.0687 -1.1324  1.5837
17614TIP3   OH274332   5.187   3.246   2.010  0.3655  0.2687  0.1887
17614TIP3    H174333   5.221   3.233   2.098  0.8374 -0.3708 -0.0779
17614TIP3    H274334   5.245   3.311   1.971  1.8782 -1.4613 -0.5605
17615TIP3   OH274335   3.729   4.251   1.265 -0.3449  0.0385 -0.1798
17615TIP3    H174336   3.741   4.285   1.354  1.2933 -1.0766  0.0769
17615TIP3    H274337   3.638   4.270   1.244 -0.4937  1.2146  1.3476
17616TIP3   OH274338   2.971   4.817   2.720 -0.0808 -0.0948 -0.1890
17616TIP3    H174339   2.920   4.771   2.653  2.2510 -0.7050 -1.6488
17616TIP3    H274340   3.060   4.819   2.686  0.6568  2.1900  1.5942
17617TIP3   OH274341   4.274   5.512  13.778  0.4437 -0.0812  0.0882
17617TIP3    H174342   4.241   5.438  13.829  0.6093 -1.8382 -2.1622
17617TIP3    H274343   4.355   5.480  13.739 -0.6865  0.3289 -2.8595
17618TIP3   OH274344   3.437   1.287  11.585  0.2050 -0.6054  0.2980
17618TIP3    H174345   3.432   1.192  11.568  0.1115 -0.2530 -1.9440
17618TIP3    H274346   3.404   1.327  11.505  0.9301  1.3584  0.9324
17619TIP3   OH274347   2.740   2.769   5.420  0.0354  0.0798 -0.2990
17619TIP3    H174348   2.686   2.836   5.381  0.1661  1.2339  1.3798
17619TIP3    H274349   2.703   2.686   5.389 -0.5677  0.8906 -1.8343
17620TIP3   OH274350   3.700   4.500   1.898  0.6574  0.3427  0.0559
17620TIP3    H174351   3.643   4.552   1.956  0.0254  0.4060 -0.5982
17620TIP3    H274352   3.777   4.555   1.885  0.9788  0.1745  1.1137
17621TIP3   OH274353   6.386   5.272   4.520 -0.1294 -0.2833  0.2731
17621TIP3    H174354   6.468   5.306   4.556 -0.1423  1.5275 -1.2468
17621TIP3    H274355   6.335   5.247   4.597  0.7324  1.2754  1.4255
17622TIP3   OH274356   5.106   0.275  11.665 -0.6392 -0.4518  0.2776
17622TIP3    H174357   5.145   0.362  11.651  0.6696 -0.6357  2.3788
17622TIP3    H274358   5.015   0.285  11.639 -0.0699  0.9999 -1.3901
17623TIP3   OH274359   3.717   5.143   4.374  0.1879  0.0005 -0.6396
17623TIP3    H174360   3.770   5.167   4.299  0.2467 -2.0882 -1.3239
17623TIP3    H274361   3.776   5.094   4.431 -0.1831  0.4860  0.2015
17624TIP3   OH274362   6.509   4.411   1.718  0.3969  0.6494 -0.4733
17624TIP3    H174363   6.493   4.444   1.630 -1.0388 -0.0669 -0.5140
17624TIP3    H274364   6.531   4.319   1.706  4.1127  1.3481 -0.3384
17625TIP3   OH274365   4.003   2.632   3.185 -0.6822  0.5407  0.0552
17625TIP3    H174366   3.914   2.638   3.149 -0.4162  1.5670 -0.4666
17625TIP3    H274367   4.016   2.714   3.232  0.1152  0.5629 -0.1840
17626TIP3   OH274368   0.735   1.434   2.892  0.2553  0.5601 -1.0035
17626TIP3    H174369   0.724   1.387   2.809 -0.1042 -0.5823 -0.3338
17626TIP3    H274370   0.656   1.413   2.941  2.5690 -3.0135  1.6561
17627TIP3   OH274371   3.658   2.893  11.293  0.3111 -0.0901 -0.2622
17627TIP3    H174372   3.613   2.897  11.208 -1.4177  0.2705  0.6166
17627TIP3    H274373   3.591   2.919  11.356  2.3056  2.4229  0.9857
17628TIP3   OH274374   1.532   5.473  10.874 -0.3700 -0.1345 -0.3755
17628TIP3    H174375   1.516   5.566  10.855 -0.9835 -0.4132 -1.3063
17628TIP3    H274376   1.468   5.427  10.820  1.5745 -1.2023 -1.8988
17629TIP3   OH274377   4.716   2.815  14.671 -0.4291  0.1119  0.5363
17629TIP3    H174378   4.634   2.794  14.628 -0.0901 -3.4782  1.3611
17629TIP3    H274379   4.783   2.772  14.617  1.0759  3.2815 -0.3508
17630TIP3   OH274380   5.161   6.679  15.300  0.0470 -0.6444 -0.1160
17630TIP3    H174381   5.103   6.625  15.353  0.0286 -0.5168 -0.0047
17630TIP3    H274382   5.151   6.768  15.336 -0.4841 -0.4292 -0.7653
17631TIP3   OH274383   2.976   4.099   2.593  0.2550 -0.2695  0.0959
17631TIP3    H174384   2.941   4.014   2.617 -0.4888  0.4332  1.6502
17631TIP3    H274385   2.900   4.158   2.595  1.0567  0.7779  0.9411
17632TIP3   OH274386   0.437   0.670  14.127 -0.1617  0.2409 -0.4215
17632TIP3    H174387   0.431   0.576  14.144  1.9393 -0.1441 -1.4698
17632TIP3    H274388   0.479   0.706  14.205 -0.2613  0.1995 -0.3485
17633TIP3   OH274389   0.696   5.718  15.619 -0.8783  0.2311 -0.2062
17633TIP3    H174390   0.728   5.730  15.529  1.1183 -1.9239  0.0908
17633TIP3    H274391   0.602   5.735  15.614 -0.8371  0.1463 -2.7207
17634TIP3   OH274392   3.314   0.214   3.187  0.5182  0.0592 -0.5965
17634TIP3    H174393   3.352   0.126   3.192 -2.1721 -1.1679 -0.2303
17634TIP3    H274394   3.336   0.254   3.271 -0.1584 -1.1302  0.1711
17635TIP3   OH274395   0.628   2.038  15.319  0.3076 -0.4859 -0.1542
17635TIP3    H174396   0.709   2.016  15.366  0.4364  0.8861  0.3195
17635TIP3    H274397   0.558   2.001  15.372  0.4945  0.4986  0.8046
17636TIP3   OH274398   1.606   4.335   1.779 -0.2175  0.5765  0.2211
17636TIP3    H174399   1.569   4.367   1.862 -1.9500 -0.8135  0.0367
17636TIP3    H274400   1.582   4.242   1.776  1.2958  0.1848 -1.0640
17637TIP3   OH274401   1.484   2.020   5.774  0.1866 -0.3395  0.3290
17637TIP3    H174402   1.398   2.023   5.817 -1.0034  0.0996 -1.9373
17637TIP3    H274403   1.485   1.937   5.727  1.4710 -0.8229  1.1525
17638TIP3   OH274404   6.110   2.023  14.479  0.1151 -0.4411  0.3099
17638TIP3    H174405   6.114   2.084  14.553  0.1834 -0.5269  0.3775
17638TIP3    H274406   6.094   1.937  14.520 -2.2681 -0.1729  0.0863
17639TIP3   OH274407   3.298   5.636  13.267  0.1043 -0.3359 -0.3301
17639TIP3    H174408   3.385   5.618  13.233  0.2662  0.4009 -0.3139
17639TIP3    H274409   3.262   5.550  13.287  0.7738 -0.6525 -0.4677
17640TIP3   OH274410   2.827   0.702  14.847  0.1691 -0.5421 -0.0925
17640TIP3    H174411   2.905   0.729  14.895  0.6769  0.4475 -1.3984
17640TIP3    H274412   2.855   0.625  14.797  1.2290  1.3222 -2.6407
17641TIP3   OH274413   3.053   2.228  11.975 -0.4670 -0.6161  0.3715
17641TIP3    H174414   3.066   2.234  11.880 -0.5196 -0.3683  0.3805
17641TIP3    H274415   2.961   2.203  11.985 -1.0038  1.2539  0.3980
17642TIP3   OH274416   5.516   0.770   2.889  0.5395 -0.1994 -0.1341
17642TIP3    H174417   5.544   0.854   2.927  0.1437 -0.2835  0.3549
17642TIP3    H274418   5.501   0.713   2.965 -0.3593 -0.3474 -0.4097
17643TIP3   OH274419   4.275   4.030   0.846  0.1565 -0.3695 -0.3526
17643TIP3    H174420   4.261   3.950   0.898 -0.3693  1.0451  1.8204
17643TIP3    H274421   4.213   4.093   0.883  3.8194  2.5278  1.4552
17644TIP3   OH274422   5.982   0.165  14.155 -0.2830  0.5175 -0.3548
17644TIP3    H174423   6.068   0.134  14.185 -0.2111  0.6275 -0.4448
17644TIP3    H274424   5.977   0.255  14.187 -0.7646  0.2144  0.4655
17645TIP3   OH274425   6.283   0.550  13.163  0.2173 -0.2659 -0.1216
17645TIP3    H174426   6.356   0.493  13.138  0.8091 -0.0491  1.0349
17645TIP3    H274427   6.321   0.610  13.227 -1.2144 -0.8664  1.3527
17646TIP3   OH274428   4.522   0.365   4.402  0.3614  0.7577  0.1898
17646TIP3    H174429   4.467   0.396   4.473  1.9681  0.3390  1.6913
17646TIP3    H274430   4.510   0.271   4.401  1.1598  0.6376  0.6670
17647TIP3   OH274431   1.260   4.744   5.340 -0.1466  1.1830  0.1273
17647TIP3    H174432   1.169   4.735   5.312 -0.1291  0.1894  0.3439
17647TIP3    H274433   1.309   4.693   5.277  0.2754  1.7556 -0.0157
17648TIP3   OH274434   5.105   1.893   4.177  0.2879  0.1519 -0.9915
17648TIP3    H174435   5.193   1.864   4.201  1.0773  1.8839 -1.6566
17648TIP3    H274436   5.056   1.890   4.259  2.1804  3.3241  0.4137
17649TIP3   OH274437   1.309   0.223  12.412 -0.6102 -0.2117  0.2826
17649TIP3    H174438   1.373   0.248  12.345  0.1919  0.0649  1.1264
17649TIP3    H274439   1.228   0.208  12.364  0.2790 -1.4052 -0.9482
17650TIP3   OH274440   1.645   3.558   5.828  0.6580  0.5923  0.1473
17650TIP3    H174441   1.676   3.647   5.813  1.1964  0.7375  1.9501
17650TIP3    H274442   1.624   3.554   5.921  0.3171 -1.0803  0.0448
17651TIP3   OH274443   6.582   2.368  15.942 -0.0330  0.5520  0.4256
17651TIP3    H174444   6.636   2.361  15.863  0.0212 -0.3871  0.5290
17651TIP3    H274445   6.640   2.340  16.013 -0.2286  0.9193  0.7323
17652TIP3   OH274446   0.696   5.978   0.402 -0.4429  0.6630  0.0711
17652TIP3    H174447   0.614   5.968   0.449 -1.7384 -1.7589 -2.4398
17652TIP3    H274448   0.718   5.890   0.371  0.5149  1.9400 -3.3725
17653TIP3   OH274449   2.491   5.917  13.735  0.1219 -0.3754 -0.0564
17653TIP3    H174450   2.533   5.991  13.691 -1.6472  0.0351 -1.1480
17653TIP3    H274451   2.437   5.877  13.667 -1.0674 -1.0059  1.2259
17654TIP3   OH274452   6.645   2.409  12.998 -0.2014  0.0107 -0.1398
17654TIP3    H174453   6.682   2.425  13.085  1.3023 -0.6167 -0.6307
17654TIP3    H274454   6.615   2.495  12.969  2.0315  0.8329 -0.1979
17655TIP3   OH274455   0.829   6.723  13.239 -0.7942 -0.0811  0.1198
17655TIP3    H174456   0.772   6.753  13.168 -0.4824 -0.0065 -0.1057
17655TIP3    H274457   0.770   6.685  13.304 -1.3157  1.9407  0.8982
17656TIP3   OH274458   1.786   5.390   3.861  0.2570 -0.2808  0.0247
17656TIP3    H174459   1.783   5.297   3.883 -0.1715 -0.1097  0.7056
17656TIP3    H274460   1.721   5.400   3.791  0.7482 -0.5987 -0.4891
17657TIP3   OH274461   0.496   0.615  16.848  0.4386 -0.6547 -0.0757
17657TIP3    H174462   0.539   0.530  16.838 -1.9283 -2.0327  0.5348
17657TIP3    H274463   0.445   0.606  16.929 -1.3302  0.6611 -0.9712
17658TIP3   OH274464   0.008   3.151   5.808 -0.0677  0.6366 -0.1089
17658TIP3    H174465  -0.014   3.066   5.769  0.5037  1.2138 -1.7548
17658TIP3    H274466  -0.069   3.206   5.793 -1.1179  0.0300  2.3934
17659TIP3   OH274467   0.108   6.213   5.794  0.2377 -0.7159 -0.2311
17659TIP3    H174468   0.188   6.192   5.842  1.2104  0.3767 -1.3036
17659TIP3    H274469   0.138   6.257   5.714 -1.4417 -0.0121 -0.5305
17660TIP3   OH274470   5.974   4.211   0.646  0.2550 -0.3009 -0.6525
17660TIP3    H174471   5.968   4.149   0.574  2.1695  0.3494 -1.4371
17660TIP3    H274472   6.033   4.279   0.614 -1.7279  1.9431  0.1852
17661TIP3   OH274473   2.206   0.979   3.094  0.7101  0.6895 -0.0576
17661TIP3    H174474   2.216   0.888   3.122 -0.4061  0.4133 -0.5072
17661TIP3    H274475   2.192   1.028   3.175  1.0323  0.4202  0.1623
17662TIP3   OH274476   0.783   4.070   4.606  0.8900 -0.2402 -0.2281
17662TIP3    H174477   0.813   3.979   4.617  0.5464 -0.3361 -0.0910
17662TIP3    H274478   0.709   4.078   4.665  2.0841  0.6950  1.2060
17663TIP3   OH274479   3.953   2.904   2.782  0.1510 -0.6367 -0.0723
17663TIP3    H174480   3.888   2.948   2.838 -1.7964 -1.7796 -1.3186
17663TIP3    H274481   4.012   2.974   2.755 -1.0329  0.6342  0.4740
17664TIP3   OH274482   6.679   1.732  14.770 -0.2312  0.0647  0.0989
17664TIP3    H174483   6.671   1.792  14.844  1.9458  0.4644  0.0709
17664TIP3    H274484   6.710   1.787  14.698  0.0796 -0.7653 -0.4165
17665TIP3   OH274485   1.703   6.136  12.500 -0.4603 -0.0496 -0.2430
17665TIP3    H174486   1.697   6.222  12.457  3.6472  0.7519  0.4015
17665TIP3    H274487   1.746   6.080  12.436  1.3477 -0.1642  0.9929
17666TIP3   OH274488   2.401   1.496   4.149 -0.3596 -0.0054  0.4621
17666TIP3    H174489   2.336   1.438   4.110 -1.5864  1.6370 -0.0289
17666TIP3    H274490   2.431   1.450   4.227 -0.1408 -1.9701 -0.7174
17667TIP3   OH274491   0.724   4.007  15.881  0.1893  0.0674 -0.0772
17667TIP3    H174492   0.690   4.089  15.845  1.4432  0.5119 -0.2602
17667TIP3    H274493   0.804   3.989  15.831  1.0495 -0.1921  1.3439
17668TIP3   OH274494   4.688   0.624   5.112  0.4840  0.6938  0.5769
17668TIP3    H174495   4.679   0.708   5.066  0.7634  0.4913  0.1464
17668TIP3    H274496   4.686   0.647   5.204 -2.8117  0.8716  0.5740
17669TIP3   OH274497   0.859   4.004  15.195 -0.4215  0.0283 -0.7577
17669TIP3    H174498   0.811   3.947  15.255 -0.4405  0.1067 -0.6970
17669TIP3    H274499   0.792   4.064  15.160 -0.0898  1.3129  0.6976
17670TIP3   OH274500   3.968   5.901  16.093 -0.8311 -0.2289 -0.2025
17670TIP3    H174501   3.941   5.977  16.144  1.7479  0.5358  0.1740
17670TIP3    H274502   3.907   5.832  16.119 -1.0849  0.7878  2.1357
17671TIP3   OH274503   5.714   0.487   5.656 -0.4114 -0.3974  0.0533
17671TIP3    H174504   5.721   0.473   5.751  0.1568  0.5074  0.1628
17671TIP3    H274505   5.772   0.561   5.639 -0.2764 -0.7477 -1.0564
17672TIP3   OH274506   6.083   1.878  14.872 -0.1556 -0.5978  0.0342
17672TIP3    H174507   6.029   1.957  14.880  1.6943  0.5518  1.9909
17672TIP3    H274508   6.171   1.906  14.895  1.0818 -2.7226 -1.7270
17673TIP3   OH274509   1.442   2.312   4.574 -0.1984  0.8622  0.4685
17673TIP3    H174510   1.347   2.325   4.574 -0.0435  2.3047 -0.9164
17673TIP3    H274511   1.468   2.325   4.483  1.5019  2.0830  1.0808
17674TIP3   OH274512   2.868   5.801  12.512 -0.2561  0.1042  0.4202
17674TIP3    H174513   2.874   5.873  12.574  2.0074  0.7081 -0.4069
17674TIP3    H274514   2.843   5.842  12.429  0.1104 -0.1749  0.1631
17675TIP3   OH274515   0.619   2.376   3.577  0.2243 -0.4914 -0.1608
17675TIP3    H174516   0.597   2.417   3.660 -1.4047 -2.5678  0.5105
17675TIP3    H274517   0.558   2.415   3.514 -0.8392 -1.3310  0.3273
17676TIP3   OH274518   2.057   2.014   5.599  0.2120 -0.3376 -0.7026
17676TIP3    H174519   2.025   1.990   5.512  1.6133  0.2563 -1.4208
17676TIP3    H274520   2.088   1.932   5.637 -2.3146 -0.9838  0.1344
17677TIP3   OH274521   0.390   5.279   2.145  0.1670 -0.2510  0.3221
17677TIP3    H174522   0.462   5.245   2.198  1.2752 -1.5943 -1.8539
17677TIP3    H274523   0.317   5.220   2.163  0.3438 -0.3377  0.7736
17678TIP3   OH274524   4.849   3.631  14.615  0.7388 -0.0348 -1.0450
17678TIP3    H174525   4.795   3.554  14.631 -0.0421  0.4053 -1.4774
17678TIP3    H274526   4.848   3.679  14.698 -0.5476  0.5668 -1.3740
17679TIP3   OH274527   6.042   4.315   5.103 -0.1057 -0.2227  0.7832
17679TIP3    H174528   5.969   4.336   5.162  0.2250  2.5451  0.3553
17679TIP3    H274529   5.999   4.291   5.021 -0.5400 -2.7554  1.6732
17680TIP3   OH274530   5.936   0.301   5.602 -0.4253 -0.0917 -0.5013
17680TIP3    H174531   5.866   0.362   5.622 -0.4116 -0.8483  2.2464
17680TIP3    H274532   6.012   0.334   5.650 -0.2935 -1.9579  0.6516
17681TIP3   OH274533   0.999   6.589   6.608 -0.3674  0.2498 -0.0003
17681TIP3    H174534   1.055   6.594   6.686  0.2023  1.3453 -0.4617
17681TIP3    H274535   1.055   6.618   6.536 -0.8900 -0.7427 -0.8367
17682TIP3   OH274536   5.421   3.199  11.831  0.0560  0.6197 -0.2069
17682TIP3    H174537   5.437   3.293  11.831  2.0790  0.3213 -0.3758
17682TIP3    H274538   5.495   3.162  11.781  0.4938 -1.2171  1.6651
17683TIP3   OH274539   5.488   1.575   3.692 -0.4549 -0.5862 -0.2347
17683TIP3    H174540   5.461   1.506   3.631 -2.1581  0.0654 -0.2863
17683TIP3    H274541   5.516   1.647   3.635 -3.4007  0.5616 -0.4055
17684TIP3   OH274542   5.215   5.966   3.786 -0.0491  0.5301  0.0609
17684TIP3    H174543   5.188   5.957   3.694  0.4818 -0.5022 -0.0119
17684TIP3    H274544   5.165   6.041   3.819 -3.4415 -1.5281  0.0651
17685TIP3   OH274545   1.211   4.343   4.291  0.4613  0.3638 -0.0899
17685TIP3    H174546   1.172   4.425   4.261  0.6489  0.9733  1.3047
17685TIP3    H274547   1.137   4.294   4.328  0.3661 -0.0806 -0.8383
17686TIP3   OH274548   3.340   2.804   5.678  0.1917 -0.8999  0.2509
17686TIP3    H174549   3.421   2.782   5.631  0.6795 -0.4706  0.8765
17686TIP3    H274550   3.311   2.722   5.716  0.4175 -1.0273  0.1510
17687TIP3   OH274551   1.732   0.842   2.868  0.7867  0.3107  0.8687
17687TIP3    H174552   1.787   0.903   2.917  0.4384  0.4941  1.0347
17687TIP3    H274553   1.681   0.797   2.935 -0.9022  1.7276  0.5998
17688TIP3   OH274554   0.649   0.328  12.050 -0.2257  0.2713 -0.7191
17688TIP3    H174555   0.669   0.257  11.988 -1.2085  0.0474 -0.7945
17688TIP3    H274556   0.607   0.284  12.124  0.9029  0.5460  0.1034
17689TIP3   OH274557   4.392   5.954  13.147 -0.3467  0.2687 -0.1987
17689TIP3    H174558   4.447   5.989  13.217 -1.6538 -3.6394  3.2014
17689TIP3    H274559   4.454   5.923  13.082  0.9694  3.2427 -0.5262
17690TIP3   OH274560   5.626   1.933   3.043  0.1089 -0.3030  0.0058
17690TIP3    H174561   5.580   1.871   3.099  0.6724 -0.8524 -0.1220
17690TIP3    H274562   5.557   1.977   2.993 -0.3315 -0.4576  0.4757
17691TIP3   OH274563   3.133   1.400   6.304  0.1971  0.5216  0.2209
17691TIP3    H174564   3.163   1.327   6.359 -0.4954  0.6578  0.7835
17691TIP3    H274565   3.146   1.478   6.359  0.4443  0.7719 -0.1869
17692TIP3   OH274566   4.506   3.574   0.601  0.2332  0.1780  0.1118
17692TIP3    H174567   4.557   3.632   0.544 -1.4254  1.3842 -0.2093
17692TIP3    H274568   4.550   3.489   0.594  1.8191  1.0049 -0.6160
17693TIP3   OH274569   4.994   0.004   6.553  0.2281 -0.1366 -0.7321
17693TIP3    H174570   4.916   0.019   6.606  1.0085  1.8723 -0.0843
17693TIP3    H274571   5.015  -0.088   6.568 -1.5975 -0.5374 -0.3831
17694TIP3   OH274572   4.505   5.557  15.437  0.4462  0.2423 -0.4205
17694TIP3    H174573   4.467   5.617  15.500 -1.2890 -0.4877 -0.7051
17694TIP3    H274574   4.533   5.481  15.489  1.6722  0.8164 -0.1995
17695TIP3   OH274575   3.614   4.636  13.386 -0.2479  0.2362  0.1129
17695TIP3    H174576   3.682   4.692  13.426 -0.6598 -0.2521  1.5472
17695TIP3    H274577   3.532   4.682  13.404 -0.3963  0.2878 -0.6839
17696TIP3   OH274578   0.733   3.511  14.294  0.0422  0.3548  0.0710
17696TIP3    H174579   0.759   3.466  14.213 -0.4464  2.2805 -1.2167
17696TIP3    H274580   0.801   3.575  14.309 -0.7357  1.1619  0.2142
17697TIP3   OH274581   0.693   5.506  14.521  0.0767 -0.4004  0.5884
17697TIP3    H174582   0.723   5.441  14.458  2.5336  1.2902 -0.1069
17697TIP3    H274583   0.615   5.544  14.481 -0.3663 -1.6562  0.2038
17698TIP3   OH274584   0.202   6.191  15.254 -0.0702 -0.1283 -0.3549
17698TIP3    H174585   0.219   6.110  15.205 -0.9426 -0.5240 -0.0231
17698TIP3    H274586   0.171   6.253  15.188 -1.2737 -0.6681 -0.3251
17699TIP3   OH274587   5.454   1.360  10.873  0.0502  0.3166  0.3713
17699TIP3    H174588   5.459   1.403  10.958  0.9997 -0.4428  0.7116
17699TIP3    H274589   5.480   1.428  10.811 -2.7950  1.5781  0.3906
17700TIP3   OH274590   6.128   4.638  10.844  0.6823 -0.6908 -0.3565
17700TIP3    H174591   6.045   4.663  10.885  1.6518  0.8368  0.7902
17700TIP3    H274592   6.178   4.596  10.914  0.9735 -1.3776 -0.9712
17701TIP3   OH274593   1.669   2.566  15.871  0.5440  0.1867  0.0545
17701TIP3    H174594   1.681   2.479  15.833 -0.2649 -1.1348  2.6017
17701TIP3    H274595   1.636   2.550  15.959  0.6395  3.0926  0.7372
17702TIP3   OH274596   0.672   2.936  11.868  0.5568 -0.0781  1.0271
17702TIP3    H174597   0.594   2.909  11.916 -0.8146  3.3346  0.9769
17702TIP3    H274598   0.656   2.908  11.778 -0.5405  0.4021  1.0561
17703TIP3   OH274599   3.465   3.734   1.646 -0.4774  0.2860 -0.0600
17703TIP3    H174600   3.542   3.678   1.635 -1.4592 -1.9513  3.0251
17703TIP3    H274601   3.499   3.817   1.679  0.6307 -0.7603  1.5218
17704TIP3   OH274602   0.444   3.940   2.493 -0.0825 -0.3068 -0.0959
17704TIP3    H174603   0.430   3.971   2.403 -3.1463  0.3874  0.5392
17704TIP3    H274604   0.442   4.020   2.546  1.2375 -0.7612  0.6810
17705TIP3   OH274605   4.847   6.222   0.076 -0.4702  0.1192  0.2358
17705TIP3    H174606   4.890   6.232   0.161 -1.1559  0.8080  0.5126
17705TIP3    H274607   4.784   6.295   0.073 -0.3838  0.1510 -0.8986
17706TIP3   OH274608   1.283   5.862  16.751 -0.0388 -0.1674  0.9635
17706TIP3    H174609   1.214   5.914  16.710  0.9001  1.3376  1.2085
17706TIP3    H274610   1.243   5.776  16.765 -1.6793  0.4922  0.5955
17707TIP3   OH274611   2.514   2.216   1.453 -0.0050 -0.4208  0.0162
17707TIP3    H174612   2.484   2.173   1.373  0.1168 -0.8039  0.1731
17707TIP3    H274613   2.609   2.210   1.449  0.0019 -0.4141  0.1776
17708TIP3   OH274614   3.542   6.599  13.182 -0.3028  0.1573 -0.0237
17708TIP3    H174615   3.511   6.536  13.117 -2.0935  0.8674  0.0894
17708TIP3    H274616   3.561   6.678  13.131 -1.6185  0.6843  0.2694
17709TIP3   OH274617   5.793   2.259  17.056  0.0040 -0.0939  0.0249
17709TIP3    H174618   5.787   2.329  16.992  1.5582  0.9066  0.8939
17709TIP3    H274619   5.720   2.275  17.116  1.0103  1.5746  0.9010
17710TIP3   OH274620   3.347   5.275   5.974  0.4371 -0.7229  0.2392
17710TIP3    H174621   3.436   5.307   5.989  0.0374  0.6034 -0.0754
17710TIP3    H274622   3.295   5.315   6.044 -0.0051 -1.0311  0.0901
17711TIP3   OH274623   5.413   2.968  14.566 -0.7652 -0.7226  0.1924
17711TIP3    H174624   5.446   2.939  14.480  0.3908 -1.9738  1.0207
17711TIP3    H274625   5.471   3.040  14.590 -0.8462 -0.6276  0.1066
17712TIP3   OH274626   3.668   1.554  10.849 -0.3749  0.5736  0.0539
17712TIP3    H174627   3.633   1.550  10.760  0.0169 -1.3393 -0.0743
17712TIP3    H274628   3.750   1.505  10.845  0.4127  1.7294  1.1646
17713TIP3   OH274629   5.177   6.397  16.717 -0.1191  0.4730  0.6616
17713TIP3    H174630   5.221   6.312  16.716 -0.7883  0.0952  1.5374
17713TIP3    H274631   5.162   6.418  16.625 -1.4567 -1.1694  0.4498
17714TIP3   OH274632   0.738   4.863   0.352  0.1903  0.3950  0.9422
17714TIP3    H174633   0.771   4.818   0.430  0.2750  2.1202  1.9655
17714TIP3    H274634   0.643   4.858   0.360  0.1422 -1.8075 -0.3337
17715TIP3   OH274635   5.340   1.146  10.994  0.6199  0.5877  0.4541
17715TIP3    H174636   5.372   1.221  10.943  0.3709  0.1932 -0.3129
17715TIP3    H274637   5.391   1.147  11.074  1.2530  1.0557  0.0522
17716TIP3   OH274638   4.442   3.190   0.400 -0.3168  0.1983 -1.0969
17716TIP3    H174639   4.355   3.151   0.407 -0.2501  0.2308  0.3239
17716TIP3    H274640   4.496   3.120   0.362 -0.3049 -1.0126  0.9733
17717TIP3   OH274641   0.811   2.860  15.347 -0.2635 -0.0881  0.4227
17717TIP3    H174642   0.870   2.838  15.275  0.8786 -0.7662  1.5249
17717TIP3    H274643   0.731   2.892  15.304 -0.0420 -1.5290 -1.1602
17718TIP3   OH274644   6.138   2.459  13.510 -0.6688  0.3529  0.5199
17718TIP3    H174645   6.208   2.398  13.535  1.0352  2.2181  0.5942
17718TIP3    H274646   6.124   2.513  13.588 -0.8331  1.2095 -0.0835
17719TIP3   OH274647   5.843   5.243   0.610  0.0924 -0.1140  0.2982
17719TIP3    H174648   5.906   5.185   0.568 -0.3734 -0.8714  0.6159
17719TIP3    H274649   5.806   5.295   0.538 -0.6901 -1.3873 -0.2523
17720TIP3   OH274650   4.102   6.281   1.549  0.2394  0.2639  0.1180
17720TIP3    H174651   4.026   6.270   1.493 -1.4441 -0.5900  2.4278
17720TIP3    H274652   4.128   6.372   1.538 -0.4736  0.3055 -1.4423
17721TIP3   OH274653   2.653   6.181  12.300  0.2399 -0.4571  0.5049
17721TIP3    H174654   2.604   6.205  12.378 -0.6062 -0.4118 -0.0170
17721TIP3    H274655   2.674   6.265  12.258  0.7855 -0.4762  0.7304
17722TIP3   OH274656   4.690   0.419   4.912  0.4250  0.4125 -0.3266
17722TIP3    H174657   4.646   0.469   4.981  0.7255  1.2574 -0.7209
17722TIP3    H274658   4.773   0.466   4.898  1.5594 -1.2625  0.5422
17723TIP3   OH274659   0.874   5.724  13.346 -0.3193 -0.6342  0.1194
17723TIP3    H174660   0.783   5.696  13.341 -1.0465  1.0832  2.1601
17723TIP3    H274661   0.876   5.809  13.302  0.4316 -0.8889 -0.3635
17724TIP3   OH274662   2.623   5.564   3.863 -0.5665 -0.4838 -0.5484
17724TIP3    H174663   2.578   5.648   3.860 -1.7349 -0.9696  1.5053
17724TIP3    H274664   2.554   5.499   3.848 -0.4197 -1.1920  1.4745
17725TIP3   OH274665   2.477   2.129   4.819 -0.0669  0.1487 -0.6251
17725TIP3    H174666   2.466   2.219   4.789 -1.9579  0.8580  1.8858
17725TIP3    H274667   2.399   2.083   4.789  0.2727 -0.3333 -0.7878
17726TIP3   OH274668   0.486   6.519   3.395  0.4520  0.0707  0.1224
17726TIP3    H174669   0.466   6.469   3.474 -0.1013  0.1012  0.0071
17726TIP3    H274670   0.566   6.567   3.416  0.1756  0.2625  0.7451
17727TIP3   OH274671   6.789   2.856   3.803  0.1707 -0.0758  0.3089
17727TIP3    H174672   6.705   2.898   3.822 -0.7502 -0.9899 -1.4825
17727TIP3    H274673   6.847   2.886   3.873 -0.6612  3.3221 -0.2856
17728TIP3   OH274674   3.553   0.226   3.770  0.2787 -0.8719  0.3487
17728TIP3    H174675   3.589   0.313   3.785  2.6005 -1.6931 -0.0328
17728TIP3    H274676   3.531   0.194   3.857 -0.0795 -0.1134  0.5417
17729TIP3   OH274677   1.752   3.887  16.688 -0.3043 -0.1055 -0.5109
17729TIP3    H174678   1.667   3.860  16.723 -1.2664  0.8804 -1.9958
17729TIP3    H274679   1.763   3.977  16.718  1.6530 -1.0895  2.1522
17730TIP3   OH274680   2.375   0.608   6.867 -0.2340  0.7975  0.1128
17730TIP3    H174681   2.339   0.662   6.797 -1.4021 -0.1764 -0.0617
17730TIP3    H274682   2.455   0.571   6.829 -0.1802  1.2829 -0.2551
17731TIP3   OH274683   0.923   6.033  14.782  0.1063  0.1094 -0.1199
17731TIP3    H174684   0.933   6.087  14.860  2.0631 -0.7843  0.3011
17731TIP3    H274685   0.951   5.946  14.808  0.2851 -0.3394 -1.6797
17732TIP3   OH274686   1.042   1.520   2.866  0.0161  0.0434  0.5430
17732TIP3    H174687   1.082   1.442   2.906 -0.1104 -0.1871  0.2321
17732TIP3    H274688   0.949   1.497   2.857  0.2503 -0.4209 -1.0294
17733TIP3   OH274689   5.706   3.031  16.665 -0.4741  0.3772 -0.3954
17733TIP3    H174690   5.719   3.084  16.743  0.9898 -1.4489  0.6659
17733TIP3    H274691   5.791   2.993  16.647 -1.0649 -0.1892 -2.1937
17734TIP3   OH274692   3.172   1.088   3.834  0.0640 -0.3868  0.5096
17734TIP3    H174693   3.241   1.028   3.859  1.0657  0.2915 -0.5450
17734TIP3    H274694   3.100   1.068   3.894  1.1164 -1.1870  1.5491
17735TIP3   OH274695   1.182   2.941   3.457 -0.4209  0.5995  0.2058
17735TIP3    H174696   1.145   2.993   3.528 -0.0814  0.6244  0.3699
17735TIP3    H274697   1.131   2.860   3.457 -0.5662  0.6900  0.3345
17736TIP3   OH274698   6.665   6.604  13.015  0.2099 -0.2137 -0.3257
17736TIP3    H174699   6.629   6.516  13.010  1.9835 -0.9143 -1.9738
17736TIP3    H274700   6.590   6.661  12.999 -1.0035 -1.3718  0.9782
17737TIP3   OH274701   5.394   6.132   3.176 -0.2511  0.2024  0.0076
17737TIP3    H174702   5.437   6.052   3.205 -0.2181 -0.0966 -0.8538
17737TIP3    H274703   5.462   6.180   3.129 -1.0800 -0.7895 -2.3527
17738TIP3   OH274704   4.276   0.868   5.771  0.3581  0.5449  0.0673
17738TIP3    H174705   4.243   0.926   5.841 -0.5402 -0.5045  0.5444
17738TIP3    H274706   4.294   0.785   5.815 -0.1707 -0.1201 -0.9346
17739TIP3   OH274707   5.146   3.322   3.905 -0.2104 -0.4344  0.2332
17739TIP3    H174708   5.073   3.264   3.925  0.3878 -0.8124  1.4390
17739TIP3    H274709   5.175   3.355   3.990 -0.3023  1.3680 -0.3865
17740TIP3   OH274710   6.449   3.848   0.866 -0.2577  0.0186 -0.5503
17740TIP3    H174711   6.475   3.756   0.863 -0.7195 -0.0841 -2.5255
17740TIP3    H274712   6.356   3.847   0.842 -0.9127  0.8295  1.6809
17741TIP3   OH274713   4.422   6.530  12.068  0.0847 -0.6195  0.2725
17741TIP3    H174714   4.506   6.570  12.090 -0.4185 -0.4846  2.1840
17741TIP3    H274715   4.435   6.492  11.981  1.6998  0.5243 -0.0404
17742TIP3   OH274716   0.306   1.653   1.142  0.1550 -0.5805 -0.4924
17742TIP3    H174717   0.327   1.702   1.222 -0.6204 -1.8004  0.5034
17742TIP3    H274718   0.231   1.699   1.105  0.4972 -0.0274 -0.5142
17743TIP3   OH274719   3.930   6.035  11.692  0.1765 -0.4853  0.0446
17743TIP3    H174720   3.861   6.018  11.628  1.1371  0.0749 -1.1872
17743TIP3    H274721   4.001   5.976  11.667  2.1933  2.5514 -2.1177
17744TIP3   OH274722   1.394   5.426   1.218  0.6760 -0.2057 -0.4017
17744TIP3    H174723   1.351   5.392   1.139  0.4115  0.3089 -0.4840
17744TIP3    H274724   1.325   5.429   1.283 -0.2462  3.3650 -1.3097
17745TIP3   OH274725   2.238   4.788   1.614  0.5035  0.0734 -0.0595
17745TIP3    H174726   2.251   4.795   1.520  1.2496  0.0397  0.0382
17745TIP3    H274727   2.267   4.700   1.637  0.3601  0.0924  0.2045
17746TIP3   OH274728   1.526   0.886   0.636 -0.6197  0.1097 -0.6670
17746TIP3    H174729   1.604   0.849   0.677 -1.5665 -0.3316  0.8082
17746TIP3    H274730   1.552   0.974   0.609  0.5280 -0.2191 -0.6765
17747TIP3   OH274731   4.340   3.890  13.287  0.0783 -0.7628  0.0147
17747TIP3    H174732   4.264   3.941  13.259  0.3380 -1.1587 -1.4784
17747TIP3    H274733   4.394   3.953  13.336 -1.0085 -0.3850  0.7720
17748TIP3   OH274734   1.183   3.805  13.276  0.2342 -0.3111  0.5923
17748TIP3    H174735   1.131   3.792  13.196 -0.4749 -0.6374  1.0980
17748TIP3    H274736   1.225   3.890  13.263 -0.7422  0.1536  0.3318
17749TIP3   OH274737   6.581   2.259   2.520 -0.0230  0.1991 -0.1009
17749TIP3    H174738   6.490   2.286   2.536 -0.2266 -0.1840 -0.5787
17749TIP3    H274739   6.617   2.243   2.607 -0.4151  0.3562  0.0920
17750TIP3   OH274740   6.173   6.251   0.425 -0.2511  0.1224 -0.2607
17750TIP3    H174741   6.260   6.228   0.457 -0.5595  1.3984  1.6529
17750TIP3    H274742   6.190   6.312   0.353  0.4422  0.2005 -0.0414
17751TIP3   OH274743   4.606   2.358   4.496 -0.0550  0.0148  0.0568
17751TIP3    H174744   4.604   2.414   4.418  0.9184  1.3744  0.9633
17751TIP3    H274745   4.677   2.296   4.479 -0.2213 -0.0658 -0.3668
17752TIP3   OH274746   6.645   1.022   1.585 -0.0758 -0.6789  1.3115
17752TIP3    H174747   6.575   1.087   1.584 -0.9617 -1.6011  1.8117
17752TIP3    H274748   6.625   0.967   1.661  0.4085 -1.8002  0.6436
17753TIP3   OH274749   3.713   3.623  11.597 -0.1862 -0.0162 -0.2553
17753TIP3    H174750   3.654   3.547  11.597 -0.4938  0.2157  0.1602
17753TIP3    H274751   3.789   3.594  11.547 -1.4653  0.3264 -2.5215
17754TIP3   OH274752   4.616   5.050  12.852 -0.4063 -0.2207 -0.3843
17754TIP3    H174753   4.624   5.086  12.764  1.2944  1.5093  0.3948
17754TIP3    H274754   4.694   4.996  12.864 -0.3946 -0.0832  0.2171
17755TIP3   OH274755   4.520   3.673  14.689 -0.2278 -0.1578 -0.0466
17755TIP3    H174756   4.461   3.600  14.708 -1.3089  0.6576 -0.1793
17755TIP3    H274757   4.597   3.632  14.650  0.1893 -1.4367  1.9881
17756TIP3   OH274758   0.878   0.918   3.960 -0.0445  0.0593 -0.3796
17756TIP3    H174759   0.925   0.909   4.043 -0.4905  0.4704 -0.0795
17756TIP3    H274760   0.920   0.855   3.902 -0.1266 -0.6713  0.3408
17757TIP3   OH274761   4.897   3.447  15.290  0.1449 -0.2306  0.2369
17757TIP3    H174762   4.860   3.361  15.308  2.2339 -0.9665  1.4711
17757TIP3    H274763   4.973   3.428  15.234  0.0558  0.9262 -0.2910
17758TIP3   OH274764   5.172   6.768  14.154 -0.5479 -0.3717  0.9077
17758TIP3    H174765   5.249   6.740  14.203 -1.1898 -2.0786  1.0077
17758TIP3    H274766   5.102   6.772  14.219 -1.2894 -2.1538  0.2578
17759TIP3   OH274767   5.574   5.873   4.476 -0.3075 -0.3430  0.1031
17759TIP3    H174768   5.512   5.802   4.461  0.0906 -0.4027 -1.3780
17759TIP3    H274769   5.595   5.866   4.569 -0.7528 -1.7816  0.1251
17760TIP3   OH274770   2.224   4.281  11.837 -0.0193  0.0611  0.3481
17760TIP3    H174771   2.194   4.310  11.923 -2.7571 -0.2593 -0.3906
17760TIP3    H274772   2.149   4.235  11.800  1.8334 -1.8023 -1.3411
17761TIP3   OH274773   6.502   0.096   3.718 -0.1550 -0.1103  0.1992
17761TIP3    H174774   6.489   0.158   3.790  1.2038  1.1211 -0.5802
17761TIP3    H274775   6.482   0.146   3.639  2.1137 -0.2655 -0.5306
17762TIP3   OH274776   6.477   4.288  15.870 -0.1084  0.0651 -0.1802
17762TIP3    H174777   6.409   4.330  15.818 -0.3240 -1.1820 -0.9524
17762TIP3    H274778   6.444   4.199  15.886  2.0995 -1.2323 -2.2054
17763TIP3   OH274779   5.136   3.731   2.261  0.2622 -0.4973  0.3393
17763TIP3    H174780   5.053   3.722   2.214  0.4465  1.4772 -0.4691
17763TIP3    H274781   5.144   3.650   2.312 -0.6046 -2.1164 -1.9523
17764TIP3   OH274782   3.420   5.386   4.385  0.2707  0.2108 -0.1679
17764TIP3    H174783   3.363   5.322   4.427 -1.8233  0.2818 -2.6772
17764TIP3    H274784   3.509   5.359   4.409 -0.6124 -2.6819  0.1200
17765TIP3   OH274785   0.804   3.069   1.984 -0.3154  0.1856  0.0690
17765TIP3    H174786   0.822   3.010   2.057 -0.4236  1.2287  0.9722
17765TIP3    H274787   0.756   3.016   1.920 -2.7765 -0.1073  1.9884
17766TIP3   OH274788   3.165   6.507   3.324 -0.2556  0.1867  0.5308
17766TIP3    H174789   3.251   6.492   3.362  0.6542  1.8448 -0.7846
17766TIP3    H274790   3.132   6.419   3.304  0.7584 -0.5080  1.7879
17767TIP3   OH274791   3.973   2.734   6.032  0.2883 -0.1388 -0.2558
17767TIP3    H174792   3.948   2.652   5.990  1.4569 -0.3139 -0.6191
17767TIP3    H274793   3.931   2.802   5.978 -1.6232 -0.4882  0.6839
17768TIP3   OH274794   4.118   2.327   5.495 -0.2594  0.2137 -0.4257
17768TIP3    H174795   4.115   2.417   5.461 -1.6219  1.1089  1.8083
17768TIP3    H274796   4.043   2.284   5.455 -0.8029  0.7129  0.0342
17769TIP3   OH274797   1.486   3.914  15.095  0.4886  0.1228  0.3432
17769TIP3    H174798   1.499   3.851  15.166 -0.2277  1.3223  1.5865
17769TIP3    H274799   1.568   3.964  15.092  0.8592 -0.4992 -0.2997
17770TIP3   OH274800   1.589   2.286   0.792 -0.1444 -0.2957 -0.5260
17770TIP3    H174801   1.602   2.312   0.883 -1.0992  2.5071 -1.0781
17770TIP3    H274802   1.569   2.368   0.747  0.7086 -1.5365 -3.3546
17771TIP3   OH274803   3.709   1.366  14.665 -0.5485 -0.2099 -0.0330
17771TIP3    H174804   3.771   1.295  14.645  0.5217  0.4440  0.8575
17771TIP3    H274805   3.742   1.441  14.616 -0.2661  0.3037  0.9232
17772TIP3   OH274806   6.245   6.250  14.848 -0.1970  0.4571 -0.9422
17772TIP3    H174807   6.161   6.287  14.822 -1.0990 -1.5004 -1.0009
17772TIP3    H274808   6.309   6.315  14.821 -1.7618  2.8251  0.6803
17773TIP3   OH274809   6.113   0.946   5.508  0.0122  0.2106  0.3829
17773TIP3    H174810   6.042   1.002   5.539 -0.8495 -0.8462  0.3639
17773TIP3    H274811   6.136   0.982   5.422 -0.0529  0.9483  0.6657
17774TIP3   OH274812   1.729   3.111  15.337  0.0859  0.4207  0.7451
17774TIP3    H174813   1.643   3.150  15.355  0.0020  0.5849  0.0250
17774TIP3    H274814   1.734   3.035  15.394 -0.0499  1.0731  1.6582
17775TIP3   OH274815   0.231   5.961   2.465 -0.4521 -0.1360  0.4386
17775TIP3    H174816   0.291   6.015   2.516  2.1964 -2.7633  0.3678
17775TIP3    H274817   0.217   5.884   2.519  0.0798 -1.6780 -1.5043
17776TIP3   OH274818   0.760   2.278  10.821  0.3490 -0.2283  1.3814
17776TIP3    H174819   0.831   2.318  10.772  0.2258 -0.7553  0.7638
17776TIP3    H274820   0.790   2.190  10.841 -0.0502 -0.3908  1.2843
17777TIP3   OH274821   3.501   2.761  11.762  0.0729  0.2028 -0.0448
17777TIP3    H174822   3.408   2.739  11.759  0.1129 -0.0224  0.3407
17777TIP3    H274823   3.506   2.837  11.820 -0.0759  1.3185 -1.4452
17778TIP3   OH274824   1.566   5.017   2.799 -0.1885 -0.2308  0.5168
17778TIP3    H174825   1.631   5.086   2.788  0.8119 -1.1348  0.6542
17778TIP3    H274826   1.541   5.021   2.891 -1.4368  1.0626  0.1556
17779TIP3   OH274827   0.286   4.197  12.490 -0.5398 -0.0248 -0.0882
17779TIP3    H174828   0.235   4.156  12.420  0.7721 -1.8037 -0.0586
17779TIP3    H274829   0.359   4.239  12.445  1.3914 -2.7825  0.2046
17780TIP3   OH274830   5.326   5.758  15.792 -0.3232  0.3462 -0.1788
17780TIP3    H174831   5.296   5.708  15.868 -4.2599  1.7621 -0.5519
17780TIP3    H274832   5.255   5.820  15.775  1.5966  1.9237 -3.4060
17781TIP3   OH274833   2.508   2.460   4.752  0.2157 -0.4939 -0.4287
17781TIP3    H174834   2.601   2.473   4.771  0.0525 -0.7853  0.6242
17781TIP3    H274835   2.469   2.440   4.836 -0.9300  0.3185 -0.7463
17782TIP3   OH274836   0.867   3.668   5.618  0.0174 -0.5228  0.1265
17782TIP3    H174837   0.865   3.652   5.712 -1.1675 -1.6037 -0.0545
17782TIP3    H274838   0.950   3.713   5.603  0.3308 -0.5408  1.6473
17783TIP3   OH274839   2.892   0.210  14.406  0.4097  0.1258 -0.1151
17783TIP3    H174840   2.974   0.180  14.445  0.1766 -0.2700  0.0718
17783TIP3    H274841   2.830   0.212  14.478 -0.5038 -2.3281 -0.7310
17784TIP3   OH274842   0.164   4.107   1.194 -0.4924 -0.3901  0.2279
17784TIP3    H174843   0.147   4.197   1.221 -0.7404 -1.0060  2.3432
17784TIP3    H274844   0.081   4.062   1.207 -0.2331 -1.0402 -0.2975
17785TIP3   OH274845   4.998   1.215   3.279 -0.7991  0.0080  0.2055
17785TIP3    H174846   4.926   1.158   3.307 -0.6286 -1.1592 -1.5708
17785TIP3    H274847   4.962   1.262   3.203 -0.0446  0.2388 -0.0131
17786TIP3   OH274848   0.071   6.706  13.495  0.2861 -0.0479 -0.3390
17786TIP3    H174849  -0.003   6.693  13.436 -1.5427 -0.2816  1.8624
17786TIP3    H274850   0.068   6.799  13.518  0.1871 -0.2095  0.3335
17787TIP3   OH274851   2.716   4.615   5.597 -0.3495 -0.0224  0.6698
17787TIP3    H174852   2.779   4.578   5.534 -0.1043 -0.0189  0.9129
17787TIP3    H274853   2.723   4.710   5.584  0.3994  0.0319  1.3606
17788TIP3   OH274854   3.071   5.076  16.304  0.5647  0.0131 -0.3016
17788TIP3    H174855   3.120   5.115  16.231 -0.7877  0.1365 -1.1811
17788TIP3    H274856   3.081   4.981  16.292  1.5624  0.0383  0.2320
17789TIP3   OH274857   2.388   3.243   1.736  0.2237  0.2668  0.1563
17789TIP3    H174858   2.456   3.244   1.668 -2.3062 -0.9817 -2.6076
17789TIP3    H274859   2.403   3.162   1.784 -0.3585 -1.0106 -1.7085
17790TIP3   OH274860   4.191   0.535  16.936  0.2302  0.1335 -0.1860
17790TIP3    H174861   4.169   0.597  16.867 -0.6762 -1.0994 -1.0545
17790TIP3    H274862   4.173   0.449  16.898 -1.2247 -0.5570  1.8634
17791TIP3   OH274863   2.721   2.659  16.727  0.5428  0.0805 -0.4226
17791TIP3    H174864   2.811   2.647  16.756  0.5937 -2.0746 -1.2848
17791TIP3    H274865   2.718   2.620  16.639 -1.6051 -1.4966  0.2681
17792TIP3   OH274866   1.527   4.049  14.197 -1.0269 -0.2867 -0.1865
17792TIP3    H174867   1.488   4.137  14.203  0.2518  0.1953  1.6660
17792TIP3    H274868   1.555   4.043  14.106  1.2310  2.3291  0.1970
17793TIP3   OH274869   5.821   0.415  14.646  0.1887  0.0726  1.0352
17793TIP3    H174870   5.772   0.490  14.680  0.1234 -0.5212  2.3193
17793TIP3    H274871   5.852   0.369  14.724  0.3838 -1.1368  0.2784
17794TIP3   OH274872   5.548   0.080   5.533 -0.1324  0.1158 -0.1030
17794TIP3    H174873   5.585   0.102   5.447 -0.1969  2.0236  0.3083
17794TIP3    H274874   5.609   0.015   5.569 -0.0957 -0.7159 -1.5545
17795TIP3   OH274875   1.983   4.350  13.623 -0.0096 -0.4112  0.0040
17795TIP3    H174876   1.955   4.308  13.704  1.0658  0.4488  0.8583
17795TIP3    H274877   1.913   4.411  13.601  0.1125  0.0505  0.8444
17796TIP3   OH274878   1.520   0.194   1.235 -0.7470  0.2637  0.1724
17796TIP3    H174879   1.595   0.203   1.294 -0.0764  1.5932 -0.7874
17796TIP3    H274880   1.453   0.250   1.273 -0.8041  0.0516  0.3842
17797TIP3   OH274881   4.885   5.773   4.079 -0.3522 -0.1941 -0.0591
17797TIP3    H174882   4.884   5.770   3.984 -0.2973 -1.2328 -0.0330
17797TIP3    H274883   4.969   5.734   4.104  0.1559  1.1286  0.3973
17798TIP3   OH274884   0.580   6.138  16.602  0.1346 -0.0001  0.3500
17798TIP3    H174885   0.498   6.131  16.651  0.2973  0.2163  0.6527
17798TIP3    H274886   0.638   6.074  16.644  0.1862 -0.0131  0.2598
17799TIP3   OH274887   6.464   6.802   0.311  0.4037  0.3798  0.3272
17799TIP3    H174888   6.428   6.738   0.373  0.7482  1.0520  1.2427
17799TIP3    H274889   6.397   6.811   0.244 -0.8721  1.1187  1.6518
17800TIP3   OH274890   0.590   0.307   2.597  0.1337  0.0966 -0.3886
17800TIP3    H174891   0.672   0.259   2.609 -0.6012 -0.5920  2.9206
17800TIP3    H274892   0.578   0.311   2.502  2.1064 -3.0504 -0.9104
17801TIP3   OH274893   3.398   5.017   3.710 -0.1367  0.4385  0.3795
17801TIP3    H174894   3.376   5.035   3.619  0.8132 -2.1671 -0.4315
17801TIP3    H274895   3.350   5.084   3.760  1.6806  3.9327 -2.1025
17802TIP3   OH274896   1.569   5.793  12.372 -0.2619 -0.5444 -0.6952
17802TIP3    H174897   1.642   5.853  12.361  0.5836 -1.3278  0.3667
17802TIP3    H274898   1.609   5.711  12.400 -1.6348 -0.4043  2.0722
17803TIP3   OH274899   2.192   3.823   4.213 -0.0293  0.6415  0.3113
17803TIP3    H174900   2.239   3.784   4.287  1.4319  2.0850  0.2228
17803TIP3    H274901   2.102   3.794   4.223  0.8566 -2.3768  0.4266
17804TIP3   OH274902   1.524   4.157  16.196 -0.5835  0.4877  0.2669
17804TIP3    H174903   1.596   4.146  16.135  0.4483 -0.5682  1.6167
17804TIP3    H274904   1.461   4.212  16.149  0.1658 -0.2449 -1.6990
17805TIP3   OH274905   6.361   6.081  16.325  0.7256 -0.1173 -0.5148
17805TIP3    H174906   6.330   6.104  16.237  2.6075  2.0294 -0.7108
17805TIP3    H274907   6.433   6.020  16.309  0.0654 -0.9457 -0.3598
17806TIP3   OH274908   2.854   0.784  13.385  0.3360  0.1649 -0.0444
17806TIP3    H174909   2.789   0.836  13.432  1.7799  0.8144  1.3353
17806TIP3    H274910   2.807   0.704  13.360 -1.0669  0.7552  0.5780
17807TIP3   OH274911   6.584   1.921  12.203 -0.0530  0.6973 -0.2641
17807TIP3    H174912   6.670   1.962  12.193  0.1417  0.0644 -1.3953
17807TIP3    H274913   6.540   1.937  12.120 -0.2344 -0.7521 -0.4671
17808TIP3   OH274914   5.583   3.739  14.574 -0.3414  0.3392  0.0626
17808TIP3    H174915   5.662   3.773  14.532 -1.7852  1.5073 -1.8544
17808TIP3    H274916   5.607   3.732  14.666  2.3407 -0.4466 -0.5848
17809TIP3   OH274917   1.679   0.706  10.895  0.2766  0.1601  0.0941
17809TIP3    H174918   1.625   0.634  10.864 -0.5909  0.3024  1.2099
17809TIP3    H274919   1.658   0.780  10.837  0.2498 -0.1377 -0.2769
17810TIP3   OH274920   6.057   6.244  15.300 -0.2342 -0.1893  0.0827
17810TIP3    H174921   6.112   6.237  15.378 -1.8112 -1.7713  1.1284
17810TIP3    H274922   6.109   6.206  15.230  1.0614  0.9162  0.4108
17811TIP3   OH274923   3.329   2.869   4.615 -0.0834 -0.6579  0.1739
17811TIP3    H174924   3.384   2.794   4.637  0.3595 -0.3392  0.1643
17811TIP3    H274925   3.373   2.910   4.541 -1.3289 -1.4750 -1.0874
17812TIP3   OH274926   3.640   0.174   3.505 -0.0293  0.4623  0.1388
17812TIP3    H174927   3.592   0.217   3.576 -1.3157 -0.8400  0.0988
17812TIP3    H274928   3.659   0.086   3.539 -1.8871 -0.6826 -1.5959
17813TIP3   OH274929   3.510   4.347  12.880 -0.0925  0.3071 -0.5568
17813TIP3    H174930   3.591   4.384  12.915 -0.5841  1.1937 -0.3313
17813TIP3    H274931   3.513   4.255  12.905  0.4364  0.5227  0.2051
17814TIP3   OH274932   0.460   0.827  15.478  0.1278 -0.0317 -0.1125
17814TIP3    H174933   0.395   0.891  15.507 -0.7368 -1.2006  0.6259
17814TIP3    H274934   0.543   0.874  15.478 -0.8349  1.7865 -2.0291
17815TIP3   OH274935   1.150   2.097   3.932  0.0016  0.1001  0.0376
17815TIP3    H174936   1.060   2.110   3.901  0.0592  1.1480  0.2596
17815TIP3    H274937   1.140   2.044   4.011 -0.2805 -1.1265 -0.7919
17816TIP3   OH274938   2.697   0.358  12.296  0.3149  0.5641  0.6396
17816TIP3    H174939   2.688   0.334  12.388 -1.2144 -2.4122 -0.1288
17816TIP3    H274940   2.629   0.307  12.252  0.3409  2.6355 -2.0545
17817TIP3   OH274941   0.946   5.142  12.541  0.1541 -0.2247  0.5221
17817TIP3    H174942   0.914   5.203  12.475  1.1268  1.0187  1.1614
17817TIP3    H274943   0.872   5.083  12.557  0.0659 -0.9032 -2.0393
17818TIP3   OH274944   2.578   6.233  13.861  0.4173  0.7103  0.3696
17818TIP3    H174945   2.486   6.221  13.885  0.0690  0.6699 -0.9173
17818TIP3    H274946   2.606   6.309  13.912  0.3618 -0.6231  2.5252
17819TIP3   OH274947   2.758   1.729   3.096 -0.1053  0.1341 -0.3144
17819TIP3    H174948   2.759   1.715   3.001  2.6391  0.1910 -0.3593
17819TIP3    H274949   2.849   1.716   3.123 -0.9422 -0.5215  2.4332
17820TIP3   OH274950   2.148   2.028  13.506 -0.0077 -0.4185  0.2116
17820TIP3    H174951   2.082   1.984  13.560  0.2332  0.0117  0.8728
17820TIP3    H274952   2.157   2.115  13.545  0.2554 -0.1325 -0.4624
17821TIP3   OH274953   3.987   1.114  14.892 -0.1156 -0.2847 -0.1576
17821TIP3    H174954   3.928   1.043  14.916 -1.2584  0.5644 -0.3689
17821TIP3    H274955   3.978   1.121  14.797  1.6122 -1.2304 -0.4343
17822TIP3   OH274956   3.218   5.432  11.203  0.0799 -0.3258 -0.1769
17822TIP3    H174957   3.129   5.466  11.192 -1.0800 -2.1486  2.7076
17822TIP3    H274958   3.258   5.489  11.268  0.4785 -0.4577 -0.3024
17823TIP3   OH274959   0.541   2.002   2.424 -0.0377 -0.0060 -0.2589
17823TIP3    H174960   0.458   1.999   2.376 -0.7605  0.6709  0.9195
17823TIP3    H274961   0.550   1.914   2.461 -0.1275 -0.1360 -0.5405
17824TIP3   OH274962   1.730   0.384   6.738 -0.6438 -0.1131 -0.1112
17824TIP3    H174963   1.809   0.340   6.767  0.0038 -0.2802 -1.9547
17824TIP3    H274964   1.749   0.478   6.750  0.4337 -0.0693 -1.7925
17825TIP3   OH274965   4.061   1.409   0.557  0.3452 -0.2552 -0.5016
17825TIP3    H174966   4.032   1.365   0.637  0.3081 -0.4842 -0.6392
17825TIP3    H274967   4.138   1.459   0.584 -0.0977  0.2529 -0.1672
17826TIP3   OH274968   6.654   3.262   1.499 -0.2203  0.0088  0.7554
17826TIP3    H174969   6.720   3.237   1.563  0.6841 -0.0527 -0.1886
17826TIP3    H274970   6.642   3.184   1.445  1.7726  1.1437 -1.4812
17827TIP3   OH274971   1.458   0.335  14.667 -0.4043 -0.1634 -0.8834
17827TIP3    H174972   1.371   0.296  14.668 -0.3532 -0.3552  1.8149
17827TIP3    H274973   1.450   0.411  14.609 -2.6398  0.4133  0.1161
17828TIP3   OH274974   0.101   5.054  16.322  0.3049  0.1463  0.0504
17828TIP3    H174975   0.039   4.986  16.299 -0.2466  0.6544  0.0057
17828TIP3    H274976   0.096   5.062  16.417 -0.2660  0.7074 -0.0193
17829TIP3   OH274977   6.772   6.346  17.146  0.1317  0.3963 -0.3045
17829TIP3    H174978   6.771   6.254  17.173  1.0210  1.2579  3.2271
17829TIP3    H274979   6.835   6.350  17.074  1.4898 -1.5165  0.6846
17830TIP3   OH274980   5.982   2.281   0.439  0.0519 -0.1775 -0.8983
17830TIP3    H174981   6.063   2.330   0.452  0.4480 -1.6390  5.0680
17830TIP3    H274982   5.912   2.342   0.462 -0.1437 -0.2521 -1.2833
17831TIP3   OH274983   6.086   2.369   3.889  0.5909  0.0772  0.0699
17831TIP3    H174984   6.108   2.421   3.812 -1.7532 -0.4715 -1.0696
17831TIP3    H274985   6.042   2.431   3.947 -0.6760 -0.1938 -0.5546
17832TIP3   OH274986   4.466   2.253  15.640 -0.9634 -0.3494 -0.7291
17832TIP3    H174987   4.461   2.344  15.668 -1.1281  0.1957 -2.4218
17832TIP3    H274988   4.405   2.206  15.697  0.1372  0.3222  1.0786
17833TIP3   OH274989   0.802   5.191  16.647  0.1185 -0.3212  0.5770
17833TIP3    H174990   0.865   5.185  16.718 -0.7671 -1.4649  1.3124
17833TIP3    H274991   0.853   5.218  16.570  1.3425 -0.4950  1.3130
17834TIP3   OH274992   5.959   2.191   3.219 -0.1715  0.1159  0.2423
17834TIP3    H174993   5.891   2.251   3.251  0.6716  1.9644 -1.2179
17834TIP3    H274994   5.978   2.222   3.130  1.7552 -1.0572  0.1997
17835TIP3   OH274995   5.383   5.340  16.674 -0.4857 -0.0434 -0.7546
17835TIP3    H174996   5.295   5.321  16.707 -0.4800  1.4657  0.2326
17835TIP3    H274997   5.440   5.280  16.722 -0.8075  0.0624 -0.2370
17836TIP3   OH274998   6.611   6.548   0.366  0.2497 -0.3736 -0.1086
17836TIP3    H174999   6.594   6.465   0.322  0.3832 -1.0562  1.0888
17836TIP3    H275000   6.526   6.575   0.401 -0.0331  0.6010 -1.4537
17837TIP3   OH275001   3.070   4.250   0.179  0.7544 -0.1421 -0.2640
17837TIP3    H175002   3.034   4.333   0.211  0.9601 -0.0737 -0.2053
17837TIP3    H275003   3.009   4.222   0.111 -1.5020 -1.9278  2.3337
17838TIP3   OH275004   0.714   4.904   2.522 -0.2133  0.5037 -0.8222
17838TIP3    H175005   0.786   4.847   2.548 -0.8722  0.0630  0.0738
17838TIP3    H275006   0.757   4.983   2.489  0.6903  0.6494  0.6120
17839TIP3   OH275007   0.420   1.293  14.928  0.1994 -0.0282 -0.1248
17839TIP3    H175008   0.426   1.232  14.854  1.5499 -0.1877  0.0845
17839TIP3    H275009   0.389   1.375  14.889  2.7001  0.4645 -1.2678
17840TIP3   OH275010   5.399   1.201  13.148  0.5964 -0.4540  0.4850
17840TIP3    H175011   5.404   1.296  13.154 -0.3185 -0.3232 -0.5028
17840TIP3    H275012   5.323   1.177  13.201  1.8752 -0.8396  2.2268
17841TIP3   OH275013   3.286   5.396   3.371 -0.2704  0.2633  0.4030
17841TIP3    H175014   3.316   5.476   3.416 -2.7906  0.9558  1.0314
17841TIP3    H275015   3.363   5.366   3.322  1.7724  1.1407  2.8217
17842TIP3   OH275016   4.553   0.751   4.216  0.2974  0.1541 -0.2698
17842TIP3    H175017   4.488   0.680   4.214  0.0497  0.3631  0.1593
17842TIP3    H275018   4.522   0.813   4.150 -0.6683  0.8687  0.8130
17843TIP3   OH275019   4.571   0.785   6.525  0.4107  0.4403 -0.1803
17843TIP3    H175020   4.553   0.875   6.551 -3.0615 -0.4945  1.1593
17843TIP3    H275021   4.549   0.733   6.603 -1.8209 -1.8447 -2.1732
17844TIP3   OH275022   5.018   1.982  14.155 -0.1335  0.6791 -0.0151
17844TIP3    H175023   5.072   2.061  14.160 -0.7607  1.0489  3.4338
17844TIP3    H275024   5.064   1.918  14.209 -0.8608 -0.5445 -0.7963
17845TIP3   OH275025   4.453   1.958  16.835 -0.4555  0.4752 -0.1567
17845TIP3    H175026   4.384   1.893  16.845 -0.8425  0.3448 -2.8367
17845TIP3    H275027   4.419   2.036  16.878 -1.7828  0.0673 -0.4107
17846TIP3   OH275028   2.376   0.011  14.262 -0.0004  0.0211 -0.0880
17846TIP3    H175029   2.300   0.053  14.220  1.5802  5.0475  1.3186
17846TIP3    H275030   2.365   0.031  14.355  2.6667  0.3229  0.2223
17847TIP3   OH275031   3.196   5.048   6.320 -0.2539  0.3803 -0.1411
17847TIP3    H175032   3.250   5.122   6.349 -0.0716  0.4629 -0.6838
17847TIP3    H275033   3.203   5.049   6.225 -0.1088 -0.4416 -0.1445
17848TIP3   OH275034   0.733   3.303  15.230 -0.5889  0.0174 -0.1466
17848TIP3    H175035   0.721   3.395  15.252 -2.3843 -0.3237  0.4632
17848TIP3    H275036   0.727   3.257  15.314 -0.9763 -0.7513 -0.5794
17849TIP3   OH275037   6.746   5.496  11.801  0.2617 -0.5002 -0.1514
17849TIP3    H175038   6.661   5.457  11.822  0.1958 -0.4843 -0.3933
17849TIP3    H275039   6.810   5.438  11.844  0.2133 -1.3591 -1.2020
17850TIP3   OH275040   0.981   6.294   0.528 -0.4269 -0.6745  0.1444
17850TIP3    H175041   0.933   6.347   0.464  0.4513  0.0614  0.0727
17850TIP3    H275042   1.039   6.357   0.572 -0.8820 -1.1996  1.5453
17851TIP3   OH275043   4.977   4.494  16.303 -0.0953  0.9188 -0.6175
17851TIP3    H175044   4.923   4.512  16.225  0.4908 -1.3147 -1.6508
17851TIP3    H275045   5.057   4.543  16.288  0.5076 -0.3974 -2.1196
17852TIP3   OH275046   5.660   4.096  12.837 -0.3409  0.5499  0.4355
17852TIP3    H175047   5.671   4.078  12.930  0.1661  0.0736  0.2909
17852TIP3    H275048   5.580   4.148  12.831 -1.0829 -0.5034  1.0014
17853TIP3   OH275049   1.727   5.562  12.005 -0.0505  0.3721  0.1772
17853TIP3    H175050   1.654   5.519  12.049 -0.9425  1.3115 -0.3566
17853TIP3    H275051   1.733   5.517  11.920 -1.4031  1.6780 -0.6481
17854TIP3   OH275052   1.314   0.245  13.688 -0.0436  0.9470 -0.0269
17854TIP3    H175053   1.295   0.198  13.607 -1.6535  0.0969  0.7874
17854TIP3    H275054   1.315   0.337  13.663 -0.8258  0.7152 -0.9636
17855TIP3   OH275055   4.604   3.101   1.365  0.2603  0.1742 -0.0571
17855TIP3    H175056   4.693   3.126   1.340 -0.0393 -0.8367 -2.5424
17855TIP3    H275057   4.570   3.054   1.288 -1.6288 -1.4830  1.6420
17856TIP3   OH275058   2.811   6.785   3.587 -0.2302  0.5799  0.4690
17856TIP3    H175059   2.859   6.860   3.551  2.2132 -0.4313  1.3406
17856TIP3    H275060   2.879   6.731   3.627 -2.1964 -0.8590  2.0852
17857TIP3   OH275061   1.420   6.157  15.797  0.2263 -0.4423  0.3522
17857TIP3    H175062   1.397   6.193  15.711 -1.5118 -0.5709  0.7244
17857TIP3    H275063   1.399   6.226  15.859  0.4879 -0.7271  0.7652
17858TIP3   OH275064   6.499   2.490  10.145 -0.9220 -0.4385  0.3386
17858TIP3    H175065   6.425   2.540  10.111 -1.0920 -2.3958 -2.4863
17858TIP3    H275066   6.458   2.420  10.196 -0.8867 -0.3316  0.5168
17859TIP3   OH275067   3.841   4.515   2.851 -0.4779 -0.1863  0.2395
17859TIP3    H175068   3.844   4.431   2.897 -0.7742  1.1254  2.8662
17859TIP3    H275069   3.899   4.572   2.901  1.4635  0.7084 -2.7418
17860TIP3   OH275070   4.349   3.596   5.545  0.2608 -0.5676  0.0977
17860TIP3    H175071   4.362   3.689   5.564 -2.4237 -0.3116  1.1880
17860TIP3    H275072   4.356   3.553   5.629 -1.1432 -0.9297  0.0625
17861TIP3   OH275073   1.706   1.859   5.483 -0.0003  0.7119 -0.0655
17861TIP3    H175074   1.654   1.784   5.456  0.3625  0.6790 -0.6854
17861TIP3    H275075   1.708   1.854   5.579  0.4657 -0.3767 -0.1202
17862TIP3   OH275076   6.771   0.598   3.277  0.0352 -0.0409 -0.5979
17862TIP3    H175077   6.757   0.598   3.183  0.7937 -0.2491 -0.7179
17862TIP3    H275078   6.864   0.577   3.288  0.3695  1.6780  0.1396
17863TIP3   OH275079   1.827   2.076  11.959 -0.1461  0.4400  0.2747
17863TIP3    H175080   1.896   2.136  11.929  3.0327 -1.5785  2.8740
17863TIP3    H275081   1.771   2.130  12.015 -0.0377  1.8528 -0.9035
17864TIP3   OH275082   3.465   0.172   5.549 -0.1695  0.3951  0.5995
17864TIP3    H175083   3.547   0.181   5.598 -0.0445  1.4029  0.2228
17864TIP3    H275084   3.406   0.237   5.589 -0.5013  0.2814  0.2998
17865TIP3   OH275085   5.283   1.074   3.031  0.6676  0.4803 -0.1988
17865TIP3    H175086   5.222   1.028   3.088  0.8099 -0.2562 -0.6412
17865TIP3    H275087   5.252   1.056   2.942  0.6567  1.3309 -0.3761
17866TIP3   OH275088   6.040   1.419   3.708  0.1362  0.2624 -0.0648
17866TIP3    H175089   6.043   1.399   3.801 -1.1316  0.5952  0.0710
17866TIP3    H275090   6.018   1.336   3.666  0.7236  0.1093 -0.0743
17867TIP3   OH275091   0.747   3.577  15.271 -0.0949  0.2668 -0.4736
17867TIP3    H175092   0.823   3.632  15.257 -1.1346  2.8811  3.0102
17867TIP3    H275093   0.679   3.615  15.216  0.0693  0.3489 -0.6196
17868TIP3   OH275094   0.127   1.964  14.797  0.6263  0.1479 -0.3909
17868TIP3    H175095   0.050   1.947  14.743  0.3188  1.5869 -0.4399
17868TIP3    H275096   0.098   2.027  14.863  1.2068 -0.9569  0.9791
17869TIP3   OH275097   6.629   4.535  15.563  0.6111  0.6673 -0.1980
17869TIP3    H175098   6.642   4.540  15.657  1.0470 -0.7951 -0.1502
17869TIP3    H275099   6.716   4.519  15.527  0.3018  0.1408 -0.7420
17870TIP3   OH275100   5.818   2.845   3.649  0.4904 -0.0143  0.3898
17870TIP3    H175101   5.848   2.879   3.564 -0.9200  0.4098  0.0315
17870TIP3    H275102   5.842   2.914   3.711  1.2978 -0.2098  0.3121
17871TIP3   OH275103   0.812   0.865   4.515 -0.6176 -0.6530 -0.4400
17871TIP3    H175104   0.810   0.933   4.582  1.0508 -0.7790 -0.2177
17871TIP3    H275105   0.843   0.787   4.560  1.2484 -0.5596 -1.4388
17872TIP3   OH275106   3.688   2.541   2.035 -0.0965 -0.3953  0.3618
17872TIP3    H175107   3.697   2.635   2.026  1.3325 -0.1951  2.8125
17872TIP3    H275108   3.730   2.504   1.957 -0.1462  0.9742 -0.3295
17873TIP3   OH275109   5.776   1.600  13.931 -0.3140  0.0838 -0.6529
17873TIP3    H175110   5.689   1.632  13.956  0.4164  0.1245  2.1863
17873TIP3    H275111   5.837   1.662  13.973  1.1128 -3.2491  2.8049
17874TIP3   OH275112   0.795   1.702   5.509  0.5973  0.0403 -0.3614
17874TIP3    H175113   0.775   1.796   5.514  0.7507  0.0068  1.1314
17874TIP3    H275114   0.733   1.668   5.444  0.1418  1.0563 -0.4820
17875TIP3   OH275115   3.547   1.130   1.228 -0.2857 -0.1703  0.3122
17875TIP3    H175116   3.602   1.146   1.152 -0.3622  2.6806  0.7480
17875TIP3    H275117   3.475   1.075   1.196  1.5037 -1.9810 -0.7916
17876TIP3   OH275118   5.102   2.909   4.743 -0.0889  0.4543 -0.3629
17876TIP3    H175119   5.054   2.871   4.817  1.6696  3.0558  2.3509
17876TIP3    H275120   5.045   2.979   4.712 -0.1847  0.3131 -0.5095
17877TIP3   OH275121   0.054   5.535   3.868  0.4850  0.7795 -0.2333
17877TIP3    H175122  -0.029   5.560   3.827  0.5976  0.9561 -0.3532
17877TIP3    H275123   0.035   5.533   3.962 -0.6482 -2.6797 -0.3631
17878TIP3   OH275124   3.589   5.351  14.205 -0.2238 -0.1251 -0.7583
17878TIP3    H175125   3.509   5.361  14.257 -1.1153  0.2187 -2.1444
17878TIP3    H275126   3.637   5.433  14.217 -0.0617 -0.3324  0.0744
17879TIP3   OH275127   1.812   4.461  13.306  0.1575 -0.3620 -0.7055
17879TIP3    H175128   1.756   4.401  13.258 -0.9684  0.0403  0.0571
17879TIP3    H275129   1.900   4.446  13.271 -0.2482 -1.7764 -1.1710
17880TIP3   OH275130   3.305   5.012  13.085  0.6048  0.3354 -0.4896
17880TIP3    H175131   3.350   4.931  13.058  1.6423  0.7475 -0.0716
17880TIP3    H275132   3.350   5.081  13.035 -0.3066  0.6531 -0.8807
17881TIP3   OH275133   1.473   4.681   2.383  0.1312  0.0579 -1.1496
17881TIP3    H175134   1.409   4.664   2.451  3.0329 -0.8575  1.6095
17881TIP3    H275135   1.428   4.739   2.321 -2.4948  1.5538  1.8895
17882TIP3   OH275136   6.622   1.993   6.000 -0.2758 -0.0394  0.6873
17882TIP3    H175137   6.699   2.000   6.056  0.0439 -1.0258  0.3947
17882TIP3    H275138   6.568   1.924   6.040 -0.6421  0.1133  0.4716
17883TIP3   OH275139   6.747   6.443   1.147  0.0236 -0.1725 -0.7188
17883TIP3    H175140   6.842   6.450   1.159  0.0745  0.5515 -1.4421
17883TIP3    H275141   6.721   6.529   1.116 -1.0583 -0.0081  0.5722
17884TIP3   OH275142   5.722   4.791   4.518  0.2740 -0.0205 -0.4113
17884TIP3    H175143   5.666   4.863   4.490 -2.7077 -2.0214 -0.0566
17884TIP3    H275144   5.662   4.718   4.534  3.0407 -2.4707 -0.2409
17885TIP3   OH275145   6.065   5.875  15.800 -0.1556  0.1764 -0.2890
17885TIP3    H175146   6.027   5.787  15.796  1.2853 -0.4157 -1.9063
17885TIP3    H275147   6.129   5.869  15.870 -0.8332  0.2876  0.3580
17886TIP3   OH275148   4.932   0.155  16.886  0.0870 -0.0058 -0.3079
17886TIP3    H175149   4.890   0.227  16.933  0.3990 -0.9476  1.5096
17886TIP3    H275150   4.910   0.077  16.937  1.9391 -0.8527 -0.7231
17887TIP3   OH275151   4.786   6.060   3.196  0.1383 -0.0100  0.1005
17887TIP3    H175152   4.721   5.999   3.233 -0.3771  0.3394 -0.2103
17887TIP3    H275153   4.846   6.004   3.146 -0.5862 -0.2259 -0.5497
17888TIP3   OH275154   5.299   1.357   5.451 -0.3159 -0.4209 -0.5287
17888TIP3    H175155   5.393   1.343   5.456 -0.0096  1.2097 -1.1754
17888TIP3    H275156   5.269   1.300   5.381  0.5295  0.4704 -1.6449
17889TIP3   OH275157   3.199   6.115  12.405 -0.2652 -0.4045 -0.0208
17889TIP3    H175158   3.291   6.098  12.388 -0.2958  0.7955 -1.5925
17889TIP3    H275159   3.153   6.081  12.328 -1.4020 -2.8459  1.6167
17890TIP3   OH275160   2.057   0.832   4.773 -0.3009 -0.4050 -0.4070
17890TIP3    H175161   2.011   0.776   4.836 -1.5565  0.6797 -0.3202
17890TIP3    H275162   2.017   0.811   4.688 -0.8112  0.3680 -0.3683
17891TIP3   OH275163   1.217   2.728  13.418  0.4739  0.0615  0.1288
17891TIP3    H175164   1.284   2.792  13.396  0.9973 -0.4883  0.0945
17891TIP3    H275165   1.240   2.650  13.367 -0.1495 -0.1569  0.1717
17892TIP3   OH275166   4.855   0.759   0.555  0.3871 -0.1417  0.4555
17892TIP3    H175167   4.941   0.725   0.533  0.2390 -1.2077  1.4092
17892TIP3    H275168   4.845   0.837   0.501  0.9650 -1.3157 -1.4369
17893TIP3   OH275169   4.510   6.050  16.595 -0.4914 -0.0263  0.1703
17893TIP3    H175170   4.597   6.046  16.634  1.4195  2.1746 -3.3527
17893TIP3    H275171   4.491   6.144  16.587 -2.6896 -0.4413 -0.2553
17894TIP3   OH275172   3.460   5.948  15.750  0.0850 -0.2469  0.6739
17894TIP3    H175173   3.467   6.010  15.677  3.6532  0.2723  1.2905
17894TIP3    H275174   3.467   6.002  15.828 -0.7676 -1.0879  1.3494
17895TIP3   OH275175   6.195   3.457  11.221 -0.3583  1.0067  0.0445
17895TIP3    H175176   6.265   3.415  11.171  0.9858  1.6314  1.3189
17895TIP3    H275177   6.134   3.386  11.241 -1.1162  0.7984 -2.6708
17896TIP3   OH275178   6.326   3.725  10.831  0.1261  0.4308 -0.1448
17896TIP3    H175179   6.235   3.726  10.863  0.3451  2.6683  0.5810
17896TIP3    H275180   6.337   3.810  10.789  1.5089 -0.3463 -1.4314
17897TIP3   OH275181   0.787   5.707   0.176  0.4572  0.4985  0.3664
17897TIP3    H175182   0.826   5.680   0.259  2.5047 -0.4611 -0.8374
17897TIP3    H275183   0.851   5.681   0.110 -0.9913  1.4755 -1.5084
17898TIP3   OH275184   4.474   6.613   5.092  0.1989 -0.1255  0.4066
17898TIP3    H175185   4.465   6.620   4.997 -1.4864  2.3833  0.6635
17898TIP3    H275186   4.534   6.684   5.116 -1.5406  1.0783  1.4077
17899TIP3   OH275187   6.059   1.385   1.378  0.2787  0.1358  0.5258
17899TIP3    H175188   6.061   1.479   1.359 -0.4814  0.2781  1.0921
17899TIP3    H275189   5.977   1.355   1.339 -0.8282  0.2461  2.6457
17900TIP3   OH275190   1.331   2.120   2.894 -0.3781 -0.1996  0.8873
17900TIP3    H175191   1.260   2.130   2.831  0.0191  3.0982  0.7882
17900TIP3    H275192   1.289   2.136   2.979 -0.2109 -0.9876  1.1323
17901TIP3   OH275193   5.681   6.557  15.379 -0.3358  0.6198  0.2449
17901TIP3    H175194   5.692   6.480  15.436 -0.2201  0.7232  0.3636
17901TIP3    H275195   5.589   6.582  15.391 -0.7214 -0.2545 -0.7613
17902TIP3   OH275196   2.480   2.999   1.885 -0.7033 -0.2283 -0.4022
17902TIP3    H175197   2.415   2.951   1.936  0.1013  0.1163  1.0086
17902TIP3    H275198   2.542   2.932   1.855 -0.7969 -0.3506 -0.3209
17903TIP3   OH275199   2.009   3.240   6.183 -0.2239 -0.4123 -0.3094
17903TIP3    H175200   1.985   3.295   6.108  0.8779 -0.8099 -0.9781
17903TIP3    H275201   1.929   3.235   6.235  0.3223  4.5762  1.6000
17904TIP3   OH275202   2.777   0.787  15.877 -0.1488  0.3645 -0.0112
17904TIP3    H175203   2.752   0.734  15.952  1.5674 -0.4602  0.0377
17904TIP3    H275204   2.770   0.878  15.907 -1.8559  0.1592  0.3224
17905TIP3   OH275205   5.073   3.092   4.349 -0.3786 -0.7738 -0.1710
17905TIP3    H175206   4.984   3.127   4.349  0.1057  0.6205 -1.7327
17905TIP3    H275207   5.108   3.114   4.435 -1.0601  0.0164 -0.0824
17906TIP3   OH275208   3.676   4.809  12.842 -0.3037  0.2008 -0.6664
17906TIP3    H175209   3.604   4.748  12.823 -1.6280  1.2764  0.6485
17906TIP3    H275210   3.677   4.868  12.767 -0.4978 -0.0949 -0.9027
17907TIP3   OH275211   0.373   1.505  13.880 -0.1507  0.2551  0.7874
17907TIP3    H175212   0.376   1.420  13.924 -0.8644 -0.4452 -0.4320
17907TIP3    H275213   0.402   1.568  13.945 -1.3231 -0.7060  2.3016
17908TIP3   OH275214   0.134   0.255  10.503 -0.3701 -0.7773 -0.2292
17908TIP3    H175215   0.185   0.203  10.565  1.2105 -1.5659 -2.0874
17908TIP3    H275216   0.156   0.345  10.525 -1.0939 -0.9470  1.3514
17909TIP3   OH275217   2.047   3.458   5.297  0.1732  0.3367 -0.6713
17909TIP3    H175218   2.062   3.466   5.202  0.8694 -1.5179 -0.7481
17909TIP3    H275219   2.125   3.413   5.329 -0.1004  0.8734  0.7953
17910TIP3   OH275220   1.468   4.443  12.759  0.0763  0.2488  0.0544
17910TIP3    H175221   1.427   4.503  12.697 -0.4187  0.7787  0.8846
17910TIP3    H275222   1.558   4.475  12.768  0.1460  0.1781 -0.3717
17911TIP3   OH275223   1.847   6.249  11.028  0.0509 -0.0291 -0.0912
17911TIP3    H175224   1.798   6.232  10.948 -0.2578  2.9251 -0.6505
17911TIP3    H275225   1.811   6.189  11.093 -0.8054 -1.3675 -1.7569
17912TIP3   OH275226   2.387   6.524   0.851 -0.1831 -0.0832  0.5665
17912TIP3    H175227   2.347   6.558   0.771  0.3473 -0.9219 -0.0748
17912TIP3    H275228   2.476   6.559   0.852  0.5356 -1.7564 -0.3567
17913TIP3   OH275229   5.078   2.572   5.475  0.5917  0.3939  0.3365
17913TIP3    H175230   5.090   2.517   5.397  0.5944 -0.2940  0.8136
17913TIP3    H275231   5.152   2.550   5.531 -0.4765 -0.6580  1.4112
17914TIP3   OH275232   6.225   5.749   2.690  0.1620  0.2316 -0.0716
17914TIP3    H175233   6.272   5.828   2.718  0.9420  0.2020 -1.2366
17914TIP3    H275234   6.133   5.775   2.692  0.3907  1.1184 -0.2481
17915TIP3   OH275235   5.880   2.288  10.296 -0.4933 -0.0497  0.6616
17915TIP3    H175236   5.837   2.374  10.302  0.4444  0.3853  1.3431
17915TIP3    H275237   5.840   2.237  10.366  0.2438  0.4251  1.4407
17916TIP3   OH275238   4.322   3.740   4.338  0.0577 -0.2710 -0.2627
17916TIP3    H175239   4.292   3.653   4.366 -1.1341  0.0032 -0.6285
17916TIP3    H275240   4.329   3.790   4.419  0.9423 -0.7507 -0.0266
17917TIP3   OH275241   2.723   5.479  12.364 -0.1086  0.1130  0.5026
17917TIP3    H175242   2.669   5.408  12.328  0.1251 -0.1038  0.5712
17917TIP3    H275243   2.690   5.558  12.322  0.5990 -0.2107 -0.7121
17918TIP3   OH275244   5.419   5.490   5.211  0.0171 -0.0943 -0.6199
17918TIP3    H175245   5.472   5.475   5.289 -1.0734 -0.0875  0.1481
17918TIP3    H275246   5.382   5.577   5.224  1.4008  0.7711 -2.1138
17919TIP3   OH275247   6.707   5.427  16.033 -0.2741  0.5958  0.1390
17919TIP3    H175248   6.711   5.366  16.107  0.8235  0.5228  0.0362
17919TIP3    H275249   6.763   5.388  15.967 -0.9618  0.8471 -0.6050
17920TIP3   OH275250   0.356   5.827  16.510  0.1184  0.2887  0.4865
17920TIP3    H175251   0.403   5.757  16.555 -0.4382  0.2711  1.0573
17920TIP3    H275252   0.283   5.848  16.568  0.4373  1.5447  0.4640
17921TIP3   OH275253   4.813   3.893  11.675  0.4074 -0.4643  0.4513
17921TIP3    H175254   4.889   3.886  11.732  2.0423 -0.4406 -1.5874
17921TIP3    H275255   4.849   3.884  11.586 -1.5515  2.4752 -0.8005
17922TIP3   OH275256   6.631   2.233  14.988 -0.7876 -0.6206  0.4040
17922TIP3    H175257   6.674   2.257  15.070 -0.0417 -2.0420  0.4396
17922TIP3    H275258   6.590   2.315  14.959  1.6116  0.7189  0.5416
17923TIP3   OH275259   0.539   0.080   1.011 -0.3363 -0.6105 -0.1691
17923TIP3    H175260   0.461   0.114   0.967 -0.3076  0.1623  0.3568
17923TIP3    H275261   0.526  -0.015   1.013 -0.2824 -0.6954 -1.9271
17924TIP3   OH275262   1.492   0.270  12.204 -0.6298 -0.2384 -1.2651
17924TIP3    H175263   1.474   0.360  12.174  1.4637  0.5678 -0.3009
17924TIP3    H275264   1.572   0.245  12.157  0.8727 -0.1625  1.0904
17925TIP3   OH275265   6.231   2.969   3.244 -0.6360  0.4053 -0.5642
17925TIP3    H175266   6.297   3.035   3.221 -0.5433  0.6076  0.2762
17925TIP3    H275267   6.281   2.887   3.251 -0.5464  0.4808 -0.3373
17926TIP3   OH275268   4.513   6.051  14.201  0.4429  0.3871 -0.6696
17926TIP3    H175269   4.599   6.076  14.234  1.2408  0.7062 -2.8104
17926TIP3    H275270   4.454   6.122  14.228  0.9148  0.3425  0.5064
17927TIP3   OH275271   1.794   1.422   2.538  0.7233  0.0390  0.1102
17927TIP3    H175272   1.825   1.379   2.459  0.0190  1.3371 -0.9118
17927TIP3    H275273   1.789   1.352   2.603  1.1911 -1.0819 -1.0234
17928TIP3   OH275274   3.682   5.819   2.832  0.1667 -0.1074  0.1524
17928TIP3    H175275   3.640   5.905   2.824 -1.4480 -0.8068  0.6999
17928TIP3    H275276   3.689   5.804   2.926 -0.3960 -0.9511  0.0683
17929TIP3   OH275277   0.817   3.106   2.684 -0.1167  0.2810 -0.6775
17929TIP3    H175278   0.811   3.118   2.589  1.4743  1.3872 -0.6754
17929TIP3    H275279   0.907   3.078   2.699 -0.6791 -1.0418  0.4235
17930TIP3   OH275280   2.558   6.704   4.608 -0.2845 -0.1010  0.3539
17930TIP3    H175281   2.502   6.777   4.636  0.6806 -0.0313  2.2840
17930TIP3    H275282   2.588   6.665   4.690  0.9741 -1.3190 -0.6450
17931TIP3   OH275283   6.660   5.837  12.878 -0.7982  0.0183  0.5232
17931TIP3    H175284   6.684   5.916  12.830  0.7481 -0.3468  0.6122
17931TIP3    H275285   6.697   5.851  12.966  0.4067 -1.1866  0.2472
17932TIP3   OH275286   2.098   3.626   5.551  0.1065 -0.1599  0.1631
17932TIP3    H175287   2.014   3.590   5.524  0.1049  0.2057 -0.3329
17932TIP3    H275288   2.104   3.605   5.644 -1.5893  1.7560  0.8055
17933TIP3   OH275289   3.899   3.980  13.755 -0.2815  0.6745 -0.1238
17933TIP3    H175290   3.979   4.020  13.721  0.1213 -0.3919 -0.4954
17933TIP3    H275291   3.828   4.022  13.707  0.2007  0.1106 -1.3846
17934TIP3   OH275292   3.462   6.527  11.491 -0.4465  0.1762  0.0914
17934TIP3    H175293   3.436   6.437  11.475 -0.9564  0.7203 -2.5925
17934TIP3    H275294   3.380   6.574  11.507 -0.3857  0.5057 -0.5307
17935TIP3   OH275295   1.656   3.634  11.864 -0.2350  0.2858 -0.0173
17935TIP3    H175296   1.573   3.656  11.821  0.3600  1.2607 -0.7269
17935TIP3    H275297   1.672   3.543  11.840  0.4311  0.9835 -2.5725
17936TIP3   OH275298   0.880   3.888   3.775  0.1439 -0.3949  0.2778
17936TIP3    H175299   0.914   3.853   3.693 -0.1983  0.3258 -0.1795
17936TIP3    H275300   0.957   3.917   3.823  0.2417  0.5621 -0.4415
17937TIP3   OH275301   6.097   3.383   2.362  0.1557 -0.1510 -0.0562
17937TIP3    H175302   6.086   3.451   2.428  2.0914  1.6701 -1.4809
17937TIP3    H275303   6.169   3.329   2.395 -0.7104 -0.9453  0.5892
17938TIP3   OH275304   0.675   1.210  10.739 -0.2547  0.1708  0.0162
17938TIP3    H175305   0.625   1.260  10.674 -0.6628 -1.8900 -1.3346
17938TIP3    H275306   0.660   1.118  10.717  0.6502 -0.6061  2.2610
17939TIP3   OH275307   0.272   0.292  10.934 -1.1728  0.4027 -0.2774
17939TIP3    H175308   0.281   0.231  10.861  0.2700 -0.3029  0.4220
17939TIP3    H275309   0.257   0.377  10.894  2.4496  0.5836 -1.6437
17940TIP3   OH275310   4.310   5.660  13.355 -0.1229 -0.4440  0.4634
17940TIP3    H175311   4.306   5.596  13.426  0.3054 -0.8070  0.1692
17940TIP3    H275312   4.232   5.642  13.302  0.8203 -1.8496 -0.5426
17941TIP3   OH275313   4.889   5.321   4.022 -0.2839 -0.2892  0.6094
17941TIP3    H175314   4.825   5.362   3.963 -0.5955  1.6506  2.2024
17941TIP3    H275315   4.929   5.253   3.968 -2.1544 -0.1501 -1.1214
17942TIP3   OH275316   2.634   2.381  15.037 -0.5589  0.6344 -0.1852
17942TIP3    H175317   2.596   2.295  15.017 -0.2864  0.5879 -0.5148
17942TIP3    H275318   2.639   2.383  15.132 -0.3404  0.1813 -0.1815
17943TIP3   OH275319   4.796   6.380  14.401  0.2942 -0.1890 -0.0233
17943TIP3    H175320   4.737   6.329  14.456 -0.5892  0.7835 -0.0112
17943TIP3    H275321   4.742   6.405  14.326  1.0326 -0.2119 -0.5739
17944TIP3   OH275322   2.383   2.859  10.879  0.3863  0.4306 -0.7890
17944TIP3    H175323   2.308   2.903  10.838 -0.3744  0.0813  0.1695
17944TIP3    H275324   2.446   2.929  10.896  0.3963  0.6902 -1.8296
17945TIP3   OH275325   6.690   3.462  14.427 -0.0187  0.2030  0.2132
17945TIP3    H175326   6.609   3.513  14.436  0.6314  1.1290  1.1175
17945TIP3    H275327   6.747   3.496  14.496  0.4344 -1.8167  0.9064
17946TIP3   OH275328   5.439   6.445   5.162 -0.1174 -0.1868 -0.2075
17946TIP3    H175329   5.388   6.475   5.087 -1.0755 -1.5332 -0.1191
17946TIP3    H275330   5.387   6.470   5.238  1.4082  2.2577  0.1397
17947TIP3   OH275331   0.923   3.301   0.533 -0.4611 -0.1152 -0.6391
17947TIP3    H175332   0.878   3.219   0.552  0.1245 -0.3587 -0.2449
17947TIP3    H275333   0.940   3.340   0.619  0.2668 -0.1452 -0.7552
17948TIP3   OH275334   1.949   6.804  17.016  0.2361 -0.0137  0.5974
17948TIP3    H175335   1.865   6.771  17.048  0.0886  0.3040  0.5342
17948TIP3    H275336   2.002   6.813  17.095  0.0925  0.1332  0.6775
17949TIP3   OH275337   6.264   4.110   2.143  0.9151  0.3516  0.1947
17949TIP3    H175338   6.245   4.203   2.151 -0.6936  0.0531  0.1956
17949TIP3    H275339   6.181   4.071   2.113  1.3559 -1.1610  0.8527
17950TIP3   OH275340   2.975   5.989  12.714  0.4783  0.0331  0.1349
17950TIP3    H175341   3.066   5.959  12.723  0.8187  1.4782  2.3007
17950TIP3    H275342   2.924   5.931  12.770  0.2247 -0.1039 -0.2325
17951TIP3   OH275343   2.916   0.098   5.119  0.3507  0.0303 -0.1831
17951TIP3    H175344   3.000   0.051   5.115  0.3201  0.0148 -0.7799
17951TIP3    H275345   2.876   0.081   5.034  0.4082  1.2703 -0.4717
17952TIP3   OH275346   3.413   0.944   3.898 -0.2352 -0.6765  0.0737
17952TIP3    H175347   3.442   0.894   3.974 -0.4246  0.6073  1.0302
17952TIP3    H275348   3.390   0.878   3.833  2.0603 -1.7890  0.3056
17953TIP3   OH275349   4.036   6.260   3.418 -0.0397  0.5175  0.0378
17953TIP3    H175350   4.103   6.292   3.358  0.8530  0.0750  0.7741
17953TIP3    H275351   4.085   6.222   3.492 -1.0924  0.1497  0.5774
17954TIP3   OH275352   2.989   3.124   5.435 -0.8371 -0.1729  0.1354
17954TIP3    H175353   3.038   3.081   5.504  0.8319 -0.5601 -1.2034
17954TIP3    H275354   3.013   3.217   5.443 -0.4701 -0.2492 -0.0283
17955TIP3   OH275355   0.592   6.287   2.344  0.2923  0.2072  0.1336
17955TIP3    H175356   0.658   6.229   2.382 -1.4547 -1.9560  0.0735
17955TIP3    H275357   0.611   6.373   2.382  3.6408 -0.0887 -0.5880
17956TIP3   OH275358   2.283   2.435  13.046  0.2532 -0.4338 -0.4954
17956TIP3    H175359   2.371   2.412  13.074 -0.2671 -2.2296 -0.2418
17956TIP3    H275360   2.293   2.522  13.006  2.0658 -0.4791 -0.2383
17957TIP3   OH275361   4.457   1.418  14.101  0.0348 -0.3337  0.2019
17957TIP3    H175362   4.537   1.461  14.070 -0.3215  0.7282  0.7097
17957TIP3    H275363   4.386   1.466  14.059 -0.4285  0.6607  2.0095
17958TIP3   OH275364   3.184   2.396   4.682 -0.7902 -0.0777  0.2433
17958TIP3    H175365   3.091   2.373   4.691 -1.0301  1.2542  1.7553
17958TIP3    H275366   3.192   2.432   4.594 -1.7175 -0.1794  0.1114
17959TIP3   OH275367   0.748   2.529   0.613  0.1737 -0.0912 -0.1064
17959TIP3    H175368   0.763   2.440   0.645 -2.1132 -0.1123  1.0983
17959TIP3    H275369   0.674   2.521   0.553 -0.7677  1.0951  0.8257
17960TIP3   OH275370   0.342   2.433  14.850  0.2665  0.1109  0.1499
17960TIP3    H175371   0.369   2.371  14.783  3.1940  1.4786 -0.0976
17960TIP3    H275372   0.250   2.412  14.866  0.3836 -2.4683 -1.8126
17961TIP3   OH275373   0.778   1.695   2.956  0.4094 -0.4606  0.2703
17961TIP3    H175374   0.771   1.601   2.970  1.3023 -0.5228  0.3675
17961TIP3    H275375   0.697   1.731   2.992  0.4803 -1.0986  1.0870
17962TIP3   OH275376   1.109   4.804  16.080  0.1411 -0.4853 -0.1414
17962TIP3    H175377   1.044   4.868  16.053 -0.3627 -0.5981  0.7659
17962TIP3    H275378   1.059   4.724  16.095  0.6638 -0.9032 -0.5744
17963TIP3   OH275379   4.504   1.691   0.646  0.2682  0.0460 -0.5684
17963TIP3    H175380   4.597   1.698   0.668  0.1277  3.5981 -0.4281
17963TIP3    H275381   4.499   1.720   0.555 -0.5185 -2.4318 -1.3854
17964TIP3   OH275382   1.604   2.318   5.027  0.0866 -0.3151 -0.2794
17964TIP3    H175383   1.641   2.239   5.066 -0.1083 -0.6129 -0.6864
17964TIP3    H275384   1.532   2.342   5.085 -0.4336 -0.9663 -0.6477
17965TIP3   OH275385   5.316   3.124   4.604  0.3062  0.1755  0.4328
17965TIP3    H175386   5.367   3.047   4.580  1.1755  1.0567 -0.6469
17965TIP3    H275387   5.278   3.102   4.689  4.3957  0.3314  2.5469
17966TIP3   OH275388   0.507   4.859   0.543 -0.3597 -0.1193 -0.2999
17966TIP3    H175389   0.540   4.800   0.612 -0.4056 -0.2085 -0.3541
17966TIP3    H275390   0.412   4.856   0.553 -0.3186  1.2149  0.7596
17967TIP3   OH275391   6.435   0.558   1.371  0.0246  0.0382  0.1219
17967TIP3    H175392   6.478   0.612   1.305 -3.1773  1.3807 -1.0966
17967TIP3    H275393   6.437   0.610   1.451  0.0054  0.4053 -0.1180
17968TIP3   OH275394   0.153   0.757  13.394  0.2817 -1.2671 -0.6623
17968TIP3    H175395   0.173   0.843  13.432 -2.2152 -0.5698 -0.7169
17968TIP3    H275396   0.225   0.740  13.333  1.3771  0.2767  0.1142
17969TIP3   OH275397   5.418   4.108  14.947 -0.4648 -0.2599  0.5573
17969TIP3    H175398   5.409   4.200  14.923  0.3273 -0.5763 -1.1457
17969TIP3    H275399   5.333   4.070  14.929 -0.4963 -0.0543  0.2518
17970TIP3   OH275400   2.198   6.760  15.236  0.4184 -0.4166 -0.0074
17970TIP3    H175401   2.181   6.733  15.327  0.2094 -1.8945 -0.4678
17970TIP3    H275402   2.111   6.769  15.198  0.4969  0.4972 -0.0071
17971TIP3   OH275403   6.524   3.826   0.590  0.4850  0.2373  0.7489
17971TIP3    H175404   6.487   3.750   0.544  0.2871  0.5871  0.3120
17971TIP3    H275405   6.507   3.809   0.682 -0.7088  0.3358  0.5664
17972TIP3   OH275406   2.552   4.452   3.082 -0.1833  0.1795 -0.5489
17972TIP3    H175407   2.553   4.406   3.166  0.3107 -0.0111 -0.6572
17972TIP3    H275408   2.639   4.493   3.076  0.0683 -0.4383 -1.3083
17973TIP3   OH275409   6.583   5.564  15.719 -0.5660 -0.0346  0.1777
17973TIP3    H175410   6.627   5.649  15.714  0.9613 -0.7548  0.7873
17973TIP3    H275411   6.553   5.558  15.810 -0.0960 -0.3979  0.3165
17974TIP3   OH275412   4.854   0.406  10.676  0.0748 -0.6867 -0.3131
17974TIP3    H175413   4.859   0.432  10.768  0.1697 -1.3548 -0.1225
17974TIP3    H275414   4.912   0.467  10.631 -0.1648 -0.1927  0.0262
17975TIP3   OH275415   0.474   4.132   1.159  0.6215  0.5605 -0.1561
17975TIP3    H175416   0.482   4.219   1.119  0.4644  1.4470  1.6094
17975TIP3    H275417   0.380   4.122   1.176  0.4849 -0.4762 -1.3489
17976TIP3   OH275418   4.614   4.224   4.960  0.2944 -0.2308 -0.2688
17976TIP3    H175419   4.626   4.314   4.929 -0.6900  0.6747  1.7593
17976TIP3    H275420   4.520   4.209   4.954  0.1678 -0.2876  1.4795
17977TIP3   OH275421   0.737   2.506   2.624 -0.1101  0.1149 -0.1202
17977TIP3    H175422   0.806   2.444   2.649 -0.8838 -0.7315 -0.0381
17977TIP3    H275423   0.727   2.495   2.530  0.4799  0.8920 -0.2860
17978TIP3   OH275424   1.646   0.488   6.147  0.3196 -0.1266  0.1409
17978TIP3    H175425   1.592   0.477   6.225  0.7326  1.6340  0.7298
17978TIP3    H275426   1.734   0.506   6.181  0.6591 -0.0463 -0.7441
17979TIP3   OH275427   3.065   0.218   5.313 -0.6701  0.4438 -0.3875
17979TIP3    H175428   3.118   0.293   5.285 -1.2909  1.7559  1.7059
17979TIP3    H275429   3.016   0.193   5.234  1.1640  0.8056 -1.7056
17980TIP3   OH275430   0.338   2.538   4.802  0.1653  0.5708  0.3791
17980TIP3    H175431   0.351   2.517   4.710  0.2429  0.1284  0.4893
17980TIP3    H275432   0.292   2.622   4.801 -1.9284 -0.5309 -0.1098
17981TIP3   OH275433   5.053   0.706  15.285 -0.1009  0.1924  0.1572
17981TIP3    H175434   5.130   0.654  15.264 -0.3782 -0.0153 -0.3694
17981TIP3    H275435   5.060   0.783  15.228 -0.5155 -0.0493 -0.2240
17982TIP3   OH275436   6.175   1.845   5.122 -0.3821 -0.5626  0.0961
17982TIP3    H175437   6.255   1.822   5.170 -0.7636  1.8226  2.0727
17982TIP3    H275438   6.109   1.858   5.191 -2.3206 -1.7455 -1.4449
17983TIP3   OH275439   3.057   1.210  13.775  0.2330 -0.4532 -0.4490
17983TIP3    H175440   3.076   1.117  13.789 -0.2057 -0.6560 -1.1908
17983TIP3    H275441   3.064   1.223  13.681 -1.6685 -0.1905 -0.6016
17984TIP3   OH275442   1.857   5.584  13.073  0.1996 -0.2365  0.3002
17984TIP3    H175443   1.805   5.664  13.070  0.6665  0.1104  1.0924
17984TIP3    H275444   1.922   5.595  13.003  1.7916  1.1969  1.8862
17985TIP3   OH275445   2.897   4.720   0.822  0.0243  0.4260 -0.0656
17985TIP3    H175446   2.827   4.769   0.864  1.2683  0.9610  1.4993
17985TIP3    H275447   2.909   4.762   0.737 -1.8640 -0.0213 -0.5877
17986TIP3   OH275448   1.698   2.138  12.738  0.3045 -0.1803 -0.5455
17986TIP3    H175449   1.736   2.221  12.767  0.8661  0.1539 -2.1397
17986TIP3    H275450   1.713   2.078  12.811  1.9702  0.5138 -0.2633
17987TIP3   OH275451   4.660   6.762  15.783 -0.2555 -0.2392 -0.0533
17987TIP3    H175452   4.598   6.699  15.819  0.8277 -0.8106  0.8689
17987TIP3    H275453   4.607   6.819  15.727 -1.6197 -0.6133  0.8228
17988TIP3   OH275454   3.880   6.322  14.840 -0.2162  0.4549 -0.3782
17988TIP3    H175455   3.961   6.340  14.793 -0.1059 -1.0577 -0.7911
17988TIP3    H275456   3.811   6.356  14.783  0.0665  0.9396 -0.4369
17989TIP3   OH275457   3.073   0.021   0.370  0.1975 -0.3821  0.3071
17989TIP3    H175458   3.034   0.097   0.414  0.6243 -0.0671  0.1427
17989TIP3    H275459   3.006  -0.008   0.308  0.4490  0.5352 -0.4182
17990TIP3   OH275460   5.374   5.980   5.215 -0.2833  0.1302 -0.5211
17990TIP3    H175461   5.282   5.999   5.235 -0.6979 -0.4820 -1.7379
17990TIP3    H275462   5.422   6.005   5.294 -1.4194  1.0766 -0.1149
17991TIP3   OH275463   1.631   6.729  12.175  0.1995 -0.0550  0.1211
17991TIP3    H175464   1.538   6.746  12.190  0.5376  1.0231  1.2105
17991TIP3    H275465   1.663   6.699  12.260  0.4093 -2.7738 -0.8124
17992TIP3   OH275466   2.412   4.931   4.494 -0.1120 -0.5027  0.5018
17992TIP3    H175467   2.464   4.882   4.431  3.3943  0.7223  2.1523
17992TIP3    H275468   2.430   4.890   4.578 -1.4409  0.3267  1.2331
17993TIP3   OH275469   6.225   1.636  13.466 -0.3102 -0.5158 -0.2697
17993TIP3    H175470   6.308   1.597  13.442  1.2064  1.9671  0.5055
17993TIP3    H275471   6.216   1.618  13.560  1.0015  1.7581  0.3833
17994TIP3   OH275472   0.966   4.982   0.244 -0.1152 -0.0199 -0.2487
17994TIP3    H175473   0.879   4.956   0.271 -0.0272 -0.8917 -0.7878
17994TIP3    H275474   0.984   5.062   0.294 -1.2066  0.1559 -0.1297
17995TIP3   OH275475   4.962   4.036   1.174  0.3588  0.3400 -0.1827
17995TIP3    H175476   4.939   4.126   1.196  0.7280  0.1150  1.2554
17995TIP3    H275477   4.969   3.992   1.259  0.4962 -0.9657 -0.8474
17996TIP3   OH275478   2.353   4.537  13.447  0.0849 -0.1932 -0.5835
17996TIP3    H175479   2.444   4.556  13.425 -0.4359  1.2831 -1.6330
17996TIP3    H275480   2.302   4.587  13.384 -1.4706  1.2654  1.6569
17997TIP3   OH275481   5.285   2.554  12.727 -0.7782  0.2847  0.2026
17997TIP3    H175482   5.310   2.462  12.729 -0.9066  0.2588  0.6047
17997TIP3    H275483   5.363   2.599  12.694 -1.0393 -0.0711 -0.9548
17998TIP3   OH275484   5.624   6.282  13.603  0.1003  0.5778  0.6889
17998TIP3    H175485   5.531   6.284  13.628  0.1536 -0.8377  1.0669
17998TIP3    H275486   5.669   6.245  13.679  0.8101  0.1071  0.0522
17999TIP3   OH275487   5.959   5.788   3.803  0.0380 -0.0052  0.0418
17999TIP3    H175488   5.904   5.711   3.789  0.4489 -0.0020 -1.9669
17999TIP3    H275489   6.004   5.772   3.886 -1.4462 -0.9376  0.6971
18000TIP3   OH275490   6.376   0.324   6.247  0.5243  0.1437  0.3728
18000TIP3    H175491   6.424   0.242   6.257 -1.8667 -1.3041  0.9557
18000TIP3    H275492   6.437   0.383   6.203  1.9927 -2.2993 -1.1086
18001TIP3   OH275493   3.205   1.403  12.602  0.4105  0.5505  0.0383
18001TIP3    H175494   3.185   1.422  12.694 -1.9176 -0.9928 -0.0873
18001TIP3    H275495   3.136   1.447  12.553 -1.5457 -2.8484 -0.5735
18002TIP3   OH275496   4.667   4.851   4.662 -0.1633 -0.4236  0.1980
18002TIP3    H175497   4.587   4.886   4.701 -0.2561 -0.5744  0.1456
18002TIP3    H275498   4.738   4.891   4.713 -0.2606  0.0026  0.0004
18003TIP3   OH275499   2.281   0.119  11.876 -0.2936 -0.2085  0.3383
18003TIP3    H175500   2.325   0.126  11.961  0.6012 -0.9729 -0.0352
18003TIP3    H275501   2.218   0.048  11.887 -0.2739 -0.2150  0.4062
18004TIP3   OH275502   3.772   2.452   1.777 -0.5278 -0.3127 -0.1977
18004TIP3    H175503   3.841   2.400   1.736 -0.1878  0.9024 -1.2232
18004TIP3    H275504   3.692   2.400   1.763  0.0752 -1.4931  0.5749
18005TIP3   OH275505   4.658   0.667   5.911 -0.6266 -0.4636  0.7067
18005TIP3    H175506   4.590   0.632   5.968 -1.1679 -2.7118 -1.1424
18005TIP3    H275507   4.611   0.724   5.850 -0.5898 -0.6691  0.4846
18006TIP3   OH275508   6.619   3.532  16.943 -0.1582 -0.0340 -0.3981
18006TIP3    H175509   6.708   3.501  16.930 -0.1430  0.7639 -2.6484
18006TIP3    H275510   6.608   3.601  16.878 -1.8120  1.2196  1.1147
18007TIP3   OH275511   2.225   2.586  14.171  0.0838 -0.2780 -0.0772
18007TIP3    H175512   2.144   2.538  14.192 -0.4109  0.6896  0.3288
18007TIP3    H275513   2.219   2.665  14.225  1.2728 -0.1537 -0.1143
18008TIP3   OH275514   2.066   4.803   5.501 -0.0065  0.0137  0.0392
18008TIP3    H175515   2.023   4.728   5.461 -0.6285  0.2139  0.3196
18008TIP3    H275516   1.996   4.867   5.514  0.7879  1.3514 -1.7888
18009TIP3   OH275517   2.709   2.789  16.404 -0.2395 -0.5851  0.0809
18009TIP3    H175518   2.747   2.857  16.460 -1.6998 -1.3157  2.0636
18009TIP3    H275519   2.764   2.713  16.418 -0.7792 -0.8524  0.7655
18010TIP3   OH275520   3.649   5.501  11.923 -0.0358 -0.3401 -0.0966
18010TIP3    H175521   3.640   5.413  11.887 -1.2905 -0.3828  0.2896
18010TIP3    H275522   3.560   5.535  11.927  0.3710  0.7373  0.3086
18011TIP3   OH275523   3.640   1.511  12.658  0.8350  0.3838 -0.2089
18011TIP3    H175524   3.586   1.507  12.737  1.7395 -1.9202  0.3837
18011TIP3    H275525   3.579   1.522  12.586 -0.1446  0.8563  0.6754
18012TIP3   OH275526   1.519   6.057   3.827 -0.2985  0.2987  0.0298
18012TIP3    H175527   1.441   6.103   3.797 -1.0710 -2.1716 -2.1078
18012TIP3    H275528   1.583   6.070   3.757  0.0804 -0.3670  0.2428
18013TIP3   OH275529   4.185   5.552   5.951  0.5572  0.4336 -0.1326
18013TIP3    H175530   4.229   5.507   6.022 -0.1343 -0.5525 -0.3130
18013TIP3    H275531   4.179   5.487   5.881 -1.3318  0.4595 -0.0442
18014TIP3   OH275532   3.065   1.966   2.023  0.6424  1.1431 -0.7659
18014TIP3    H175533   3.032   1.949   1.935 -0.1863  0.8235 -0.4045
18014TIP3    H275534   3.043   1.887   2.072  1.9178  0.9384 -0.4912
18015TIP3   OH275535   1.808   6.035  13.944  0.2984 -0.6124  0.4316
18015TIP3    H175536   1.794   6.130  13.943 -0.0159 -0.6480  0.9124
18015TIP3    H275537   1.725   5.999  13.913  0.4438 -0.7276  0.1802
18016TIP3   OH275538   0.105   1.711  10.912  0.0016 -0.0184  0.0826
18016TIP3    H175539   0.053   1.696  10.991 -0.4530 -2.0964 -0.5554
18016TIP3    H275540   0.147   1.796  10.927 -1.6614  0.5848  1.6619
18017TIP3   OH275541   4.673   5.118  12.594  0.2187  0.6025 -0.2394
18017TIP3    H175542   4.586   5.120  12.555  0.8635  2.3885 -1.7428
18017TIP3    H275543   4.688   5.209  12.622  1.4432  0.2322  0.3540
18018TIP3   OH275544   6.223   5.266   5.260 -0.2614 -0.2473 -0.2016
18018TIP3    H175545   6.275   5.190   5.286  0.4927  0.7545  1.4025
18018TIP3    H275546   6.234   5.328   5.332 -2.1366  0.7745 -0.7239
18019TIP3   OH275547   1.072   5.050   2.784  0.3712 -0.5013 -0.0121
18019TIP3    H175548   1.070   5.014   2.696 -0.3724 -0.1430 -0.1507
18019TIP3    H275549   1.101   5.140   2.773  2.4061 -1.0632  0.3533
18020TIP3   OH275550   0.930   5.927  16.946 -0.0623  0.5534 -0.1278
18020TIP3    H175551   0.849   5.957  16.905 -0.1608 -0.7042 -0.9138
18020TIP3    H275552   0.976   6.008  16.969 -1.9954  1.3309  1.3712
18021TIP3   OH275553   3.844   0.952  11.845  0.4258 -0.0213 -0.5181
18021TIP3    H175554   3.748   0.954  11.849  0.4410  0.7320  2.9615
18021TIP3    H275555   3.870   1.041  11.869  1.9698 -0.6977  0.4282
18022TIP3   OH275556   1.947   3.665   1.348  0.3250  0.0849  0.2290
18022TIP3    H175557   1.875   3.636   1.292  0.7710 -0.8878  0.1264
18022TIP3    H275558   1.905   3.720   1.414 -0.6111 -0.8705  0.4810
18023TIP3   OH275559   4.144   5.793   3.195  0.3019 -0.1193  0.5962
18023TIP3    H175560   4.084   5.867   3.201  0.2255 -0.2914  2.8018
18023TIP3    H275561   4.087   5.717   3.190  0.3765 -0.1308 -0.1999
18024TIP3   OH275562   2.938   2.764   5.078  0.1508 -0.6025  0.3469
18024TIP3    H175563   2.946   2.745   4.985 -0.5519 -0.9628  0.3604
18024TIP3    H275564   2.964   2.856   5.086  0.5852 -0.6808 -0.1446
18025TIP3   OH275565   5.150   6.795   6.210  0.0020  0.5601  0.4616
18025TIP3    H175566   5.164   6.862   6.277  0.0912  0.8122  0.1942
18025TIP3    H275567   5.205   6.823   6.136 -0.7003  0.7096 -0.0147
18026TIP3   OH275568   1.968   1.057   5.689 -0.2538 -1.0870 -0.2424
18026TIP3    H175569   2.059   1.064   5.715  0.9138 -2.9362 -3.3065
18026TIP3    H275570   1.944   0.967   5.708 -1.0363 -0.9676 -0.6041
18027TIP3   OH275571   2.632   0.668   2.337 -0.3319  0.0186 -0.0138
18027TIP3    H175572   2.681   0.741   2.375 -0.9396  0.9057 -0.8828
18027TIP3    H275573   2.692   0.628   2.274 -0.4160  0.5777 -0.4605
18028TIP3   OH275574   4.813   4.669   4.972  0.5361  0.0546  0.2673
18028TIP3    H175575   4.869   4.632   4.903  0.0543  0.3225 -0.2780
18028TIP3    H275576   4.741   4.607   4.980  1.5129 -0.9431  1.8495
18029TIP3   OH275577   6.745   2.695   0.312 -0.0699  0.3787  0.5622
18029TIP3    H175578   6.806   2.639   0.359 -0.6621 -0.4387  0.3866
18029TIP3    H275579   6.723   2.765   0.374 -0.6642 -0.5496  1.4404
18030TIP3   OH275580   6.331   6.302   5.598  0.3818 -0.3577  0.2696
18030TIP3    H175581   6.237   6.303   5.585  0.4727  1.0743 -0.5426
18030TIP3    H275582   6.359   6.216   5.566 -0.6934 -1.0066  1.0380
18031TIP3   OH275583   2.932   6.181   3.979  0.2673  0.2355  0.4125
18031TIP3    H175584   2.861   6.185   3.915 -1.1341  0.2929  1.8830
18031TIP3    H275585   2.931   6.267   4.021  1.7377  0.5030 -0.0446
18032TIP3   OH275586   6.802   4.192  15.859 -0.1275  0.6473 -1.1573
18032TIP3    H175587   6.767   4.254  15.923 -1.5160  1.5245 -2.6772
18032TIP3    H275588   6.766   4.107  15.885 -1.0455  1.0677 -1.0164
18033TIP3   OH275589   2.574   2.923  13.588  0.7033 -0.0907  0.3052
18033TIP3    H175590   2.664   2.901  13.613 -0.2484 -1.7791  2.6586
18033TIP3    H275591   2.571   2.911  13.493  2.8703 -0.2888  0.2207
18034TIP3   OH275592   4.097   5.088   3.242 -0.3162 -0.3102 -0.0345
18034TIP3    H175593   4.169   5.081   3.305  1.1100 -2.3493 -1.7311
18034TIP3    H275594   4.050   5.005   3.250 -0.0426 -0.6508 -1.6781
18035TIP3   OH275595   0.277   6.399   4.857 -0.0644 -0.1552 -0.2724
18035TIP3    H175596   0.309   6.477   4.812 -0.4239  0.3925  0.3971
18035TIP3    H275597   0.190   6.424   4.890 -0.9234 -1.3891 -1.4935
18036TIP3   OH275598   1.689   3.884  12.953 -0.3437  0.6447  0.4269
18036TIP3    H175599   1.781   3.877  12.926 -0.4023 -0.5319  0.4511
18036TIP3    H275600   1.692   3.877  13.048 -0.4720  0.3627  0.4115
18037TIP3   OH275601   3.040   0.426   2.794 -0.1779  0.1890 -0.0364
18037TIP3    H175602   3.092   0.395   2.869  1.0396 -0.8472 -1.2534
18037TIP3    H275603   2.978   0.355   2.777  1.1547 -0.7019 -1.4614
18038TIP3   OH275604   5.077   3.475   3.448  0.7339  0.4982  0.0407
18038TIP3    H175605   5.038   3.501   3.531 -1.3362 -0.1769 -0.6332
18038TIP3    H275606   5.115   3.389   3.466  1.2635  0.8347  0.5459
18039TIP3   OH275607   1.989   2.542   0.665  0.1658 -0.2420  0.3031
18039TIP3    H175608   1.966   2.523   0.756  0.4508  0.7474  0.5966
18039TIP3    H275609   1.917   2.598   0.634  0.0649 -0.5843 -0.0831
18040TIP3   OH275610   0.210   5.460   3.046  0.5402 -0.7406  0.1687
18040TIP3    H175611   0.290   5.435   3.001  1.2077  0.0501  0.8918
18040TIP3    H275612   0.206   5.401   3.122  0.7442 -0.4029  0.4446
18041TIP3   OH275613   1.974   5.617   5.568  0.4135 -0.4865 -0.5850
18041TIP3    H175614   2.000   5.706   5.545 -1.5605 -0.0634 -1.3750
18041TIP3    H275615   2.054   5.565   5.557  1.3562  0.9992 -1.0581
18042TIP3   OH275616   2.612   0.737   2.845  0.2904 -0.6276  0.1358
18042TIP3    H175617   2.691   0.683   2.841 -0.8775 -2.3586 -1.5446
18042TIP3    H275618   2.591   0.754   2.753  0.2675  2.2966  0.5921
18043TIP3   OH275619   3.878   3.722  13.685 -0.1169  0.4366  0.1478
18043TIP3    H175620   3.804   3.733  13.625 -1.6078  0.2260  1.8692
18043TIP3    H275621   3.901   3.811  13.712 -0.1047  0.4682  0.0327
18044TIP3   OH275622   6.207   2.870   3.635  0.0310  0.4375 -0.3087
18044TIP3    H175623   6.207   2.899   3.544  1.9869 -0.1530 -0.5531
18044TIP3    H275624   6.300   2.863   3.658 -0.4021 -0.8624  1.2591
18045TIP3   OH275625   1.433   6.505   3.051  0.1681  0.1486  0.1795
18045TIP3    H175626   1.435   6.588   3.098  0.7682  0.0953  0.2487
18045TIP3    H275627   1.367   6.518   2.982 -0.7329  0.2194  1.0300
18046TIP3   OH275628   4.823   3.130   5.127  0.1236 -0.3548 -0.2523
18046TIP3    H175629   4.783   3.177   5.200  1.2071  0.8324 -0.3909
18046TIP3    H275630   4.839   3.042   5.161 -0.3497 -0.1239  0.5907
18047TIP3   OH275631   0.457   0.383   3.522  0.0940 -0.1939  0.0240
18047TIP3    H175632   0.541   0.427   3.531  0.3164 -0.2380 -1.4449
18047TIP3    H275633   0.477   0.306   3.468 -0.8999 -0.1369 -0.4423
18048TIP3   OH275634   4.543   6.296   4.920  0.3149 -0.4243 -0.8162
18048TIP3    H175635   4.619   6.252   4.959  0.6693  1.6257  0.9447
18048TIP3    H275636   4.475   6.290   4.986  0.0048  0.6553 -1.0261
18049TIP3   OH275637   6.068   4.483   2.744 -0.4589 -0.1432 -0.3928
18049TIP3    H175638   6.142   4.543   2.737 -2.6657  2.6263 -3.0356
18049TIP3    H275639   6.015   4.519   2.815 -0.2361 -0.9848  0.2143
18050TIP3   OH275640   3.385   4.812  13.404  0.0099  0.4078  0.1327
18050TIP3    H175641   3.412   4.867  13.477 -0.8461  1.4007 -0.2738
18050TIP3    H275642   3.291   4.801  13.416  0.1284 -0.7948  0.0796
18051TIP3   OH275643   1.264   5.151   4.092  0.0849 -0.0088  0.1837
18051TIP3    H175644   1.281   5.127   4.183  1.5788 -1.8614 -0.5066
18051TIP3    H275645   1.341   5.202   4.065  0.8881 -1.5885 -0.6904
18052TIP3   OH275646   1.530   2.066   3.235 -0.0013  0.1318  0.3697
18052TIP3    H175647   1.441   2.096   3.216  0.2464 -0.9186 -2.9713
18052TIP3    H275648   1.523   1.971   3.243  0.6360  0.1636  1.5509
18053TIP3   OH275649   0.681   0.540   3.931 -0.3358 -0.5083 -0.3068
18053TIP3    H175650   0.706   0.599   4.002  0.2575 -1.5002  0.3243
18053TIP3    H275651   0.752   0.546   3.868 -0.2860 -0.5380 -0.2530
18054TIP3   OH275652   0.485   1.379   5.804  0.7084  0.1300  1.2378
18054TIP3    H175653   0.445   1.466   5.803 -0.4174 -0.3749  0.8413
18054TIP3    H275654   0.529   1.372   5.719  0.7969  0.3103  1.2678
18055TIP3   OH275655   5.350   0.717  10.839  0.0987  0.4198 -0.1305
18055TIP3    H175656   5.375   0.685  10.752 -0.1397 -0.1299 -0.0033
18055TIP3    H275657   5.255   0.704  10.843 -0.0729  1.5244 -0.2162
18056TIP3   OH275658   2.784   3.031   1.461 -0.0426 -0.3879  0.0012
18056TIP3    H175659   2.750   3.035   1.371  0.3712  0.8019 -0.1192
18056TIP3    H275660   2.879   3.029   1.451  0.0565  0.9712  0.4085
18057TIP3   OH275661   2.458   4.671  15.736 -0.2945  0.2163 -0.3604
18057TIP3    H175662   2.374   4.642  15.700 -0.9187  0.7054  0.6775
18057TIP3    H275663   2.471   4.759  15.701 -1.8684  1.5239  2.0415
18058TIP3   OH275664   0.386   4.093   1.874  0.6168  0.1504  0.0070
18058TIP3    H175665   0.424   4.024   1.927  2.0414  0.9998  0.1478
18058TIP3    H275666   0.335   4.146   1.937 -3.2023 -2.4458 -0.5820
18059TIP3   OH275667   5.685   4.776   4.144 -0.1391 -0.0968 -0.0543
18059TIP3    H175668   5.685   4.691   4.099 -0.2031  0.1743 -0.5742
18059TIP3    H275669   5.763   4.773   4.199 -1.3478 -1.3998  1.6901
18060TIP3   OH275670   4.945   0.102  13.361  0.1248 -0.0977  0.1062
18060TIP3    H175671   5.013   0.127  13.423  0.6188 -0.0263 -0.4504
18060TIP3    H275672   4.964   0.010  13.341  1.3258  0.4708 -1.6017
18061TIP3   OH275673   5.903   2.643  13.489  0.4093 -0.4981  0.4920
18061TIP3    H175674   5.944   2.559  13.464  0.4663 -0.2826 -0.1654
18061TIP3    H275675   5.856   2.670  13.411 -2.8453 -1.7783  1.8435
18062TIP3   OH275676   1.608   6.305  14.960  0.5119  0.2011  0.4003
18062TIP3    H175677   1.639   6.224  14.999 -0.5251  0.5571  2.0413
18062TIP3    H275678   1.677   6.369  14.979  1.2270 -0.2206 -0.7025
18063TIP3   OH275679   1.438   6.582   0.060 -0.2292 -0.7633  0.3976
18063TIP3    H175680   1.447   6.489   0.042 -1.1973 -0.9165  0.6255
18063TIP3    H275681   1.449   6.590   0.155 -0.2132 -0.6586  0.3875
18064TIP3   OH275682   5.893   5.903   0.945  0.0760 -0.1161 -0.1787
18064TIP3    H175683   5.973   5.875   0.989 -1.2527 -1.7079  1.4267
18064TIP3    H275684   5.849   5.821   0.922 -1.1754  0.7135 -0.8604
18065TIP3   OH275685   2.173   6.529  17.173 -0.0413 -0.1995  0.4438
18065TIP3    H175686   2.162   6.439  17.142  0.7703 -0.5809  1.2179
18065TIP3    H275687   2.102   6.577  17.131  0.3356 -0.9130 -1.1067
18066TIP3   OH275688   3.534   2.606  12.058 -0.3019 -0.0451 -0.3838
18066TIP3    H175689   3.452   2.573  12.095  0.4464 -1.7024 -0.1284
18066TIP3    H275690   3.550   2.552  11.981 -0.6405  1.8428 -1.8385
18067TIP3   OH275691   1.417   5.502  12.727 -0.2604  0.0860  0.0781
18067TIP3    H175692   1.343   5.534  12.675  0.1836  0.3107 -0.4346
18067TIP3    H275693   1.462   5.581  12.757 -0.0645 -0.0475  0.1428
18068TIP3   OH275694   1.392   0.823  16.275 -0.8066 -0.3472 -0.1919
18068TIP3    H175695   1.410   0.916  16.260 -2.0118 -0.2006 -0.8431
18068TIP3    H275696   1.473   0.789  16.314  0.2052  0.6361 -1.3382
18069TIP3   OH275697   5.934   1.010  14.660  0.2205 -0.4089  0.1886
18069TIP3    H175698   5.957   0.942  14.597  1.9571 -1.1470  1.5268
18069TIP3    H275699   6.012   1.065  14.665 -1.3509  2.1313 -1.3048
18070TIP3   OH275700   2.051   4.156  12.936  0.4026 -0.5262 -0.7837
18070TIP3    H175701   2.074   4.244  12.966 -2.4388  0.1334 -0.2568
18070TIP3    H275702   2.088   4.150  12.848  0.3917  1.3233 -0.9430
18071TIP3   OH275703   5.149   3.378  11.506 -0.4790 -0.1524 -0.2799
18071TIP3    H175704   5.069   3.389  11.557  0.0170 -0.0763  0.4863
18071TIP3    H275705   5.157   3.283  11.496  0.8813 -0.3743  2.1786
18072TIP3   OH275706   1.148   0.010   6.712 -0.0838 -0.0098  0.3487
18072TIP3    H175707   1.070   0.028   6.659 -0.5265 -0.0374  0.9675
18072TIP3    H275708   1.125  -0.070   6.761  0.6223 -0.4374 -0.0133
18073TIP3   OH275709   6.118   3.423  10.654 -1.4502  0.4392 -0.2594
18073TIP3    H175710   6.101   3.330  10.641 -2.7692  0.5924  0.2516
18073TIP3    H275711   6.042   3.455  10.702 -0.9365  1.7538 -0.2812
18074TIP3   OH275712   1.171   0.567  13.098  0.1124  0.9814  0.2053
18074TIP3    H175713   1.146   0.652  13.063  0.3616  1.3092  0.8108
18074TIP3    H275714   1.139   0.504  13.034  1.3399  1.6061 -1.0560
18075TIP3   OH275715   2.172   1.646  12.952  0.2632 -0.0871 -0.0611
18075TIP3    H175716   2.083   1.612  12.938  1.0303 -2.1781 -0.2207
18075TIP3    H275717   2.178   1.658  13.047 -0.2591  0.3403 -0.0722
18076TIP3   OH275718   4.463   6.589  15.000 -0.0223 -0.0322 -0.8485
18076TIP3    H175719   4.397   6.607  15.067 -0.7034 -1.2208 -1.1662
18076TIP3    H275720   4.499   6.674  14.977  0.0125  0.4324  0.8141
18077TIP3   OH275721   4.809   6.729   4.722 -0.2792  0.6083 -0.2569
18077TIP3    H175722   4.783   6.790   4.790  0.5231  2.1611 -1.2905
18077TIP3    H275723   4.791   6.642   4.759 -2.6870  1.4575  0.7406
18078TIP3   OH275724   2.178   4.375   1.270  0.3305  0.0282 -0.1951
18078TIP3    H175725   2.148   4.303   1.213  0.1329  0.2802 -0.4155
18078TIP3    H275726   2.272   4.360   1.280  0.6085  0.6488 -1.5818
18079TIP3   OH275727   0.811   0.279  15.994 -0.2366 -0.3286 -0.6109
18079TIP3    H175728   0.812   0.309  15.903 -0.9129  0.3125 -0.4137
18079TIP3    H275729   0.719   0.278  16.018  0.0365  1.6080  0.7313
18080TIP3   OH275730   5.308   0.497   1.027  0.1997  0.0775 -0.3018
18080TIP3    H175731   5.295   0.584   1.064  0.3534 -0.1181  0.2241
18080TIP3    H275732   5.382   0.462   1.076  0.1713 -0.3283 -0.5490
18081TIP3   OH275733   6.536   1.913   4.620 -0.3542 -0.0644 -0.2221
18081TIP3    H175734   6.589   1.867   4.685 -1.9160 -0.4028  0.8687
18081TIP3    H275735   6.446   1.904   4.651 -1.0276  0.9136 -1.7438
18082TIP3   OH275736   2.351   4.451  11.487 -0.2420  0.4982  0.0620
18082TIP3    H175737   2.374   4.366  11.523  1.5551  0.6864 -0.5472
18082TIP3    H275738   2.406   4.460  11.409 -0.8599  1.9567 -0.2483
18083TIP3   OH275739   5.607   6.708  16.200 -0.7200 -0.1370  0.4326
18083TIP3    H175740   5.640   6.674  16.283  0.2388  0.2752  0.2321
18083TIP3    H275741   5.525   6.751  16.223 -0.9027 -0.7854  1.0235
18084TIP3   OH275742   4.382   4.473   3.766  0.2252 -0.3464 -0.9088
18084TIP3    H175743   4.308   4.426   3.803 -0.8866  0.0739 -2.4960
18084TIP3    H275744   4.350   4.507   3.683  2.1801 -0.0898 -1.6195
18085TIP3   OH275745   6.424   2.716  10.897 -0.2140  0.4133  0.2692
18085TIP3    H175746   6.375   2.657  10.839  0.2133 -0.0450  0.3663
18085TIP3    H275747   6.369   2.794  10.904  0.3912  1.0854 -1.9171
18086TIP3   OH275748   3.839   1.816   6.068 -0.2853  0.1161  0.3114
18086TIP3    H175749   3.897   1.878   6.113  2.2776  0.7054 -3.3333
18086TIP3    H275750   3.889   1.734   6.065  0.3525  0.4941 -2.4818
18087TIP3   OH275751   1.212   0.402   4.323  0.1667  0.1514 -0.0241
18087TIP3    H175752   1.243   0.351   4.398 -2.5592 -1.4170  0.1625
18087TIP3    H275753   1.127   0.437   4.350  1.0228  3.2384 -0.8979
18088TIP3   OH275754   0.020   1.357   0.904 -0.9039  0.6576  0.1436
18088TIP3    H175755   0.106   1.342   0.942 -0.9481  0.7364  0.2778
18088TIP3    H275756   0.030   1.337   0.811 -1.3623 -1.8712  0.5664
18089TIP3   OH275757   0.569   3.536  12.322  0.2558 -0.4039 -0.5440
18089TIP3    H175758   0.592   3.487  12.401  1.8913 -0.3605 -0.9613
18089TIP3    H275759   0.566   3.471  12.252 -3.1596 -0.7915 -0.2028
18090TIP3   OH275760   4.824   4.648   0.992  0.1093  0.0223 -0.8621
18090TIP3    H175761   4.900   4.592   0.977 -0.5058 -0.4445 -2.3797
18090TIP3    H275762   4.752   4.587   1.006 -0.2527  0.4528 -0.8405
18091TIP3   OH275763   6.278   2.939  12.521  0.0839  0.1809  0.1978
18091TIP3    H175764   6.231   3.013  12.483 -0.4916 -0.9761 -1.4221
18091TIP3    H275765   6.363   2.939  12.477  0.3174  0.2174  0.6374
18092TIP3   OH275766   0.179   2.389   4.330 -0.1449 -0.2518  0.2145
18092TIP3    H175767   0.133   2.357   4.408  0.7285  0.3321  0.9948
18092TIP3    H275768   0.242   2.321   4.310 -0.1213 -0.2390  0.2448
18093TIP3   OH275769   0.139   2.834  16.144 -0.2611  0.4143 -0.0263
18093TIP3    H175770   0.063   2.810  16.196 -0.3699  1.5848  0.3805
18093TIP3    H275771   0.176   2.910  16.189  2.6313 -1.5599  1.2284
18094TIP3   OH275772   2.843   6.629  14.048  0.0674  0.4172 -0.5866
18094TIP3    H175773   2.791   6.635  14.128  1.1399 -0.0032  0.1666
18094TIP3    H275774   2.847   6.536  14.029  1.9645  0.2449  0.3729
18095TIP3   OH275775   4.363   4.355  16.348  0.7920 -0.0285 -0.3953
18095TIP3    H175776   4.284   4.410  16.350  0.1788 -0.7210 -2.6304
18095TIP3    H275777   4.435   4.415  16.369  0.0975  1.5562 -2.2652
18096TIP3   OH275778   0.894   3.879   6.183 -0.1180  0.5502  0.0612
18096TIP3    H175779   0.933   3.800   6.146  0.2803  0.6821  0.1943
18096TIP3    H275780   0.805   3.853   6.207 -1.5133  1.1955 -3.6721
18097TIP3   OH275781   2.938   2.688   0.826 -0.0681 -0.4832 -0.2451
18097TIP3    H175782   3.001   2.740   0.876 -0.2730 -0.3172 -0.1588
18097TIP3    H275783   2.930   2.734   0.743  2.7859 -2.5095 -1.8034
18098TIP3   OH275784   2.933   5.392  16.602 -0.2935 -0.6105  0.5779
18098TIP3    H175785   2.947   5.464  16.664 -2.9526 -1.2087  2.0537
18098TIP3    H275786   2.939   5.313  16.655  1.7093 -1.4987 -0.8554
18099TIP3   OH275787   4.221   0.828   2.402 -0.0849 -0.1384 -0.1335
18099TIP3    H175788   4.137   0.874   2.410 -0.5103 -0.9110  0.0147
18099TIP3    H275789   4.287   0.896   2.409 -0.6912  0.4184  0.3118
18100TIP3   OH275790   0.519   1.254   2.340  0.4068 -0.4542 -0.0988
18100TIP3    H175791   0.583   1.186   2.363  0.6601 -0.0341  0.4670
18100TIP3    H275792   0.535   1.271   2.247 -0.7469 -2.3005 -0.6801
18101TIP3   OH275793   6.634   5.364   1.413  0.0390  0.7593 -0.1529
18101TIP3    H175794   6.585   5.446   1.411 -3.4022 -1.0614  1.4845
18101TIP3    H275795   6.582   5.304   1.359  1.5840 -0.8084  0.0321
18102TIP3   OH275796   6.715   2.470  13.309 -0.5451 -0.2146 -0.6937
18102TIP3    H175797   6.633   2.424  13.330  0.0136 -1.1140 -0.4562
18102TIP3    H275798   6.748   2.500  13.394 -0.2048 -0.5777 -0.6969
18103TIP3   OH275799   6.435   0.125  13.891 -0.1676  0.1696 -0.3257
18103TIP3    H175800   6.486   0.044  13.879 -0.4757  0.0827 -1.1282
18103TIP3    H275801   6.452   0.150  13.982  0.1509 -0.6483 -0.1411
18104TIP3   OH275802   3.363   4.924  11.800  0.5075  0.2318  0.2857
18104TIP3    H175803   3.309   4.970  11.735  1.7781  0.0702 -0.9167
18104TIP3    H275804   3.340   4.832  11.790  2.0816 -0.0223 -1.3190
18105TIP3   OH275805   4.164   2.541  16.902 -0.3935  0.1757  0.1957
18105TIP3    H175806   4.222   2.545  16.827 -2.0767 -2.3930 -1.3998
18105TIP3    H275807   4.134   2.631  16.915  1.2660  0.9564 -1.0509
18106TIP3   OH275808   2.672   0.943  13.536 -0.2080  0.3465 -0.2165
18106TIP3    H175809   2.657   1.035  13.516  4.3146  1.9102  2.0863
18106TIP3    H275810   2.632   0.930  13.622  0.9800  0.8588  0.4295
18107TIP3   OH275811   6.612   1.826   5.566  0.1069  0.5523 -0.4871
18107TIP3    H175812   6.659   1.746   5.590 -0.7089 -0.1554 -1.1616
18107TIP3    H275813   6.525   1.815   5.604  0.5079  1.9228  0.8920
18108TIP3   OH275814   4.445   0.785   3.121 -0.0446 -0.0328 -0.1856
18108TIP3    H175815   4.420   0.705   3.168  0.0482  0.1141  0.1167
18108TIP3    H275816   4.403   0.776   3.035  0.9108 -0.9462 -0.5781
18109TIP3   OH275817   0.617   0.697   4.642  0.1216 -0.2719  0.2009
18109TIP3    H175818   0.698   0.646   4.646  1.1893  1.3472 -0.2338
18109TIP3    H275819   0.620   0.754   4.719 -1.2510 -1.0743  0.8941
18110TIP3   OH275820   1.365   2.066  16.069 -0.8874 -0.3063 -0.2847
18110TIP3    H175821   1.409   2.015  16.002 -0.1258  0.3827 -0.3275
18110TIP3    H275822   1.282   2.091  16.030 -1.7519 -2.3487  0.1098
18111TIP3   OH275823   5.837   4.990   1.474  0.0745 -0.0364  0.1581
18111TIP3    H175824   5.888   4.918   1.438  1.3869  1.2670 -0.6914
18111TIP3    H275825   5.747   4.956   1.478  0.9212 -2.3640  1.6202
18112TIP3   OH275826   4.078   0.384  13.534 -0.3379  0.5986  0.3795
18112TIP3    H175827   4.165   0.403  13.568  0.6339 -0.8692 -1.1385
18112TIP3    H275828   4.063   0.453  13.469  1.5147 -1.3204 -2.2991
18113TIP3   OH275829   0.458   5.677   1.817 -0.0539 -0.4233  1.0588
18113TIP3    H175830   0.553   5.685   1.828 -0.0918 -0.3480  1.3462
18113TIP3    H275831   0.425   5.766   1.832  0.0722  0.2015 -1.7941
18114TIP3   OH275832   2.405   0.229   5.523 -0.0239 -0.1799 -0.0037
18114TIP3    H175833   2.480   0.265   5.571  1.2151 -0.7114 -1.4524
18114TIP3    H275834   2.399   0.138   5.551 -1.4524  0.3633  1.6249
18115TIP3   OH275835   5.481   1.134  11.241  0.2982  0.5881  0.3900
18115TIP3    H175836   5.480   1.203  11.307  0.7506 -0.2035  1.2462
18115TIP3    H275837   5.448   1.057  11.286  0.7862 -0.0126 -0.2537
18116TIP3   OH275838   3.541   0.327  11.161 -0.6761  0.0694  0.1224
18116TIP3    H175839   3.632   0.342  11.136 -0.1752 -0.1554  1.6912
18116TIP3    H275840   3.494   0.404  11.128 -0.1999 -0.4365 -1.8877
18117TIP3   OH275841   0.303   4.543  15.389  0.8841  0.1441  0.0587
18117TIP3    H175842   0.215   4.508  15.384  0.3001  1.4348  0.7078
18117TIP3    H275843   0.307   4.609  15.319  0.4252  1.8940  1.5878
18118TIP3   OH275844   3.074   5.733  14.202 -0.2100  0.1332 -0.1357
18118TIP3    H175845   3.119   5.654  14.172 -1.3829 -1.2801  1.6758
18118TIP3    H275846   3.116   5.754  14.286 -0.5444  0.8841 -0.1461
18119TIP3   OH275847   3.132   4.314   3.689  0.3374 -0.5561  0.2042
18119TIP3    H175848   3.155   4.273   3.772 -0.2805 -1.7687 -0.2068
18119TIP3    H275849   3.208   4.298   3.632  0.4180 -0.4454  0.2800
18120TIP3   OH275850   1.426   3.436   5.018  0.0479 -0.3542 -0.0599
18120TIP3    H175851   1.408   3.437   4.924 -0.3079 -0.9679 -0.0004
18120TIP3    H275852   1.483   3.512   5.032  0.1488 -0.2901 -0.7774
18121TIP3   OH275853   0.748   3.950   2.267 -0.2054 -0.7356 -0.3704
18121TIP3    H175854   0.687   3.932   2.196 -1.2034 -2.4780  0.8567
18121TIP3    H275855   0.769   3.864   2.303  2.3348 -0.1297 -0.1744
18122TIP3   OH275856   6.175   6.592  13.653  0.3355 -0.3182  0.3326
18122TIP3    H175857   6.204   6.683  13.666 -0.1963  0.0278 -0.7846
18122TIP3    H275858   6.242   6.554  13.597  0.1917 -0.4129  0.2256
18123TIP3   OH275859   1.796   4.454  16.139  0.2830 -0.3291  0.5319
18123TIP3    H175860   1.805   4.538  16.184 -0.6446 -0.2214  0.5419
18123TIP3    H275861   1.878   4.408  16.157  0.9544  0.7132  0.2134
18124TIP3   OH275862   4.087   6.122   4.351 -0.2680 -0.0556 -0.0858
18124TIP3    H175863   4.104   6.210   4.318  0.6015 -0.1579  0.0713
18124TIP3    H275864   4.173   6.087   4.373 -0.7484 -0.2976  1.5241
18125TIP3   OH275865   0.345   0.885   0.882  0.3021 -0.4117 -0.0783
18125TIP3    H175866   0.412   0.943   0.847  0.7397  0.2799  1.7833
18125TIP3    H275867   0.359   0.886   0.977 -0.9325 -2.0183  0.1691
18126TIP3   OH275868   4.403   2.577  16.755  0.0944 -0.2307 -0.1699
18126TIP3    H175869   4.493   2.582  16.721  0.1487  1.7029  0.1804
18126TIP3    H275870   4.407   2.621  16.839 -1.0894 -0.6534  0.1225
18127TIP3   OH275871   1.978   3.479   0.977  0.2122  0.1443 -0.0733
18127TIP3    H175872   2.073   3.471   0.988  0.2664 -1.4252 -1.2771
18127TIP3    H275873   1.961   3.573   0.985  1.9934  0.5623 -0.6566
18128TIP3   OH275874   4.660   6.378  13.848 -0.0386  0.1670  0.3515
18128TIP3    H175875   4.729   6.337  13.901  0.4774  1.9458  1.1404
18128TIP3    H275876   4.701   6.458  13.814 -1.3566  0.6581 -0.1410
18129TIP3   OH275877   4.387   3.975  11.343  0.4314  0.1423  0.4264
18129TIP3    H175878   4.366   3.891  11.303 -1.4473  0.7863 -0.0377
18129TIP3    H275879   4.367   3.963  11.436  0.1528  0.0778  0.3587
18130TIP3   OH275880   2.421   2.442  15.319 -0.3473 -0.3096  0.0882
18130TIP3    H175881   2.419   2.347  15.306  0.5167 -0.4529  0.8282
18130TIP3    H275882   2.425   2.452  15.414 -0.4334  0.4706  0.0104
18131TIP3   OH275883   6.409   6.546  10.696  0.5001 -0.0051 -0.3209
18131TIP3    H175884   6.329   6.565  10.744  0.2845 -0.0076 -0.6790
18131TIP3    H275885   6.398   6.590  10.612 -0.6168 -2.8375 -1.7760
18132TIP3   OH275886   3.145   0.776   3.855  0.2595 -0.7256  0.1570
18132TIP3    H175887   3.080   0.846   3.847  1.2399  0.1370 -0.4357
18132TIP3    H275888   3.158   0.766   3.950 -0.2964 -0.5030  0.2615
18133TIP3   OH275889   1.725   6.017  15.534 -0.3559  0.7771 -0.5699
18133TIP3    H175890   1.757   6.040  15.447 -0.8258  4.2076  0.0299
18133TIP3    H275891   1.635   5.988  15.519 -0.3336  1.0422 -1.2584
18134TIP3   OH275892   5.229   2.901   6.133  0.1539 -0.1859 -0.2978
18134TIP3    H175893   5.188   2.933   6.053 -1.2533 -0.0580  0.4382
18134TIP3    H275894   5.166   2.839   6.169  0.5751  0.0636  0.9224
18135TIP3   OH275895   2.683   3.757   0.901 -0.1614 -0.0894 -0.3698
18135TIP3    H175896   2.724   3.842   0.913  0.3828 -0.2144 -1.2258
18135TIP3    H275897   2.749   3.694   0.932  0.5703 -0.3194 -2.2424
18136TIP3   OH275898   0.316   3.520   0.604 -0.5283  0.1660 -0.2546
18136TIP3    H175899   0.390   3.576   0.627  0.1405 -1.0950  0.8050
18136TIP3    H275900   0.287   3.552   0.518  0.1553  1.7628  0.0790
18137TIP3   OH275901   5.231   2.059  14.347 -0.0865  0.1566  0.4139
18137TIP3    H175902   5.162   2.124  14.361  0.1481  0.1742  1.6681
18137TIP3    H275903   5.270   2.047  14.434 -1.9455 -3.7412  0.9261
18138TIP3   OH275904   0.900   0.994  13.876 -0.0934 -0.3377  0.3744
18138TIP3    H175905   0.990   1.021  13.861 -0.3982  0.4269 -0.0963
18138TIP3    H275906   0.850   1.076  13.881 -0.9862 -0.7841 -0.8194
18139TIP3   OH275907   0.160   6.749  11.110 -0.3057 -0.2641  0.0170
18139TIP3    H175908   0.113   6.665  11.111 -0.9752  0.1054 -0.2717
18139TIP3    H275909   0.165   6.773  11.018  0.3961 -0.2625  0.0494
18140TIP3   OH275910   2.165   5.888  12.775 -0.0736  0.1103  0.5729
18140TIP3    H175911   2.121   5.960  12.730  0.3117  0.1376  0.2348
18140TIP3    H275912   2.195   5.830  12.705  0.2960  0.0189  0.8047
18141TIP3   OH275913   3.587   2.549   2.825 -0.1631  0.3487  0.3936
18141TIP3    H175914   3.670   2.559   2.778  0.1876 -0.5464  0.7992
18141TIP3    H275915   3.585   2.457   2.850 -2.7167 -0.4921 -2.2742
18142TIP3   OH275916   1.264   6.392  14.205 -0.2524 -0.8507  0.6209
18142TIP3    H175917   1.294   6.471  14.249 -0.3114 -0.8380  0.6388
18142TIP3    H275918   1.307   6.394  14.119  1.3290 -1.8205  1.3488
18143TIP3   OH275919   1.128   3.729   5.720 -0.4930 -0.4340 -0.0314
18143TIP3    H175920   1.180   3.675   5.778 -0.4508  0.3112  0.6346
18143TIP3    H275921   1.191   3.785   5.675 -0.3508 -2.0159 -1.9520
18144TIP3   OH275922   3.172   2.412  14.176  0.2474  0.2828  0.2117
18144TIP3    H175923   3.152   2.320  14.193  4.5893 -1.3463 -1.8914
18144TIP3    H275924   3.217   2.442  14.256  0.0897  0.1213  0.3603
18145TIP3   OH275925   6.811   0.869   3.656 -0.4610 -0.2633 -0.3764
18145TIP3    H175926   6.881   0.923   3.620 -1.5012  0.4745 -1.3618
18145TIP3    H275927   6.741   0.931   3.676 -0.5888 -0.9041  1.2472
18146TIP3   OH275928   5.090   3.373  16.871  0.2200  0.3064  0.0260
18146TIP3    H175929   5.029   3.313  16.915  0.6315 -1.6314 -1.8296
18146TIP3    H275930   5.176   3.332  16.881  0.9644  1.9826  0.9166
18147TIP3   OH275931   0.464   5.254   4.466  0.1632 -0.1831 -0.2989
18147TIP3    H175932   0.389   5.301   4.502  2.1543  0.9059  2.7735
18147TIP3    H275933   0.509   5.318   4.411  0.3600  0.0438  0.1272
18148TIP3   OH275934   1.746   1.588  13.676 -0.0075 -0.0692  0.3914
18148TIP3    H175935   1.706   1.551  13.598 -0.2627  0.5136  0.2391
18148TIP3    H275936   1.796   1.663  13.644  1.1775 -0.7606  0.5835
18149TIP3   OH275937   1.162   3.013   5.045 -0.9111  0.1872  0.5965
18149TIP3    H175938   1.201   3.083   5.098 -2.4889  1.6853 -0.1206
18149TIP3    H275939   1.215   3.011   4.966  0.5319 -1.0308  1.5439
18150TIP3   OH275940   6.158   6.242  13.167 -0.0639 -0.2878 -0.7210
18150TIP3    H175941   6.084   6.238  13.228  0.2908  0.2796 -0.2494
18150TIP3    H275942   6.235   6.245  13.223  0.5376 -3.7047 -1.1648
18151TIP3   OH275943   1.464   0.169  12.636  0.2326  0.4652 -0.0901
18151TIP3    H175944   1.515   0.091  12.615 -1.7129 -0.9607  0.2133
18151TIP3    H275945   1.397   0.173  12.567 -0.0132  1.5605  0.1927
18152TIP3   OH275946   2.697   3.336   3.134 -0.3412  0.3354 -0.1280
18152TIP3    H175947   2.762   3.403   3.157 -0.9873 -0.0419  3.4560
18152TIP3    H275948   2.646   3.376   3.063  1.8520  1.8720 -0.9561
18153TIP3   OH275949   4.788   0.174   3.961  0.5612  0.0757  0.5423
18153TIP3    H175950   4.700   0.188   3.924  0.1913  0.6210  1.5811
18153TIP3    H275951   4.777   0.192   4.055  1.3864 -1.6335  0.9924
18154TIP3   OH275952   1.917   1.622  15.952  0.1846 -0.2500  0.2551
18154TIP3    H175953   1.838   1.676  15.949 -0.2208 -0.7545  1.2281
18154TIP3    H275954   1.921   1.581  15.866 -1.9177 -1.9659  0.8770
18155TIP3   OH275955   3.057   5.468   5.523 -0.2012  0.3465 -0.0322
18155TIP3    H175956   3.057   5.469   5.619 -2.3051 -0.7311  0.0381
18155TIP3    H275957   3.118   5.398   5.500 -0.9949 -0.5779  0.6012
18156TIP3   OH275958   6.219   3.764   4.088 -0.2237  0.0319 -0.1036
18156TIP3    H175959   6.161   3.726   4.023 -0.5366 -0.7364  0.6122
18156TIP3    H275960   6.295   3.794   4.038 -1.9151  2.6127 -1.3041
18157TIP3   OH275961   6.725   5.223   3.859 -0.6250  0.4624 -0.5396
18157TIP3    H175962   6.794   5.170   3.818 -0.0427 -0.0305  1.0377
18157TIP3    H275963   6.706   5.290   3.793  0.0183 -0.5048 -1.7751
18158TIP3   OH275964   2.249   3.840   1.415 -0.0576 -0.4917 -0.6889
18158TIP3    H175965   2.311   3.779   1.454  1.4851  0.8154 -1.0105
18158TIP3    H275966   2.214   3.890   1.489 -0.7191 -1.1865 -0.5152
18159TIP3   OH275967   3.804   2.863  12.405  0.2948 -1.1378  0.3082
18159TIP3    H175968   3.786   2.926  12.336  1.1258 -0.5896  0.5797
18159TIP3    H275969   3.844   2.788  12.360  0.4585 -0.9527  0.1480
18160TIP3   OH275970   1.023   2.061  13.523 -0.2163 -0.3138  0.4874
18160TIP3    H175971   0.929   2.076  13.531  0.0281  0.8170  1.5264
18160TIP3    H275972   1.047   2.015  13.603  0.0581 -0.9909  0.0262
18161TIP3   OH275973   0.431   3.531  10.850 -0.7571 -0.2207  0.8953
18161TIP3    H175974   0.373   3.477  10.796 -1.6568  0.7232  0.8954
18161TIP3    H275975   0.519   3.509  10.820 -1.1041 -1.5556  0.7785
18162TIP3   OH275976   4.222   2.728   3.042 -0.0930  0.3112 -0.2577
18162TIP3    H175977   4.132   2.703   3.061 -0.0730 -1.1627 -1.8673
18162TIP3    H275978   4.265   2.645   3.019  1.6608  0.9897  0.4029
18163TIP3   OH275979   1.550   1.209  11.929 -0.0511  0.2570  0.0944
18163TIP3    H175980   1.591   1.168  12.005 -2.4450 -0.6542  1.0089
18163TIP3    H275981   1.576   1.154  11.855  2.3033  1.1522  0.1600
18164TIP3   OH275982   5.009   4.662   0.240  0.6285  0.3709  0.0054
18164TIP3    H175983   4.985   4.676   0.332  0.9362 -0.2416  0.1802
18164TIP3    H275984   4.930   4.624   0.201  0.3122  1.1284 -0.1183
18165TIP3   OH275985   2.310   0.809   1.082 -0.3503 -0.3180 -0.4396
18165TIP3    H175986   2.257   0.779   1.156  0.2210  0.0374  0.1269
18165TIP3    H275987   2.265   0.888   1.051 -0.0208  0.1382  0.2116
18166TIP3   OH275988   1.032   4.993   4.683  0.1582 -0.6072 -0.7768
18166TIP3    H175989   0.974   4.937   4.735 -2.2631  0.3548 -2.2468
18166TIP3    H275990   1.043   5.072   4.736  1.0305 -1.2131 -0.0354
18167TIP3   OH275991   1.096   1.883  11.940  0.1465 -0.2789 -0.0801
18167TIP3    H175992   1.104   1.787  11.945  0.4210 -0.3128 -1.0180
18167TIP3    H275993   1.020   1.897  11.884  0.0977  0.0576  0.0710
18168TIP3   OH275994   2.245   0.672   2.717 -0.3268  0.3844  0.3512
18168TIP3    H175995   2.264   0.675   2.811 -1.4387 -0.8348  0.6452
18168TIP3    H275996   2.154   0.700   2.711 -0.1349  0.8654 -0.4246
18169TIP3   OH275997   5.573   0.745   0.670 -0.1780 -0.2582 -0.1885
18169TIP3    H175998   5.501   0.693   0.706 -0.8143  0.3928 -0.4866
18169TIP3    H275999   5.588   0.814   0.735 -1.6071  1.1677 -1.2588
18170TIP3   OH276000   1.635   6.378   1.405  0.4922 -0.0130 -0.2586
18170TIP3    H176001   1.644   6.421   1.490  1.0676 -0.1584 -0.2408
18170TIP3    H276002   1.723   6.347   1.384  0.2489 -0.4655 -0.6516
18171TIP3   OH276003   3.803   1.921   5.289 -0.1649 -0.3379 -0.4142
18171TIP3    H176004   3.760   1.948   5.209  1.2514 -1.2169 -1.5310
18171TIP3    H276005   3.751   1.848   5.321 -0.5561 -0.1938 -0.7225
18172TIP3   OH276006   0.885   3.564  11.812  0.0767 -0.0791  0.6344
18172TIP3    H176007   0.839   3.641  11.780 -1.5523 -1.0490  0.5151
18172TIP3    H276008   0.825   3.491  11.794  1.3556 -1.3109  1.1728
18173TIP3   OH276009   0.952   5.728   3.961  0.0536 -0.0201 -0.0822
18173TIP3    H176010   1.029   5.779   3.937  0.1348 -0.0196  0.1733
18173TIP3    H276011   0.884   5.794   3.977 -0.4518 -0.0782 -1.8314
18174TIP3   OH276012   6.254   4.105  16.703  0.0507  0.4832 -0.4320
18174TIP3    H176013   6.311   4.134  16.775 -1.6551  1.1170  0.7040
18174TIP3    H276014   6.278   4.162  16.629  2.0817 -0.4232 -0.5370
18175TIP3   OH276015   5.595   1.688  16.131 -0.2068  0.2407 -0.1859
18175TIP3    H176016   5.618   1.598  16.111  0.5381  0.3664  0.0792
18175TIP3    H276017   5.500   1.693  16.115  0.1763  0.1577 -3.1017
18176TIP3   OH276018   5.348   0.792   3.162  0.2411 -0.2974 -0.2355
18176TIP3    H176019   5.269   0.828   3.203 -0.6691 -0.7818 -1.4867
18176TIP3    H276020   5.415   0.858   3.176 -0.7134  0.6941 -0.2136
18177TIP3   OH276021   6.529   6.814  12.381 -0.6873 -0.4197  0.0319
18177TIP3    H176022   6.532   6.800  12.287  0.5774  0.3005 -0.0613
18177TIP3    H276023   6.569   6.901  12.394  0.1623 -0.9608  1.2963
18178TIP3   OH276024   2.911   4.053  11.955 -0.0266 -0.0623 -0.4334
18178TIP3    H176025   2.849   4.110  12.000  1.9441  2.0590 -0.2381
18178TIP3    H276026   2.968   4.019  12.024  1.8146  1.6837 -0.9755
18179TIP3   OH276027   0.342   5.314   3.568  0.0949  0.0535 -0.0107
18179TIP3    H176028   0.322   5.384   3.506  1.1087  0.2084 -0.1916
18179TIP3    H276029   0.303   5.343   3.650  0.0382  0.5780 -0.2151
18180TIP3   OH276030   4.908   6.263  10.586  0.3712  0.2154 -0.3868
18180TIP3    H176031   4.847   6.275  10.658 -0.2973 -0.6283 -0.7986
18180TIP3    H276032   4.947   6.177  10.601  0.5663  0.2307 -0.7864
18181TIP3   OH276033   6.140   3.886   5.468  0.3463  0.1008  0.6144
18181TIP3    H176034   6.127   3.895   5.373 -3.5438 -0.8365  0.8985
18181TIP3    H276035   6.177   3.799   5.479 -0.4100 -0.3046  0.0215
18182TIP3   OH276036   1.768   3.728   0.976  0.3830  0.0910  0.0426
18182TIP3    H176037   1.789   3.767   0.891  0.7430  0.9301  0.5122
18182TIP3    H276038   1.706   3.789   1.016 -0.6534 -0.8512 -0.0611
18183TIP3   OH276039   3.490   4.729   0.920  0.0769 -0.1626 -0.0605
18183TIP3    H176040   3.479   4.746   0.826 -2.3281 -1.0179  0.0082
18183TIP3    H276041   3.511   4.636   0.925  0.0008 -0.1605  0.2740
18184TIP3   OH276042   1.652   2.517   3.631 -1.2166  0.3815  0.6768
18184TIP3    H176043   1.660   2.465   3.711  0.9956  1.2928  1.1213
18184TIP3    H276044   1.630   2.453   3.563 -2.6264 -0.4882  1.9043
18185TIP3   OH276045   0.149   0.695   2.414  0.4260 -0.5517 -0.0560
18185TIP3    H176046   0.227   0.740   2.445  0.1372 -0.4341  0.5134
18185TIP3    H276047   0.136   0.623   2.476 -1.0270  0.5907  1.0322
18186TIP3   OH276048   0.372   2.490   5.279  0.6999 -0.2544  0.2548
18186TIP3    H176049   0.419   2.438   5.344  1.4400 -0.7999 -0.6836
18186TIP3    H276050   0.330   2.425   5.222 -1.5584  0.1989  1.2590
18187TIP3   OH276051   0.183   0.367   5.682  0.3466 -0.7246  0.1280
18187TIP3    H176052   0.184   0.324   5.597  0.4084  1.6462 -1.1648
18187TIP3    H276053   0.274   0.397   5.695 -0.3033  1.8471 -0.6489
18188TIP3   OH276054   3.024   1.701   3.149 -0.1790  0.3445 -0.1060
18188TIP3    H176055   3.089   1.632   3.131  0.4225  1.2130 -1.4491
18188TIP3    H276056   3.067   1.782   3.123 -1.2876  1.1156  0.3738
18189TIP3   OH276057   3.196   3.776  13.752 -0.2146 -0.4930  0.5279
18189TIP3    H176058   3.157   3.863  13.740  0.2820 -0.3657 -0.2292
18189TIP3    H276059   3.282   3.793  13.790 -0.8796 -0.7779  2.2456
18190TIP3   OH276060   4.768   6.418  15.392 -0.4194 -0.7146  0.0194
18190TIP3    H176061   4.717   6.436  15.471  1.2506 -1.3156  1.2833
18190TIP3    H276062   4.770   6.501  15.345 -0.1571  0.0831  1.3859
18191TIP3   OH276063   6.405   4.181   6.504  0.6270 -0.2881 -0.3783
18191TIP3    H176064   6.467   4.198   6.433  1.4884 -1.6774  0.0165
18191TIP3    H276065   6.424   4.251   6.568 -0.3898  1.1824 -1.6098
18192TIP3   OH276066   3.879   6.071  13.167  0.4146  0.2236 -0.6348
18192TIP3    H176067   3.870   6.055  13.261  0.1742  1.1565 -0.4848
18192TIP3    H276068   3.973   6.061  13.150  0.5537  0.6488 -0.1666
18193TIP3   OH276069   4.498   1.754   0.383 -0.0869  0.3336 -0.1567
18193TIP3    H176070   4.448   1.829   0.349  0.2726  1.3327  1.3833
18193TIP3    H276071   4.587   1.769   0.351  0.0530  0.7675  0.4071
18194TIP3   OH276072   5.911   5.497   2.745 -0.5286 -0.3834 -0.4199
18194TIP3    H176073   5.886   5.530   2.831 -0.5533  0.0752 -0.5999
18194TIP3    H276074   6.006   5.488   2.749 -0.4616  0.2375 -0.5497
18195TIP3   OH276075   0.033   2.983  14.146 -0.1588  0.0899 -0.2158
18195TIP3    H176076  -0.011   3.064  14.172 -0.2842 -0.5617  1.7157
18195TIP3    H276077   0.062   2.943  14.228  0.5821 -1.4580 -1.1775
18196TIP3   OH276078   2.313   5.717   2.365  0.1217  0.6563  0.1313
18196TIP3    H176079   2.345   5.629   2.346 -0.4310  0.4269  0.2228
18196TIP3    H276080   2.329   5.766   2.285  0.0692  0.3606 -0.0615
18197TIP3   OH276081   0.543   5.048   5.675 -0.3589  0.0564 -0.1828
18197TIP3    H176082   0.481   5.010   5.738  0.0476 -0.9208 -0.3557
18197TIP3    H276083   0.530   5.142   5.683 -1.4450 -0.1056  0.2192
18198TIP3   OH276084   0.608   2.457  17.027  0.3684 -0.2167 -0.0537
18198TIP3    H176085   0.580   2.513  16.954 -0.6584  0.6104  0.9348
18198TIP3    H276086   0.647   2.518  17.090 -0.3772 -0.6685  0.8554
18199TIP3   OH276087   6.065   3.513   5.525 -0.0033 -0.0049  0.2639
18199TIP3    H176088   6.105   3.486   5.442  0.0492 -1.4739  0.7241
18199TIP3    H276089   5.975   3.481   5.519 -1.0273  2.7644 -0.5240
18200TIP3   OH276090   3.477   1.268   4.740 -0.3592  0.0953  0.2922
18200TIP3    H176091   3.414   1.231   4.802 -0.9065  1.5951  0.6720
18200TIP3    H276092   3.562   1.261   4.785 -0.7361  1.0711  1.2071
18201TIP3   OH276093   3.166   3.337   2.790  0.1521  0.2754 -0.0512
18201TIP3    H176094   3.255   3.374   2.789 -0.3584  1.6834  1.6523
18201TIP3    H276095   3.137   3.347   2.881 -0.7355 -2.7540  0.0904
18202TIP3   OH276096   5.242   4.065  12.596  0.0040  0.0424 -0.8601
18202TIP3    H176097   5.190   3.987  12.619  0.4887 -0.0006  0.1146
18202TIP3    H276098   5.332   4.033  12.591  0.2670  0.6310 -0.0060
18203TIP3   OH276099   0.180   6.502  12.272  0.3979 -0.3783  0.0230
18203TIP3    H176100   0.234   6.542  12.340 -0.5421  0.8632  0.0736
18203TIP3    H276101   0.098   6.551  12.274 -0.2522 -1.3629 -0.9347
18204TIP3   OH276102   3.250   2.744   1.282  0.0563 -0.0157 -0.2499
18204TIP3    H176103   3.199   2.666   1.264 -0.2610 -0.5647  2.5365
18204TIP3    H276104   3.186   2.814   1.292 -0.0587 -0.2832  1.1936
18205TIP3   OH276105   6.079   2.591  13.748 -0.3752  0.0598  0.4106
18205TIP3    H176106   6.108   2.679  13.770  1.2874 -0.0354 -1.1540
18205TIP3    H276107   6.153   2.535  13.771 -0.7211 -0.6960 -0.2539
18206TIP3   OH276108   6.028   4.401  12.588  0.3873  0.2028  0.2922
18206TIP3    H176109   5.986   4.321  12.618  1.1981 -0.9658 -1.4701
18206TIP3    H276110   6.098   4.417  12.652  0.9325 -1.1664  0.0769
18207TIP3   OH276111   5.022   6.101   2.365 -0.1821  0.3396 -0.0088
18207TIP3    H176112   4.970   6.123   2.442  1.2135 -1.4284  1.5553
18207TIP3    H276113   4.982   6.020   2.332  0.3836  0.0257  0.0570
18208TIP3   OH276114   1.730   1.270   2.746 -0.5380 -0.1004  0.1876
18208TIP3    H176115   1.791   1.198   2.728 -0.8599  0.0792 -1.8259
18208TIP3    H276116   1.649   1.226   2.774 -0.3918 -0.4675  0.0380
18209TIP3   OH276117   6.236   0.496  13.936 -0.4210 -0.0030 -0.7824
18209TIP3    H176118   6.284   0.572  13.904  1.1565  0.0283  1.4117
18209TIP3    H276119   6.147   0.527  13.951 -0.2041  0.9600 -1.4363
18210TIP3   OH276120   2.966   4.566  12.106  0.1556 -0.1090 -0.3602
18210TIP3    H176121   2.895   4.537  12.163 -0.0618 -1.8947 -1.4529
18210TIP3    H276122   2.996   4.486  12.063  2.9450  0.5509  0.1601
18211TIP3   OH276123   3.912   2.542   3.809  0.1834  0.2533 -0.2295
18211TIP3    H176124   4.003   2.547   3.837  0.5495  3.5397 -1.5635
18211TIP3    H276125   3.898   2.449   3.787  2.4159 -0.7815  2.2134
18212TIP3   OH276126   5.789   1.662  12.542  0.0546  0.2095  0.4120
18212TIP3    H176127   5.728   1.623  12.605 -0.3335  0.1712  0.0211
18212TIP3    H276128   5.872   1.667  12.589 -0.2222  0.1581  0.9168
18213TIP3   OH276129   2.045   1.504   1.412  0.3646  0.7208  0.1621
18213TIP3    H176130   2.060   1.471   1.501 -1.7237  0.2430  0.4101
18213TIP3    H276131   2.009   1.592   1.425  0.5071  0.8368 -0.2255
18214TIP3   OH276132   0.165   5.917  15.105 -0.2046  0.0213  0.4293
18214TIP3    H176133   0.189   5.849  15.168 -1.4155  0.6664  1.6393
18214TIP3    H276134   0.235   5.914  15.039 -0.2532 -2.4193  0.3956
18215TIP3   OH276135   2.126   6.082  12.571 -0.5984  0.0366  0.6327
18215TIP3    H176136   2.128   6.140  12.647 -1.2050  0.3334  0.4285
18215TIP3    H276137   2.081   6.132  12.503  1.2452  0.3482 -0.4174
18216TIP3   OH276138   5.007   4.336  11.781  0.0727 -0.2169  0.5014
18216TIP3    H176139   4.954   4.347  11.860 -0.2780  0.0102  0.2333
18216TIP3    H276140   5.005   4.242  11.764  1.6743 -0.5463  1.8110
18217TIP3   OH276141   5.084   6.660   2.266 -0.2402  0.0420 -0.6949
18217TIP3    H176142   5.012   6.597   2.273 -1.1698  0.6981 -3.2020
18217TIP3    H276143   5.159   6.616   2.305 -1.7891 -0.9787  1.2958
18218TIP3   OH276144   5.983   2.955  14.260 -0.2707 -0.1635 -0.1302
18218TIP3    H176145   5.991   2.876  14.312  1.1125  0.0540  0.0183
18218TIP3    H276146   5.899   2.946  14.215  0.4573 -2.3440 -1.1591
18219TIP3   OH276147   1.442   6.662   1.720  0.1261 -0.7228 -0.6554
18219TIP3    H176148   1.473   6.748   1.746 -1.2388  0.1561 -1.7679
18219TIP3    H276149   1.383   6.635   1.791  1.0308 -1.0400 -0.0100
18220TIP3   OH276150   3.838   3.009   5.542  0.7142  0.1458  0.4990
18220TIP3    H176151   3.745   3.019   5.523  0.7815  2.3271  1.1080
18220TIP3    H276152   3.875   2.973   5.462 -0.4358  0.6069 -0.2611
18221TIP3   OH276153   2.562   4.195  16.584 -0.0071  0.5045  0.8016
18221TIP3    H176154   2.475   4.165  16.611  0.6455 -0.9260  1.4178
18221TIP3    H276155   2.597   4.240  16.661 -0.1516  0.9524  0.6030
18222TIP3   OH276156   1.622   3.479   3.292  0.4627  0.6649  0.0935
18222TIP3    H176157   1.558   3.444   3.230  2.1332 -1.6333 -0.4498
18222TIP3    H276158   1.589   3.567   3.313 -1.7222  0.3776 -1.7429
18223TIP3   OH276159   0.903   2.446  13.038 -0.5816  0.4497  0.3916
18223TIP3    H176160   0.877   2.363  13.078 -0.2176 -0.3974 -1.0591
18223TIP3    H276161   0.856   2.512  13.088 -2.9467 -0.7930 -0.0406
18224TIP3   OH276162   2.069   1.974   0.974  0.6365  0.3054 -0.6133
18224TIP3    H176163   1.977   1.998   0.960  1.2908  4.4216  0.8773
18224TIP3    H276164   2.069   1.933   1.061  0.0502 -1.7591 -1.5074
18225TIP3   OH276165   0.959   3.210   1.246 -0.6334 -0.1210 -0.2731
18225TIP3    H176166   0.877   3.186   1.204 -1.2966  0.4360  0.6618
18225TIP3    H276167   0.937   3.285   1.301 -0.3551 -2.0335  2.7194
18226TIP3   OH276168   4.473   0.088   3.123  0.1536  0.0127  0.2206
18226TIP3    H176169   4.486   0.095   3.217  0.1651  0.9238  0.1659
18226TIP3    H276170   4.404   0.153   3.103 -0.2451 -0.5616 -0.3165
18227TIP3   OH276171   3.607   5.677  16.500  0.1386  0.2466 -0.3492
18227TIP3    H176172   3.687   5.727  16.487 -0.0167  0.0702 -2.1970
18227TIP3    H276173   3.594   5.677  16.595  1.2047  2.0039 -0.1630
18228TIP3   OH276174   0.231   0.790  14.893 -0.3154 -0.7666  0.0663
18228TIP3    H176175   0.310   0.795  14.948 -1.2282  1.8008  1.3110
18228TIP3    H276176   0.159   0.782  14.955 -1.1251 -2.5643 -1.0374
18229TIP3   OH276177   0.699   6.399  16.507 -0.6089 -0.2026 -0.2359
18229TIP3    H176178   0.698   6.457  16.582  0.7832  0.5208 -0.7478
18229TIP3    H276179   0.648   6.323  16.535 -0.9402  0.4762  1.0742
18230TIP3   OH276180   1.376   2.450  15.437 -0.4652 -0.3926  0.0728
18230TIP3    H176181   1.371   2.453  15.533  1.0285  0.8362  0.1636
18230TIP3    H276182   1.353   2.538  15.409  0.7496 -0.2491 -0.5573
18231TIP3   OH276183   1.098   2.584  15.084 -0.2902 -0.1795 -0.5896
18231TIP3    H176184   1.110   2.669  15.126  0.8103 -0.2433 -0.7377
18231TIP3    H276185   1.147   2.591  15.002 -0.6386 -0.7806 -0.8588
18232TIP3   OH276186   5.600   6.542   3.475  0.0644 -0.2206  0.0941
18232TIP3    H176187   5.687   6.583   3.479 -0.2372  0.6125 -1.4103
18232TIP3    H276188   5.605   6.470   3.538  1.3686  0.6999  1.1035
18233TIP3   OH276189   5.582   5.056  15.144 -0.0939 -0.2689 -0.1996
18233TIP3    H176190   5.624   5.141  15.134  1.3459 -0.8163  0.9860
18233TIP3    H276191   5.489   5.077  15.155  0.3049  1.1800  0.6212
18234TIP3   OH276192   2.064   0.676  11.067 -0.2069  0.9845 -0.1866
18234TIP3    H176193   2.039   0.739  11.134  3.6924  0.9867  1.5370
18234TIP3    H276194   2.038   0.716  10.985 -2.4019  2.4080  1.1068
18235TIP3   OH276195   1.614   1.436   3.151 -0.6318  0.0791  0.0647
18235TIP3    H176196   1.564   1.488   3.089 -0.7106 -0.8608 -0.6992
18235TIP3    H276197   1.553   1.370   3.183  0.0005 -0.9016 -0.6613
18236TIP3   OH276198   0.644   5.136   1.529  0.1094 -0.1208  0.5860
18236TIP3    H176199   0.669   5.046   1.550  2.2945  0.5453  1.0301
18236TIP3    H276200   0.709   5.190   1.574 -1.3019  1.7088  0.5360
18237TIP3   OH276201   6.318   4.479   3.346  0.6182  0.6140  0.5131
18237TIP3    H176202   6.308   4.418   3.272  1.0404  0.8954  0.2182
18237TIP3    H276203   6.236   4.529   3.347 -0.1527 -0.6090  1.3684
18238TIP3   OH276204   2.604   5.216  14.956 -0.0985  0.1602  0.2275
18238TIP3    H176205   2.659   5.163  14.898  0.3973  0.3053  0.5603
18238TIP3    H276206   2.530   5.242  14.901 -0.3086 -0.7991  0.0366
18239TIP3   OH276207   6.063   1.164  12.599 -0.0623  0.3000 -0.0303
18239TIP3    H176208   6.039   1.257  12.598  0.0989  0.3608 -1.4054
18239TIP3    H276209   6.158   1.164  12.616 -0.2640  0.3044  1.1566
18240TIP3   OH276210   1.401   5.083   0.333 -0.2407 -0.0055  0.1180
18240TIP3    H176211   1.371   5.037   0.412 -1.4883 -0.0804 -0.3712
18240TIP3    H276212   1.348   5.162   0.329 -1.6426 -0.9417 -1.6651
18241TIP3   OH276213   4.571   5.191  13.537  0.2482  0.5720 -0.3492
18241TIP3    H176214   4.541   5.221  13.451 -2.0081 -1.0407 -0.2131
18241TIP3    H276215   4.544   5.261  13.597 -0.5379  0.5294 -0.6424
18242TIP3   OH276216   3.593   0.478   6.332  0.3853  0.5626  0.1480
18242TIP3    H176217   3.652   0.551   6.351 -0.1570  0.9795  0.2380
18242TIP3    H276218   3.646   0.400   6.350  1.0727  0.9199 -0.2584
18243TIP3   OH276219   2.465   2.028  11.199  0.3121  0.1951 -0.5787
18243TIP3    H176220   2.381   2.073  11.207  0.5294  0.3563  1.2055
18243TIP3    H276221   2.483   2.028  11.105 -0.1944  2.9320 -0.7564
18244TIP3   OH276222   0.654   0.025  15.657 -0.7361 -0.8791 -0.5837
18244TIP3    H176223   0.716   0.086  15.697 -0.8143 -0.4035 -1.1680
18244TIP3    H276224   0.707  -0.025  15.595 -0.4207 -2.2515  0.7154
18245TIP3   OH276225   0.232   0.132   6.166  0.1370  0.0836  1.2774
18245TIP3    H176226   0.239   0.051   6.217  0.5073 -0.4542  0.4129
18245TIP3    H276227   0.313   0.134   6.114  0.1416  1.0290  1.3163
18246TIP3   OH276228   5.787   6.408  13.106 -0.0496 -0.1323  0.2243
18246TIP3    H176229   5.841   6.343  13.151 -0.9881 -1.5086 -0.5794
18246TIP3    H276230   5.819   6.492  13.139  0.4918 -1.0102  2.0841
18247TIP3   OH276231   5.808   2.111  10.493 -0.1637  0.1267  0.6441
18247TIP3    H176232   5.843   2.028  10.462 -1.5412  0.4007 -1.8947
18247TIP3    H276233   5.788   2.096  10.586  0.4110 -2.0728  0.4608
18248TIP3   OH276234   5.819   1.601  17.128  0.3114  0.3707 -0.1787
18248TIP3    H176235   5.826   1.643  17.214  1.1861 -0.6165  0.2580
18248TIP3    H276236   5.907   1.609  17.090 -0.2081  1.3315 -1.2668
18249TIP3   OH276237   0.188   1.794   0.064 -0.6659  0.1587  0.5309
18249TIP3    H176238   0.191   1.705   0.029  2.4297  0.5042 -0.3915
18249TIP3    H276239   0.116   1.792   0.127 -1.2410 -2.7417 -0.0454
18250TIP3   OH276240   2.829   6.403  12.588  0.0073  0.0248 -0.1507
18250TIP3    H176241   2.863   6.442  12.669 -0.0621 -1.8613  0.8500
18250TIP3    H276242   2.906   6.365  12.546 -0.2773 -1.0802  0.2790
18251TIP3   OH276243   4.017   6.039   3.070  0.2188  0.0656  0.0667
18251TIP3    H176244   3.980   6.040   2.982  2.1964 -1.3153 -0.8652
18251TIP3    H276245   4.099   6.089   3.062  1.1183 -1.2349  0.7323
18252TIP3   OH276246   1.690   3.127  11.807 -0.0087  0.0647 -0.2477
18252TIP3    H176247   1.668   3.209  11.852  0.2433  0.5037 -0.9116
18252TIP3    H276248   1.637   3.061  11.851  1.5292  0.1649  1.8740
18253TIP3   OH276249   2.520   1.915   5.581  0.2244  0.4494 -0.3323
18253TIP3    H176250   2.493   1.875   5.498  2.1925  1.2416 -1.4091
18253TIP3    H276251   2.481   1.859   5.648 -0.1536 -1.1001 -1.7791
18254TIP3   OH276252   1.933   5.693   0.088 -0.0515 -0.3474  0.1755
18254TIP3    H176253   1.970   5.761   0.034 -0.9581  0.4597  0.5409
18254TIP3    H276254   1.892   5.739   0.162  1.7721 -1.4231  1.9772
18255TIP3   OH276255   3.977   3.857   3.399  0.2615  0.1733  0.0937
18255TIP3    H176256   4.013   3.899   3.478  1.3379 -1.3505  0.4536
18255TIP3    H276257   3.914   3.921   3.365  0.0909  1.0552  1.9337
18256TIP3   OH276258   6.466   3.119  15.827  0.5648 -0.7694 -0.6708
18256TIP3    H176259   6.511   3.204  15.823  0.0667 -0.4009  0.7800
18256TIP3    H276260   6.533   3.058  15.855 -0.0142  0.0664  3.1500
18257TIP3   OH276261   1.369   4.837  14.342 -0.2272  0.0371 -0.0043
18257TIP3    H176262   1.361   4.750  14.302 -0.2246  0.3557 -0.7291
18257TIP3    H276263   1.279   4.870  14.345 -0.3558 -0.3767  1.1976
18258TIP3   OH276264   4.279   1.281   3.938  0.0831  0.3826  0.0250
18258TIP3    H176265   4.212   1.282   4.006 -0.2165  0.1940 -0.2630
18258TIP3    H276266   4.346   1.221   3.971 -0.6546 -0.7009 -0.3993
18259TIP3   OH276267   2.085   5.851  16.450 -0.1056  0.0213  0.0403
18259TIP3    H176268   2.034   5.931  16.435 -1.0101 -0.1290  2.0089
18259TIP3    H276269   2.060   5.793  16.378  0.4354  1.4181 -1.3239
18260TIP3   OH276270   1.783   4.205  11.542  0.1002  0.0110  0.5563
18260TIP3    H176271   1.689   4.213  11.560 -0.1309 -0.7539 -0.2583
18260TIP3    H276272   1.792   4.230  11.450  0.7508  0.3886  0.7108
18261TIP3   OH276273   1.962   2.384  13.196 -0.4529 -0.4255 -0.1657
18261TIP3    H176274   1.890   2.425  13.245  0.2481  1.3859 -0.6027
18261TIP3    H276275   1.991   2.450  13.134  1.9734 -0.8962  0.3520
18262TIP3   OH276276   2.627   4.098   1.971 -0.1385  0.1725  0.4211
18262TIP3    H176277   2.541   4.139   1.979  0.9853  2.7069  0.3249
18262TIP3    H276278   2.688   4.171   1.962  1.6113 -1.5402 -4.4543
18263TIP3   OH276279   2.697   6.760  13.380 -0.2238 -0.1052  0.1550
18263TIP3    H176280   2.623   6.813  13.349 -0.8849 -1.0679  0.0341
18263TIP3    H276281   2.669   6.728  13.466 -1.7517 -3.6999 -1.4433
18264TIP3   OH276282   6.564   5.131   0.700 -0.0467  0.0258 -0.3922
18264TIP3    H176283   6.565   5.107   0.793  0.7362  0.3875 -0.2980
18264TIP3    H276284   6.640   5.085   0.663 -0.8425 -0.8156 -1.0451
18265TIP3   OH276285   1.486   0.620   1.959  0.0313 -0.4662 -0.2050
18265TIP3    H176286   1.399   0.580   1.957 -0.9897  1.6029  0.1779
18265TIP3    H276287   1.536   0.567   2.021 -0.6501 -2.2095 -1.0902
18266TIP3   OH276288   3.998   4.192  14.982 -0.2116 -0.0145  0.0818
18266TIP3    H176289   3.961   4.269  14.939  1.6105  0.7757 -0.1571
18266TIP3    H276290   4.030   4.138  14.910 -0.7751 -0.6382  0.2889
18267TIP3   OH276291   3.480   1.625  16.802 -0.0634  0.2048  0.4766
18267TIP3    H176292   3.443   1.565  16.866 -0.7100  0.4932  0.3812
18267TIP3    H276293   3.575   1.619  16.816  0.0634 -2.3873 -0.9164
18268TIP3   OH276294   0.377   6.456  15.749 -0.5596 -0.1122 -0.6190
18268TIP3    H176295   0.399   6.371  15.710  1.2923 -0.4674  1.0465
18268TIP3    H276296   0.462   6.496  15.768 -1.3731  0.5283  1.9565
18269TIP3   OH276297   5.324   1.754   0.756 -0.1695 -0.0284 -0.2503
18269TIP3    H176298   5.391   1.693   0.725 -0.0284  0.3153 -0.6388
18269TIP3    H276299   5.287   1.713   0.834  0.3510 -0.3164 -0.1556
18270TIP3   OH276300   5.840   0.977   6.038  0.4817 -0.1951 -0.1057
18270TIP3    H176301   5.877   0.985   6.126  0.9051  2.1044 -0.4450
18270TIP3    H276302   5.867   0.890   6.009  1.6010 -0.4210  1.4709
18271TIP3   OH276303   2.587   6.645  13.842  0.2689  0.4297 -0.1052
18271TIP3    H176304   2.555   6.660  13.931 -1.1945  0.7681 -0.6666
18271TIP3    H276305   2.628   6.558  13.845 -1.6023 -0.4714  0.4267
18272TIP3   OH276306   3.996   3.447  12.962 -0.5679 -0.0779 -0.3974
18272TIP3    H176307   3.950   3.466  13.044 -1.8585 -0.5112 -0.9899
18272TIP3    H276308   4.026   3.357  12.972  0.0165  0.1405 -0.0898
18273TIP3   OH276309   1.227   1.590   4.217  0.0623  0.4836 -0.0626
18273TIP3    H176310   1.221   1.670   4.269  0.6660  1.4679 -1.4458
18273TIP3    H276311   1.315   1.591   4.180 -0.4162 -0.0587 -1.2738
18274TIP3   OH276312   5.169   1.323   3.467  0.2518  0.2963  0.4081
18274TIP3    H176313   5.105   1.291   3.403 -0.0774  0.5643  0.6038
18274TIP3    H276314   5.146   1.278   3.548  0.6627 -0.0348  0.3450
18275TIP3   OH276315   4.879   4.564   1.622 -0.2939  0.2164  0.1778
18275TIP3    H176316   4.928   4.500   1.672 -0.2683  0.5875  0.6365
18275TIP3    H276317   4.789   4.555   1.654  0.0122  1.6695  1.6181
18276TIP3   OH276318   4.013   5.583  16.333  0.0671  0.4067  0.2005
18276TIP3    H176319   4.015   5.488  16.322  1.1825  0.2924  1.1724
18276TIP3    H276320   4.061   5.599  16.415  0.4566  1.8493 -0.2696
18277TIP3   OH276321   0.242   2.426   1.215 -0.1363  0.5086  0.3824
18277TIP3    H176322   0.195   2.391   1.291 -0.4031 -0.4120 -0.1806
18277TIP3    H276323   0.204   2.513   1.201 -1.0193  0.1544  0.5145
18278TIP3   OH276324   5.205   2.834  10.179 -0.0431  0.1308  0.3598
18278TIP3    H176325   5.290   2.793  10.197  0.8980  2.0185  0.5411
18278TIP3    H276326   5.167   2.782  10.108  2.0618  0.2310 -0.9201
18279TIP3   OH276327   0.432   4.876   6.325 -0.5864  0.1356 -0.3448
18279TIP3    H176328   0.507   4.818   6.338 -0.5605 -0.1748 -1.7048
18279TIP3    H276329   0.387   4.876   6.409 -0.9126 -2.3517 -0.4396
18280TIP3   OH276330   0.481   3.958   1.364  0.0909  0.1923  0.4401
18280TIP3    H176331   0.512   3.981   1.451 -2.1765  0.8822  1.1344
18280TIP3    H276332   0.501   4.034   1.310 -0.3908  0.6355  0.8774
18281TIP3   OH276333   2.292   6.290  12.374 -0.6133 -0.8419  0.6892
18281TIP3    H176334   2.197   6.287  12.364 -0.7228 -0.0059  1.3879
18281TIP3    H276335   2.320   6.363  12.318  0.0049 -3.0222 -2.0406
18282TIP3   OH276336   0.456   3.474  11.341 -0.4826  0.5421 -0.6797
18282TIP3    H176337   0.492   3.475  11.252  0.6606 -0.0137 -0.2448
18282TIP3    H276338   0.390   3.405  11.340  0.9382 -0.8863 -0.6052
18283TIP3   OH276339   1.042   3.392  12.694 -0.2666 -0.2255  0.4285
18283TIP3    H176340   0.975   3.412  12.760  0.9482  0.6575  1.4410
18283TIP3    H276341   1.109   3.460  12.706  0.2859 -0.3975 -1.3254
18284TIP3   OH276342   2.308   2.453  17.057  0.2821  0.1550  0.4201
18284TIP3    H176343   2.268   2.520  17.002 -0.3606 -2.0049 -1.9704
18284TIP3    H276344   2.389   2.493  17.089 -0.2200  2.1511 -0.6482
18285TIP3   OH276345   0.002   0.404  14.844 -0.1100  0.0920  0.5660
18285TIP3    H176346   0.010   0.324  14.897 -0.1595 -0.0264  0.3964
18285TIP3    H276347  -0.074   0.388  14.789  0.9360 -0.4944 -0.7617
18286TIP3   OH276348   3.450   2.339  14.777  0.4933  0.2232  0.1280
18286TIP3    H176349   3.394   2.366  14.850  1.4126  0.0431  0.9300
18286TIP3    H276350   3.394   2.284  14.723 -0.9863  2.4519 -0.7404
18287TIP3   OH276351   4.178   1.937   2.320 -0.4368  0.4495  0.9681
18287TIP3    H176352   4.153   1.914   2.410 -0.3768 -0.2216  0.8175
18287TIP3    H276353   4.273   1.938   2.321 -0.3316 -2.2122  0.2986
18288TIP3   OH276354   3.195   0.132   1.128 -0.4613  0.1146 -0.6169
18288TIP3    H176355   3.281   0.125   1.085 -0.3592 -0.8349 -0.2895
18288TIP3    H276356   3.161   0.216   1.099  1.6949  1.7692  1.3119
18289TIP3   OH276357   4.825   6.063  10.944 -0.8038 -0.5274 -0.1995
18289TIP3    H176358   4.857   6.115  11.018  0.2125 -0.5398 -0.6117
18289TIP3    H276359   4.733   6.087  10.935 -0.7142  0.1155  0.5254
18290TIP3   OH276360   6.705   6.361   2.756 -0.3740 -0.1188  0.0186
18290TIP3    H176361   6.653   6.401   2.826  1.5038  0.7353  0.9919
18290TIP3    H276362   6.666   6.396   2.676 -0.9317  0.9852  0.7320
18291TIP3   OH276363   4.368   3.657   4.864  0.1365 -0.0894  0.2125
18291TIP3    H176364   4.400   3.594   4.927 -1.6218  0.3299  1.6103
18291TIP3    H276365   4.346   3.734   4.915  1.5891  1.4590 -1.3628
18292TIP3   OH276366   0.688   6.532  16.733  0.0408 -0.3124  0.0854
18292TIP3    H176367   0.610   6.526  16.788  1.4125 -0.8415  2.1239
18292TIP3    H276368   0.746   6.592  16.780  0.5678  0.7459 -1.8108
18293TIP3   OH276369   3.583   6.516  15.866  0.3158 -0.2938 -0.1890
18293TIP3    H176370   3.492   6.539  15.849  0.5936  0.5076 -0.6628
18293TIP3    H276371   3.627   6.526  15.782  1.2793  1.5660  0.4762
18294TIP3   OH276372   1.653   1.639   2.287 -0.0355  0.3673 -0.3956
18294TIP3    H176373   1.596   1.564   2.267 -1.7650  0.9141  1.9783
18294TIP3    H276374   1.684   1.621   2.376  0.0437  2.1302 -0.0391
18295TIP3   OH276375   3.217   3.517  15.523  0.6427 -0.1868 -0.0352
18295TIP3    H176376   3.132   3.557  15.507 -1.1023 -2.3446  2.8255
18295TIP3    H276377   3.233   3.463  15.446 -0.2699  0.6499 -0.8464
18296TIP3   OH276378   0.423   0.413   0.476 -0.0939  0.3239 -0.2707
18296TIP3    H176379   0.455   0.334   0.519 -0.4040  0.7638  0.7911
18296TIP3    H276380   0.349   0.383   0.423  0.2794 -0.2209 -0.4942
18297TIP3   OH276381   6.329   3.056   1.711  0.0238  0.3086 -0.3125
18297TIP3    H176382   6.349   2.964   1.732 -1.4074  0.6093  2.9595
18297TIP3    H276383   6.407   3.104   1.738  0.1872  0.2246 -0.6221
18298TIP3   OH276384   4.443   6.292  13.981 -0.1019  0.6937 -0.4831
18298TIP3    H176385   4.463   6.333  14.065 -0.5667  0.4190 -0.2370
18298TIP3    H276386   4.526   6.294  13.933  0.7116 -1.0069  0.7565
18299TIP3   OH276387   4.975   5.850  11.086  0.1201  0.1278  0.0307
18299TIP3    H176388   4.940   5.934  11.059 -1.0962 -0.3807 -0.0529
18299TIP3    H276389   5.059   5.843  11.041  0.3870  1.4139  0.2900
18300TIP3   OH276390   1.991   1.765   0.662 -0.6060 -0.1515  0.1436
18300TIP3    H176391   2.044   1.798   0.590 -0.0570 -1.6882 -0.1850
18300TIP3    H276392   2.054   1.740   0.729 -1.1455  2.5016  1.7945
18301TIP3   OH276393   1.493   5.144   3.330  0.0919  0.3989 -0.2933
18301TIP3    H176394   1.493   5.078   3.399 -1.9067  1.4974  0.8430
18301TIP3    H276395   1.471   5.226   3.374  1.7037  1.7123 -1.7921
18302TIP3   OH276396   1.993   6.564  12.499 -0.2040  0.7268  0.7287
18302TIP3    H176397   1.938   6.588  12.425 -0.8680  0.5401  1.1599
18302TIP3    H276398   2.049   6.640  12.513  0.4477  0.4888 -0.4271
18303TIP3   OH276399   1.601   4.434  13.943  0.7433 -0.2399  0.1115
18303TIP3    H176400   1.553   4.491  14.003  2.1561  0.4863  0.6030
18303TIP3    H276401   1.607   4.351  13.990  1.6261  0.2496  0.9002
18304TIP3   OH276402   6.118   1.338  15.396  0.3730  0.1822  0.5244
18304TIP3    H176403   6.026   1.314  15.407  0.2107 -0.5378 -1.9419
18304TIP3    H276404   6.122   1.429  15.424 -1.1033  0.2569  0.5887
18305TIP3   OH276405   4.499   2.028   0.328 -0.1057  0.1915 -0.5069
18305TIP3    H176406   4.570   2.067   0.379  0.4119 -0.9771 -0.3065
18305TIP3    H276407   4.437   2.100   0.314 -0.3441  0.5439  1.9051
18306TIP3   OH276408   3.797   6.425  14.502 -0.1708 -0.1661 -0.6372
18306TIP3    H176409   3.793   6.340  14.459 -1.8577  0.1719 -1.2367
18306TIP3    H276410   3.772   6.408  14.593  2.6513 -0.7598  0.1355
18307TIP3   OH276411   2.230   2.280  14.598 -0.5308  0.6968  0.3491
18307TIP3    H176412   2.196   2.346  14.538  0.6821  0.1232 -1.0159
18307TIP3    H276413   2.153   2.251  14.648 -1.2059  2.6628  0.5643
18308TIP3   OH276414   3.477   6.586  17.041 -0.6240 -0.2392  0.1812
18308TIP3    H176415   3.451   6.520  17.105 -4.0860  0.0693 -0.6742
18308TIP3    H276416   3.430   6.665  17.068  0.9063  0.9875 -0.5917
18309TIP3   OH276417   4.392   2.842   0.900 -0.0978  0.8159 -0.4432
18309TIP3    H176418   4.476   2.882   0.878 -0.0961  0.9670 -0.1732
18309TIP3    H276419   4.336   2.916   0.925 -0.3640  0.7323 -0.7929
18310TIP3   OH276420   1.387   2.010   6.074  0.1169 -0.5208 -0.2347
18310TIP3    H176421   1.364   1.934   6.127 -0.3558  0.3328  0.8210
18310TIP3    H276422   1.307   2.032   6.027 -0.1784  0.2144  0.6010
18311TIP3   OH276423   4.907   4.014   0.268 -0.3075 -0.0115 -0.3423
18311TIP3    H176424   4.955   4.096   0.280  0.6302 -0.4716 -0.8814
18311TIP3    H276425   4.822   4.041   0.233 -0.4780  0.8134  0.6776
18312TIP3   OH276426   4.172   5.945   5.748  0.4637  0.0407 -0.2000
18312TIP3    H176427   4.115   6.021   5.750 -1.2118 -1.1699  0.7548
18312TIP3    H276428   4.135   5.889   5.679  2.0756  0.3475 -1.3633
18313TIP3   OH276429   2.605   1.683  12.909  0.2020 -0.3298  0.1061
18313TIP3    H176430   2.650   1.759  12.946  0.2010  0.2674 -1.0583
18313TIP3    H276431   2.665   1.652  12.841 -1.0999  0.4928 -1.4854
18314TIP3   OH276432   0.799   5.432   4.594  0.5303 -0.6295 -0.2362
18314TIP3    H176433   0.851   5.374   4.538  0.0567  0.3091 -1.7341
18314TIP3    H276434   0.743   5.480   4.532 -0.5736 -0.0808  1.1373
18315TIP3   OH276435   2.313   3.019   0.870 -0.6071 -0.5526  0.0417
18315TIP3    H176436   2.362   2.941   0.844 -1.3699 -0.9759 -0.1674
18315TIP3    H276437   2.301   3.068   0.788 -0.5392 -0.4480  0.0934
18316TIP3   OH276438   5.559   5.383   4.513  1.0338  0.1185  0.2993
18316TIP3    H176439   5.496   5.402   4.444  0.9546  0.2308  0.4030
18316TIP3    H276440   5.636   5.350   4.466  0.1505 -2.1087  0.3048
18317TIP3   OH276441   4.373   4.677  16.507  0.3219  0.7631  0.1302
18317TIP3    H176442   4.314   4.622  16.455 -0.4958  0.7057  1.0918
18317TIP3    H276443   4.451   4.687  16.452 -0.6881  1.0706 -1.3001
18318TIP3   OH276444   6.335   5.040   3.324  0.3758 -0.4726 -0.1691
18318TIP3    H176445   6.423   5.020   3.355  0.1759 -0.6960  0.2631
18318TIP3    H276446   6.346   5.118   3.269  1.0956 -1.4841 -1.5129
18319TIP3   OH276447   5.301   4.951  14.574 -0.5834  0.3818 -0.3922
18319TIP3    H176448   5.342   4.973  14.490 -0.5721 -0.8705 -0.7376
18319TIP3    H276449   5.299   5.034  14.622  3.2872  0.4215  0.0750
18320TIP3   OH276450   1.675   5.368  11.136 -0.1211  0.2222 -0.3198
18320TIP3    H176451   1.626   5.438  11.180  0.6627  1.4788 -1.3492
18320TIP3    H276452   1.617   5.336  11.068 -0.0382  0.7368 -0.6366
18321TIP3   OH276453   4.506   1.622  17.006  0.0405  0.5374 -0.4314
18321TIP3    H176454   4.424   1.649  16.964 -0.3953  0.5235  0.4054
18321TIP3    H276455   4.573   1.640  16.940 -0.5307  1.3562 -0.8062
18322TIP3   OH276456   5.063   0.938  15.150  0.2988 -0.3161  0.4681
18322TIP3    H176457   5.017   1.000  15.207 -0.3530 -0.7297  0.4067
18322TIP3    H276458   5.066   0.982  15.065  1.6124  0.4639  0.8953
18323TIP3   OH276459   6.817   4.025  13.532 -0.1064  0.5509  0.4178
18323TIP3    H176460   6.754   4.097  13.530  0.2954  0.9024  0.0409
18323TIP3    H276461   6.833   4.005  13.440 -1.3541 -1.0564  0.4971
18324TIP3   OH276462   5.935   1.009  16.592  0.5003 -0.0117  0.3852
18324TIP3    H176463   5.863   0.984  16.533  0.6089  2.5018 -0.9247
18324TIP3    H276464   5.923   0.953  16.668 -0.5835 -2.3139 -1.3440
18325TIP3   OH276465   2.035   4.174  12.629 -0.1651 -1.5179  0.3726
18325TIP3    H176466   1.987   4.257  12.625  0.5442 -1.1317 -0.4314
18325TIP3    H276467   1.984   4.114  12.576  0.9824 -0.6893 -1.7953
18326TIP3   OH276468   0.461   5.399  10.707  0.4488  0.8999  0.2023
18326TIP3    H176469   0.460   5.346  10.787  1.2352  1.5905  0.6936
18326TIP3    H276470   0.480   5.337  10.637 -3.9122 -0.4495 -0.0966
18327TIP3   OH276471   1.034   1.536   4.736 -0.1270 -0.0529  0.3002
18327TIP3    H176472   0.976   1.543   4.660  0.0577 -4.2573 -0.4660
18327TIP3    H276473   1.121   1.554   4.701 -0.4274  1.8185  0.4442
18328TIP3   OH276474   5.229   4.183   4.359 -0.0373 -0.5293  0.0338
18328TIP3    H176475   5.160   4.159   4.421  0.5183  1.5504  1.5559
18328TIP3    H276476   5.183   4.200   4.277 -1.9124  3.5322  1.6538
18329TIP3   OH276477   3.988   6.417   0.202 -0.0051 -0.3620  0.6493
18329TIP3    H176478   3.972   6.494   0.147 -1.7350 -0.5241  0.8717
18329TIP3    H276479   4.072   6.384   0.172  1.0881  1.9441  0.9421
18330TIP3   OH276480   5.132   1.142   2.218 -0.5701  0.0437  0.1648
18330TIP3    H176481   5.187   1.071   2.185 -1.1524  1.5120 -4.8158
18330TIP3    H276482   5.191   1.198   2.267  1.0004 -1.3792 -0.0251
18331TIP3   OH276483   5.175   6.003   5.583 -0.3398  0.1832  0.3216
18331TIP3    H176484   5.134   6.050   5.511 -0.0259  1.8304  1.1628
18331TIP3    H276485   5.128   6.034   5.661 -0.4897 -1.3398  0.8591
18332TIP3   OH276486   2.876   4.423   3.651  0.3080  0.6386  0.9784
18332TIP3    H176487   2.850   4.369   3.726 -0.8727 -0.2649 -0.0327
18332TIP3    H276488   2.969   4.406   3.640 -0.0513 -1.3290  0.6189
18333TIP3   OH276489   5.697   3.602  12.818  0.0328 -0.1310  0.4757
18333TIP3    H176490   5.757   3.675  12.832  0.0180 -0.1765  0.7875
18333TIP3    H276491   5.673   3.573  12.906 -0.8714  0.2334  0.3595
18334TIP3   OH276492   0.863   6.236   4.370  0.5880 -0.0600 -0.1502
18334TIP3    H176493   0.920   6.302   4.330  0.4789 -0.8793 -1.7409
18334TIP3    H276494   0.915   6.156   4.367 -0.9351 -1.0484 -2.5491
18335TIP3   OH276495   4.368   3.817   4.620  0.3452 -0.7062 -0.0959
18335TIP3    H176496   4.287   3.818   4.671 -0.1400 -2.3173 -0.7632
18335TIP3    H276497   4.422   3.750   4.663  0.3823 -1.2749 -0.9882
18336TIP3   OH276498   2.859   4.745  11.831  0.2388  0.0740 -0.2676
18336TIP3    H176499   2.926   4.790  11.883  0.2212  0.3165 -0.4490
18336TIP3    H276500   2.778   4.759  11.880  0.3560 -0.4244  0.0769
18337TIP3   OH276501   1.969   3.127  15.610 -0.2018  0.4469 -0.6555
18337TIP3    H176502   1.879   3.101  15.593 -0.4017  2.2315 -2.6198
18337TIP3    H276503   2.014   3.115  15.527 -0.0921  5.0752 -1.5600
18338TIP3   OH276504   6.531   3.786   5.134  0.0411  0.0387 -0.1154
18338TIP3    H176505   6.582   3.707   5.148 -0.7534 -0.3548  0.6847
18338TIP3    H276506   6.502   3.781   5.042 -1.4368 -1.4895  0.3967
18339TIP3   OH276507   0.215   0.327  14.367 -0.3728  0.0781  0.1164
18339TIP3    H176508   0.159   0.338  14.290  0.8767 -0.9121 -0.9635
18339TIP3    H276509   0.157   0.287  14.432 -1.1148 -0.3078 -0.7551
18340TIP3   OH276510   4.978   2.028  15.486  0.7208  0.1633  0.5002
18340TIP3    H176511   4.994   1.992  15.399  0.2148 -0.6858  0.7475
18340TIP3    H276512   4.988   2.123  15.475  0.5872  0.0720 -0.4964
18341TIP3   OH276513   6.094   5.902  12.438 -0.5447 -0.0151  0.6590
18341TIP3    H176514   6.087   5.889  12.343 -3.4790 -0.8435  0.8983
18341TIP3    H276515   6.080   5.996  12.450  0.7131  0.2430  0.2472
18342TIP3   OH276516   3.711   1.299   4.900 -0.0212 -0.4599  0.6522
18342TIP3    H176517   3.738   1.359   4.830  0.5011  1.2693  2.2691
18342TIP3    H276518   3.776   1.229   4.897  0.9754  0.4384  0.4410
18343TIP3   OH276519   0.957   6.043   5.907  0.4360  0.5153 -0.2276
18343TIP3    H176520   0.958   6.097   5.986  0.1231 -0.8221  0.7280
18343TIP3    H276521   1.037   5.990   5.913  0.5198  0.5472 -0.9289
18344TIP3   OH276522   5.450   3.425  11.299 -0.3118  0.2139  0.0544
18344TIP3    H176523   5.491   3.341  11.313  1.1646  0.8041 -0.5504
18344TIP3    H276524   5.462   3.473  11.381  0.7522  0.5960 -0.3156
18345TIP3   OH276525   3.958   3.075  15.643 -0.4407  0.2489  0.0301
18345TIP3    H176526   3.892   3.089  15.575 -0.8706 -0.1862  0.3473
18345TIP3    H276527   3.923   3.121  15.719  0.6434  1.8300 -0.3668
18346TIP3   OH276528   6.154   4.570   5.221 -0.1184  0.2943  0.5705
18346TIP3    H176529   6.199   4.540   5.300 -1.7083 -1.4133  0.9159
18346TIP3    H276530   6.100   4.495   5.195 -0.9818  1.4392 -1.1197
18347TIP3   OH276531   6.056   0.463  14.998  0.3792  0.3612  0.2009
18347TIP3    H176532   6.114   0.436  14.926 -0.8901 -1.7297 -0.0902
18347TIP3    H276533   6.054   0.388  15.057  1.7986  2.2057  2.7942
18348TIP3   OH276534   3.205   1.727  16.974  0.3255  0.1517 -0.1065
18348TIP3    H176535   3.176   1.639  16.953  0.2271 -0.0615  0.8594
18348TIP3    H276536   3.169   1.782  16.904  1.0154 -0.6560 -1.1268
18349TIP3   OH276537   2.477   3.216  16.971 -0.0297  0.2481  0.1002
18349TIP3    H176538   2.434   3.161  16.906 -1.9906  0.4371  1.1512
18349TIP3    H276539   2.570   3.211  16.949 -0.5176 -0.5019 -2.0549
18350TIP3   OH276540   6.280   2.221   3.220 -0.4214  0.6844 -0.2188
18350TIP3    H176541   6.287   2.130   3.191 -1.1814  0.9009 -1.1092
18350TIP3    H276542   6.270   2.215   3.315  4.1152  0.0413  0.4386
18351TIP3   OH276543   1.576   0.766  11.484  0.0457  0.0107 -0.2452
18351TIP3    H176544   1.666   0.798  11.480 -1.0422  3.6124  0.4726
18351TIP3    H276545   1.527   0.827  11.428 -2.0664 -1.4087 -0.0326
18352TIP3   OH276546   3.459   4.662  14.880 -0.4361 -0.1001  0.3090
18352TIP3    H176547   3.513   4.709  14.816  0.1902 -1.5082 -0.2478
18352TIP3    H276548   3.440   4.726  14.948 -0.4132  1.2071 -0.8747
18353TIP3   OH276549   6.029   6.070   1.601  0.1599 -0.3323 -0.2362
18353TIP3    H176550   6.034   6.033   1.689  0.7803 -1.7894 -0.8421
18353TIP3    H276551   6.097   6.138   1.599  1.0799 -1.2185  0.0227
18354TIP3   OH276552   0.299   5.231   0.596 -0.3179 -0.2419  0.8081
18354TIP3    H176553   0.341   5.151   0.565  0.3339  0.3422  0.1494
18354TIP3    H276554   0.230   5.200   0.655 -0.7191 -1.3255 -0.1899
18355TIP3   OH276555   5.893   3.804  13.973 -0.1955 -0.3137  0.0394
18355TIP3    H176556   5.913   3.728  13.918  0.2817 -0.9082  1.0013
18355TIP3    H276557   5.829   3.854  13.923 -0.0263 -1.0119 -0.8989
18356TIP3   OH276558   0.423   0.748  14.423 -0.0948  0.3490  0.0874
18356TIP3    H176559   0.389   0.676  14.476 -0.1846 -0.1769 -0.6644
18356TIP3    H276560   0.347   0.779  14.373  0.3890 -0.5831 -1.3141
18357TIP3   OH276561   3.526   4.708  14.611 -0.7457 -0.0459  0.3417
18357TIP3    H176562   3.564   4.791  14.639  0.7361 -0.5464 -0.0990
18357TIP3    H276563   3.433   4.727  14.598 -0.1165  2.0206 -1.6008
18358TIP3   OH276564   4.368   0.976  16.062  0.3521 -0.1637 -0.5514
18358TIP3    H176565   4.448   0.991  16.114  0.3408  0.1280 -0.6165
18358TIP3    H276566   4.338   1.064  16.039  0.3598 -0.2926 -1.0571
18359TIP3   OH276567   0.624   2.504   4.281 -0.2851 -0.5871  0.6083
18359TIP3    H176568   0.572   2.460   4.213 -0.4863  0.2562  0.2057
18359TIP3    H276569   0.560   2.551   4.334 -0.1900 -1.7066  1.7626
18360TIP3   OH276570   5.254   4.549   1.680  0.0163 -0.3252  0.0457
18360TIP3    H176571   5.329   4.518   1.629 -0.2715 -1.0288  0.0385
18360TIP3    H276572   5.291   4.616   1.738  1.1773 -2.2284  1.6825
18361TIP3   OH276573   4.748   5.053   3.195 -0.2417 -0.3336  0.0863
18361TIP3    H176574   4.764   5.069   3.102 -2.5094 -1.3395 -0.5511
18361TIP3    H276575   4.741   4.958   3.202 -0.4317 -0.2452  1.2158
18362TIP3   OH276576   1.003   6.017  11.012 -0.2507  0.2876 -0.2479
18362TIP3    H176577   1.094   6.045  11.000 -0.1597 -0.2548 -0.8994
18362TIP3    H276578   0.995   6.002  11.106  0.1949  0.8202 -0.1232
18363TIP3   OH276579   2.361   0.541  11.585 -0.0682 -0.2564 -0.2607
18363TIP3    H176580   2.360   0.467  11.646 -0.9094 -0.2919 -0.3026
18363TIP3    H276581   2.280   0.532  11.535 -0.0932  0.5869 -0.3969
18364TIP3   OH276582   1.558   1.311  14.257  0.4039 -0.3282 -0.2718
18364TIP3    H176583   1.534   1.219  14.240  2.0794 -0.9091  0.3239
18364TIP3    H276584   1.603   1.339  14.177 -0.8734  0.2955 -0.8085
18365TIP3   OH276585   2.476   1.000  15.420 -0.6985  0.0717  0.5476
18365TIP3    H176586   2.491   1.036  15.508  0.1395  0.1272  0.3889
18365TIP3    H276587   2.484   1.076  15.362  0.1974 -0.2020  0.2932
18366TIP3   OH276588   6.738   3.687   2.826  0.1311  1.2436  0.5866
18366TIP3    H176589   6.656   3.670   2.780  0.7854  1.1714 -0.6216
18366TIP3    H276590   6.805   3.681   2.757  1.3901 -0.8293  1.8804
18367TIP3   OH276591   5.000   6.654   3.396 -0.0924 -0.2874 -0.0799
18367TIP3    H176592   4.942   6.662   3.471 -0.5477 -1.1375 -0.3319
18367TIP3    H276593   4.942   6.633   3.322  0.5234 -1.2931 -0.3047
18368TIP3   OH276594   2.840   2.287   3.492  0.7459 -0.1704  0.2262
18368TIP3    H176595   2.916   2.230   3.507  0.1484 -1.3860 -1.0480
18368TIP3    H276596   2.771   2.227   3.464 -0.0866  1.1226 -0.5978
18369TIP3   OH276597   5.460   1.559  14.621  0.3768 -0.2720 -0.1544
18369TIP3    H176598   5.551   1.572  14.597  0.1909  3.2779  0.6079
18369TIP3    H276599   5.463   1.529  14.712  0.7547 -2.3016 -0.7857
18370TIP3   OH276600   3.428   2.874   0.028  0.5493 -0.1081 -0.4090
18370TIP3    H176601   3.349   2.888  -0.024  0.2782  0.2580  0.0825
18370TIP3    H276602   3.495   2.850  -0.035 -0.1836 -1.4008 -0.7237
18371TIP3   OH276603   6.071   0.218  11.855  0.0971 -0.4179 -0.0367
18371TIP3    H176604   6.113   0.134  11.871 -0.0421 -0.7544 -1.2736
18371TIP3    H276605   6.143   0.280  11.844  0.1990 -0.3666  0.8882
18372TIP3   OH276606   2.832   2.540  16.458 -0.2668  0.0194  0.0487
18372TIP3    H176607   2.766   2.480  16.423 -0.6621  0.6885 -0.3691
18372TIP3    H276608   2.916   2.497  16.440 -0.5281 -0.2168 -0.6137
18373TIP3   OH276609   4.369   3.958   1.432  0.1773  0.4252 -0.5480
18373TIP3    H176610   4.383   3.953   1.527 -2.3510  1.5931 -0.0288
18373TIP3    H276611   4.445   4.005   1.399  0.9683  0.2591  0.9499
18374TIP3   OH276612   5.523   5.936  13.798 -0.3924 -0.1804 -0.2018
18374TIP3    H176613   5.435   5.900  13.789 -0.8761  0.7857  0.5339
18374TIP3    H276614   5.514   6.029  13.778  0.4001 -0.0059  0.1806
18375TIP3   OH276615   2.739   2.026   1.577 -0.3201  0.3341  0.4648
18375TIP3    H176616   2.705   1.942   1.546  2.9351 -0.6806 -0.7863
18375TIP3    H276617   2.781   2.065   1.500  0.8090  1.6778  1.7076
18376TIP3   OH276618   2.741   3.682   3.448 -0.3928 -0.5168  0.0797
18376TIP3    H176619   2.689   3.686   3.367  3.0410  1.2953 -2.2710
18376TIP3    H276620   2.793   3.602   3.438  2.2762  1.2359 -1.2042
18377TIP3   OH276621   0.480   1.279   4.050 -0.4214 -0.0177  0.2379
18377TIP3    H176622   0.555   1.332   4.076  1.1844 -1.9728 -0.1754
18377TIP3    H276623   0.455   1.312   3.964 -1.0004  1.5626  0.9597
18378TIP3   OH276624   6.415   6.804  14.260  0.5252  0.1100 -0.0262
18378TIP3    H176625   6.386   6.715  14.281  2.3344 -0.4686  0.2664
18378TIP3    H276626   6.340   6.860  14.278  0.0127 -1.1132  1.8971
18379TIP3   OH276627   0.406   4.684  12.208  0.2426 -0.3324  0.6938
18379TIP3    H176628   0.364   4.610  12.252  0.4308  0.6471  2.6235
18379TIP3    H276629   0.406   4.754  12.274  2.2483  0.6171 -0.2531
18380TIP3   OH276630   4.331   6.264   4.725  0.9470  0.2739 -0.1954
18380TIP3    H176631   4.405   6.265   4.785  0.1200 -2.1097  0.9901
18380TIP3    H276632   4.256   6.290   4.780  0.4621 -0.2198 -0.6083
18381TIP3   OH276633   2.560   2.716  11.954 -0.0244 -0.2459  0.0950
18381TIP3    H176634   2.627   2.778  11.926  0.5447 -0.2946  1.3132
18381TIP3    H276635   2.528   2.677  11.872 -0.4018  1.6277 -0.7094
18382TIP3   OH276636   4.410   2.700   0.060 -0.3903  0.4823 -0.3599
18382TIP3    H176637   4.433   2.637  -0.009 -0.3156 -0.2633  0.3335
18382TIP3    H276638   4.349   2.760   0.017  1.1485  1.2227 -1.6310
18383TIP3   OH276639   5.282   3.464   3.022  0.0072 -0.0081  0.1314
18383TIP3    H176640   5.226   3.530   3.062  1.6095  0.9623  0.8702
18383TIP3    H276641   5.285   3.488   2.929 -0.2400  0.3389  0.2110
18384TIP3   OH276642   6.460   0.510   5.684 -0.0228 -0.2976  0.2567
18384TIP3    H176643   6.405   0.564   5.629 -0.7832 -0.8307  0.4839
18384TIP3    H276644   6.548   0.521   5.648 -0.3555  0.1400 -0.4377
18385TIP3   OH276645   2.226   0.824  16.705  0.1098 -0.7280  0.7675
18385TIP3    H176646   2.258   0.914  16.706 -1.7360 -0.0002 -0.4790
18385TIP3    H276647   2.133   0.832  16.683 -0.6108 -2.8063  2.6820
18386TIP3   OH276648   2.939   6.244  12.199 -0.0555 -0.5546 -0.1280
18386TIP3    H176649   2.892   6.180  12.145 -0.7391 -0.0806 -0.1045
18386TIP3    H276650   3.014   6.270  12.145 -0.7345 -0.0769 -0.8644
18387TIP3   OH276651   5.385   0.029   0.312 -0.5132  0.3920 -0.3427
18387TIP3    H176652   5.319   0.053   0.377  0.3812  2.0125  0.0339
18387TIP3    H276653   5.423  -0.052   0.345 -1.0112  0.4559  0.4180
18388TIP3   OH276654   5.566   2.323   4.388  0.2340  0.5020 -0.0158
18388TIP3    H176655   5.624   2.253   4.417  1.0583  0.5001 -1.5920
18388TIP3    H276656   5.619   2.402   4.394 -0.0544  0.7044 -0.1187
18389TIP3   OH276657   2.699   2.333  16.328  0.1774 -0.1396 -0.3006
18389TIP3    H176658   2.647   2.370  16.257  1.9663  2.6662 -0.3040
18389TIP3    H276659   2.637   2.316  16.398 -0.9534  2.0893 -0.6674
18390TIP3   OH276660   0.723   6.534   3.566  0.4752 -0.5241  0.5059
18390TIP3    H176661   0.782   6.570   3.632 -0.9938  1.1090  1.0273
18390TIP3    H276662   0.683   6.458   3.607 -0.6291  0.6369  1.6621
18391TIP3   OH276663   2.882   5.485  15.144  0.2780  0.1936  0.4465
18391TIP3    H176664   2.866   5.563  15.196 -2.6366 -0.4906  0.7567
18391TIP3    H276665   2.833   5.500  15.063 -0.2621 -1.2518  0.4764
18392TIP3   OH276666   3.642   6.549   2.404  0.5711 -0.0498 -0.2773
18392TIP3    H176667   3.736   6.563   2.405  0.5345  0.3327  1.1773
18392TIP3    H276668   3.606   6.627   2.361  0.7305  1.8007  2.6364
18393TIP3   OH276669   1.995   3.670  12.125  0.4726  0.1542 -0.2988
18393TIP3    H176670   2.049   3.594  12.147 -1.9360 -1.5624  0.0941
18393TIP3    H276671   1.995   3.672  12.029  2.0595  0.8690 -0.3170
18394TIP3   OH276672   4.657   0.506  14.473  0.2659 -0.4638 -0.5589
18394TIP3    H176673   4.589   0.483  14.536 -1.2318  0.1190 -1.8997
18394TIP3    H276674   4.731   0.451  14.497 -0.5434 -0.8821  1.1600
18395TIP3   OH276675   2.449   4.381  15.590 -0.2223  0.2281 -0.8891
18395TIP3    H176676   2.463   4.462  15.539 -0.6463  0.7715 -0.1574
18395TIP3    H276677   2.440   4.411  15.680 -0.7964 -0.6088 -0.6618
18396TIP3   OH276678   2.087   1.851   4.610  0.3840  0.2598 -0.4487
18396TIP3    H176679   2.122   1.779   4.557 -0.8508  0.4035 -1.5182
18396TIP3    H276680   2.069   1.920   4.547  1.0801  1.3442  0.5060
18397TIP3   OH276681   5.192   6.175  12.794 -0.2021 -0.3527 -0.1353
18397TIP3    H176682   5.220   6.139  12.878  0.2730 -1.4962 -0.7622
18397TIP3    H276683   5.218   6.267  12.796  1.3735 -0.7942  0.2805
18398TIP3   OH276684   5.435   0.862  16.777 -0.0108  0.0300  0.0077
18398TIP3    H176685   5.430   0.798  16.847 -1.4961  1.3244  1.1388
18398TIP3    H276686   5.433   0.810  16.696  0.5619 -1.4081  0.8898
18399TIP3   OH276687   0.664   3.192   3.895  0.2797  0.0600 -0.1262
18399TIP3    H176688   0.618   3.125   3.846  0.1513  0.5717 -0.7197
18399TIP3    H276689   0.756   3.179   3.873  0.0753  1.4997 -2.0947
18400TIP3   OH276690   2.837   4.422  15.330  0.4489 -0.1195  0.4443
18400TIP3    H176691   2.873   4.507  15.305 -0.2566 -0.1863 -0.8824
18400TIP3    H276692   2.801   4.386  15.249 -0.0371 -1.3042  1.1576
18401TIP3   OH276693   3.869   2.423  10.929  0.0570  0.2436 -0.3041
18401TIP3    H176694   3.847   2.343  10.975 -1.0648  0.0733 -1.0764
18401TIP3    H276695   3.814   2.490  10.970  0.4181  0.4623 -0.1736
18402TIP3   OH276696   6.387   1.895   1.928 -0.1664  0.3742 -0.3019
18402TIP3    H176697   6.478   1.918   1.946 -0.3332  0.5829  0.3183
18402TIP3    H276698   6.391   1.810   1.883  0.2704 -0.3698  1.0877
18403TIP3   OH276699   5.011   0.875   4.533 -0.3509 -0.4680  0.3892
18403TIP3    H176700   5.068   0.841   4.463  0.9441 -0.1815  1.2689
18403TIP3    H276701   4.953   0.937   4.489  1.2413  0.6208 -0.2882
18404TIP3   OH276702   3.235   0.970  16.532 -0.4455 -0.2263  0.5184
18404TIP3    H176703   3.306   0.969  16.467 -1.6177 -2.4225 -0.8360
18404TIP3    H276704   3.280   0.969  16.616  1.1267  1.8673 -0.1829
18405TIP3   OH276705   0.512   2.215   5.779  0.0270  0.2125 -0.1822
18405TIP3    H176706   0.570   2.270   5.726 -1.8203  0.0431 -2.5513
18405TIP3    H276707   0.457   2.169   5.715 -1.1911 -1.3440  1.8589
18406TIP3   OH276708   5.220   3.363   5.394 -0.1644 -0.8144  0.2913
18406TIP3    H176709   5.202   3.324   5.480 -0.0945  3.2510  2.3753
18406TIP3    H276710   5.302   3.411   5.406  0.3323 -0.8384 -2.3965
18407TIP3   OH276711   2.567   3.707   0.640  0.6364 -0.2508 -0.2478
18407TIP3    H176712   2.612   3.709   0.725 -0.0786  0.5660  0.1327
18407TIP3    H276713   2.638   3.715   0.576  1.0452  1.4601  0.3525
18408TIP3   OH276714   5.825   3.264  13.536 -0.0593  0.1438 -0.1062
18408TIP3    H176715   5.739   3.302  13.517 -0.1259  0.6667  1.1671
18408TIP3    H276716   5.844   3.290  13.626  2.4059  1.8956 -1.0146
18409TIP3   OH276717   0.857   0.776  11.899  0.0461  0.4661  0.2813
18409TIP3    H176718   0.793   0.719  11.941  0.9010 -1.3782 -0.7924
18409TIP3    H276719   0.939   0.758  11.944  0.0826  1.9005  0.8347
18410TIP3   OH276720   1.043   5.208   0.385  0.3152  0.1821  0.2946
18410TIP3    H176721   1.112   5.267   0.356  1.6406 -0.7217  1.5154
18410TIP3    H276722   0.977   5.265   0.424  1.1179  0.9359  0.5642
18411TIP3   OH276723   4.245   1.527  17.167  0.4792 -0.1315 -0.5436
18411TIP3    H176724   4.291   1.611  17.169 -1.5948  1.0867 -1.4955
18411TIP3    H276725   4.266   1.489  17.082  0.3468  0.0492 -0.6554
18412TIP3   OH276726   2.313   3.588  17.110  0.1859 -0.0190 -0.0820
18412TIP3    H176727   2.353   3.502  17.115  1.2122  0.5030  1.1076
18412TIP3    H276728   2.376   3.641  17.061  1.0715  0.8309  1.8715
18413TIP3   OH276729   0.266   1.105   3.852  0.1154  0.3156 -0.2698
18413TIP3    H176730   0.311   1.021   3.867 -0.4550 -0.0618 -0.6281
18413TIP3    H276731   0.235   1.100   3.762 -3.2884 -0.7689  0.7867
18414TIP3   OH276732   5.060   6.159  12.241  0.3087  0.3593 -0.2228
18414TIP3    H176733   5.100   6.245  12.233  1.8228 -0.3635 -1.0545
18414TIP3    H276734   5.047   6.130  12.150 -1.4563  0.2613  0.0403
18415TIP3   OH276735   6.064   2.437  11.435 -0.2404 -0.4333  0.3264
18415TIP3    H176736   6.151   2.473  11.452  0.8394 -2.7383 -0.0781
18415TIP3    H276737   6.064   2.352  11.479 -2.5103 -0.2469  0.8044
18416TIP3   OH276738   0.339   4.760   5.219  0.0793 -0.3015  0.1575
18416TIP3    H176739   0.379   4.675   5.238  1.1307 -0.0064 -0.6680
18416TIP3    H276740   0.411   4.823   5.229 -0.0252  0.1882 -1.8386
18417TIP3   OH276741   6.724   1.344   4.726  0.1388  0.6353  0.6569
18417TIP3    H176742   6.659   1.413   4.711  0.3092  0.9474  1.3010
18417TIP3    H276743   6.808   1.385   4.702  0.0044 -0.1496 -1.3483
18418TIP3   OH276744   3.876   1.686   0.900  0.2269 -0.2175  0.4362
18418TIP3    H176745   3.854   1.624   0.970 -2.9863  0.3320  0.0824
18418TIP3    H276746   3.819   1.660   0.827  1.5712  0.8633 -1.0511
18419TIP3   OH276747   6.304   0.700  11.293 -0.4320  0.0930 -0.3840
18419TIP3    H176748   6.379   0.684  11.236  0.0769 -1.4047  0.6397
18419TIP3    H276749   6.238   0.738  11.235  0.6637  0.2485 -1.5808
18420TIP3   OH276750   6.456   0.752   2.764 -0.0312  0.3298  0.1751
18420TIP3    H176751   6.448   0.798   2.681 -1.0005 -1.1772 -0.6023
18420TIP3    H276752   6.385   0.788   2.818  0.5272  1.2239  0.3440
18421TIP3   OH276753   0.020   2.053  16.907 -0.0991  0.7507  0.0026
18421TIP3    H176754   0.004   2.138  16.947 -0.3800 -0.1483  1.9246
18421TIP3    H276755   0.038   2.072  16.815  0.2554  2.9014  0.4743
18422TIP3   OH276756   4.874   0.542   4.612  0.2940 -0.3140  0.1361
18422TIP3    H176757   4.833   0.459   4.637 -2.2141  1.1943  1.4112
18422TIP3    H276758   4.820   0.575   4.541  2.1859 -0.3943 -1.4336
18423TIP3   OH276759   4.654   1.195   2.613 -0.1592  0.4028 -0.0553
18423TIP3    H176760   4.587   1.239   2.561  0.0801  2.1858  1.0588
18423TIP3    H276761   4.652   1.104   2.583 -2.5812  0.5591 -0.5185
18424TIP3   OH276762   4.649   5.480  14.053 -0.3189  0.2218 -0.2293
18424TIP3    H176763   4.671   5.541  14.123  0.2635  0.2313 -0.4193
18424TIP3    H276764   4.730   5.469  14.004 -0.6083 -0.1372 -0.6339
18425TIP3   OH276765   2.033   2.111  14.339  0.1348 -0.0876 -0.5430
18425TIP3    H176766   2.109   2.162  14.310  0.0237  0.5450  0.2309
18425TIP3    H276767   1.960   2.173  14.334 -0.4489 -0.8505 -1.8123
18426TIP3   OH276768   1.873   4.071  16.436  0.7596 -0.1041  0.4867
18426TIP3    H176769   1.845   3.999  16.493  0.2867 -0.6995 -0.4830
18426TIP3    H276770   1.824   4.147  16.468  0.2629 -0.5020  0.6748
18427TIP3   OH276771   0.999   0.808   1.819  0.6564  0.2451 -0.0234
18427TIP3    H176772   0.984   0.890   1.773 -0.3234 -0.3631 -0.8201
18427TIP3    H276773   1.037   0.834   1.903 -1.0990  1.6070  0.3978
18428TIP3   OH276774   4.656   2.811   3.111 -0.3866 -0.1676 -0.0580
18428TIP3    H176775   4.654   2.830   3.017  0.7106 -2.7216 -0.6944
18428TIP3    H276776   4.749   2.817   3.135 -0.6737  0.6447  0.9389
18429TIP3   OH276777   1.845   6.767  15.836 -0.0459 -0.3353  0.1968
18429TIP3    H176778   1.935   6.795  15.855 -0.1746 -0.4393  0.9961
18429TIP3    H276779   1.807   6.749  15.922 -1.6632  2.1879  0.1112
18430TIP3   OH276780   3.147   0.009  12.456  0.3088 -0.3011  0.0212
18430TIP3    H176781   3.167   0.006  12.550  2.3239  0.5182 -0.3160
18430TIP3    H276782   3.178  -0.076  12.423  0.5513 -0.1820 -0.0581
18431TIP3   OH276783   6.581   5.940   2.573  0.2330 -0.3183  0.0335
18431TIP3    H176784   6.537   5.861   2.606  0.8529 -1.1697 -1.1014
18431TIP3    H276785   6.537   6.012   2.619 -2.3764 -1.0939 -1.0344
18432TIP3   OH276786   6.311   0.408   0.333  0.0214  0.1896 -0.0635
18432TIP3    H176787   6.254   0.484   0.341  0.7928  0.8618 -0.7083
18432TIP3    H276788   6.285   0.367   0.251  0.4689  0.5051 -0.3651
18433TIP3   OH276789   1.804   6.113  14.614 -0.0941 -0.3229 -0.1023
18433TIP3    H176790   1.716   6.079  14.594  0.1339 -0.9621 -0.0418
18433TIP3    H276791   1.862   6.063  14.556  0.3396 -0.6386  0.5938
18434TIP3   OH276792   1.345   1.926   4.840 -0.3341 -0.1166 -0.6153
18434TIP3    H176793   1.440   1.929   4.855 -0.4185 -0.3245 -0.0014
18434TIP3    H276794   1.313   2.012   4.865 -0.2951 -0.0152 -0.9138
18435TIP3   OH276795   5.504   0.296   4.147  0.4597  0.2507  0.1012
18435TIP3    H176796   5.487   0.221   4.204  2.5467  0.6155  1.3132
18435TIP3    H276797   5.418   0.323   4.117 -0.3457 -3.9949 -2.3040
18436TIP3   OH276798   6.043   5.980  16.553  0.9049  0.0545  0.4439
18436TIP3    H176799   5.976   5.966  16.621  0.5142  0.8772  0.2516
18436TIP3    H276800   6.034   6.073  16.531  0.4230 -0.3810 -1.3694
18437TIP3   OH276801   1.278   3.811  11.689 -0.0024  0.0109  0.6099
18437TIP3    H176802   1.214   3.848  11.750  2.0260  3.4342  0.9491
18437TIP3    H276803   1.300   3.726  11.725 -0.6168  0.9137  3.3525
18438TIP3   OH276804   4.083   6.351  14.193  0.2788  0.3464 -0.2490
18438TIP3    H176805   4.126   6.426  14.151  0.9250  1.1778  1.7651
18438TIP3    H276806   3.991   6.359  14.168  0.6619  0.7254 -1.5842
18439TIP3   OH276807   3.950   5.908  13.460  0.1485 -0.3663  0.6002
18439TIP3    H176808   3.871   5.868  13.425  0.1077  1.2587 -1.3482
18439TIP3    H276809   4.020   5.845  13.442 -0.3192 -0.7287  0.0420
18440TIP3   OH276810   6.618   0.854   3.403  0.2036 -0.0338 -0.0630
18440TIP3    H176811   6.626   0.759   3.404 -1.4668 -0.2099 -1.0307
18440TIP3    H276812   6.669   0.883   3.479  0.8994 -1.6740  0.1254
18441TIP3   OH276813   0.868   4.521   2.541 -0.4855 -0.0210 -0.3324
18441TIP3    H176814   0.839   4.466   2.614 -1.1743 -1.4963 -1.6497
18441TIP3    H276815   0.890   4.604   2.581 -0.9027 -0.7623  1.5492
18442TIP3   OH276816   2.530   5.592  13.441 -0.2074  0.0418  0.3762
18442TIP3    H176817   2.618   5.555  13.435 -0.1987 -0.0433  0.9984
18442TIP3    H276818   2.471   5.519  13.425 -0.1952 -0.3160  1.8025
18443TIP3   OH276819   2.361   0.482   5.682 -0.4106 -0.0299  0.8365
18443TIP3    H176820   2.443   0.441   5.653  0.0182  1.5332 -0.2999
18443TIP3    H276821   2.312   0.496   5.602  0.1155  2.9760  0.9379
18444TIP3   OH276822   0.663   6.460  13.173 -0.5292 -0.5614  0.1994
18444TIP3    H176823   0.606   6.496  13.241  0.0791 -0.4772  0.6638
18444TIP3    H276824   0.751   6.462  13.210 -0.2745 -1.1168 -0.3415
18445TIP3   OH276825   2.000   3.912  13.020 -0.0749 -0.1320  0.1383
18445TIP3    H176826   2.034   3.997  12.993  0.1995 -0.4568 -0.5700
18445TIP3    H276827   2.048   3.849  12.967  1.0617 -0.8694  1.9459
18446TIP3   OH276828   2.835   2.108   6.611  0.2112 -1.2539  0.1877
18446TIP3    H176829   2.891   2.059   6.552  0.8572 -0.4904  0.1451
18446TIP3    H276830   2.894   2.170   6.654 -0.2146 -1.9008  1.7561
18447TIP3   OH276831   1.854   1.205  12.241 -0.3288  0.8315  0.3093
18447TIP3    H176832   1.842   1.112  12.264 -2.3712  1.1374  0.7292
18447TIP3    H276833   1.947   1.221  12.253  0.3129 -1.4455 -0.8810
18448TIP3   OH276834   3.202   3.367   3.669  0.1042  0.2872  0.2415
18448TIP3    H176835   3.233   3.325   3.749  0.1331 -1.1955 -0.5086
18448TIP3    H276836   3.128   3.314   3.641 -0.0269  0.8901 -0.6056
18449TIP3   OH276837   3.925   1.982   3.424  0.0255 -0.6860 -0.0362
18449TIP3    H176838   3.980   2.027   3.360 -0.5439 -1.2563 -0.9567
18449TIP3    H276839   3.970   1.899   3.440  0.1471 -0.5605  0.2755
18450TIP3   OH276840   1.948   3.952  14.068  0.4110 -0.3607 -0.5551
18450TIP3    H176841   2.004   3.922  14.140 -0.5474  1.6853  1.1631
18450TIP3    H276842   1.859   3.942  14.101 -0.1183 -0.6326 -2.0151
18451TIP3   OH276843   2.986   2.947   6.822  0.2309  0.2684  0.4639
18451TIP3    H176844   2.984   2.982   6.911  1.1253  2.3796 -0.2745
18451TIP3    H276845   2.918   2.996   6.775 -0.1455 -0.7253 -0.0670
18452TIP3   OH276846   1.893   3.793   5.119  0.0435  0.2188  0.4544
18452TIP3    H176847   1.828   3.864   5.114  1.4452  1.5675  0.5098
18452TIP3    H276848   1.899   3.772   5.213 -2.1471 -1.7613  0.2353
18453TIP3   OH276849   5.356   4.306   2.966 -0.4281 -0.9894 -0.9392
18453TIP3    H176850   5.351   4.349   2.880 -1.4047  1.4859  0.2410
18453TIP3    H276851   5.416   4.361   3.017 -1.9717 -0.7531  0.7464
18454TIP3   OH276852   6.054   3.363  12.344  0.1974 -0.3013  0.0942
18454TIP3    H176853   5.991   3.433  12.356 -0.0057 -0.5803  0.6833
18454TIP3    H276854   6.042   3.335  12.253 -0.5466 -0.3731  0.2117
18455TIP3   OH276855   3.219   5.350   4.752  0.0228  0.5276 -0.2645
18455TIP3    H176856   3.257   5.278   4.802 -1.7073  0.6294  1.3196
18455TIP3    H276857   3.235   5.428   4.805  0.2702  1.0304 -1.0593
18456TIP3   OH276858   0.010   5.661  12.191  0.2421 -0.0684 -0.4769
18456TIP3    H176859   0.085   5.662  12.132 -0.1584 -1.3612 -1.0482
18456TIP3    H276860  -0.028   5.749  12.184  0.0690 -0.2531 -2.3409
18457TIP3   OH276861   5.864   1.980  11.956  0.1553  0.6028 -0.1326
18457TIP3    H176862   5.827   1.904  12.001  1.6039  1.0402  1.9830
18457TIP3    H276863   5.816   2.055  11.992 -0.6114  0.7927 -1.4951
18458TIP3   OH276864   4.058   4.598  12.655 -0.1377 -0.3604 -0.0830
18458TIP3    H176865   4.031   4.682  12.692 -0.5470 -0.5473  0.0491
18458TIP3    H276866   4.102   4.553  12.727 -1.2764 -0.8840  0.3196
18459TIP3   OH276867   4.089   4.388  11.645  0.2135  0.8538  0.5817
18459TIP3    H176868   4.136   4.403  11.726  2.1673 -2.6795  0.2873
18459TIP3    H276869   4.014   4.334  11.670 -1.0657  2.4421  0.3733
18460TIP3   OH276870   3.349   4.757   6.008  0.3358 -0.7184 -0.1856
18460TIP3    H176871   3.403   4.759   6.087 -0.0418 -1.5041  0.1008
18460TIP3    H276872   3.332   4.849   5.988  3.0938 -0.3251 -1.2022
18461TIP3   OH276873   1.974   0.046   6.127  0.5562  0.8948 -0.3603
18461TIP3    H176874   1.938   0.057   6.215  0.4171 -1.3048 -0.0829
18461TIP3    H276875   2.009   0.132   6.104 -2.1823  2.3709  0.5561
18462TIP3   OH276876   3.725   3.414   5.833 -0.1352 -0.0559 -0.3443
18462TIP3    H176877   3.633   3.441   5.829  0.5026  2.8677  1.3635
18462TIP3    H276878   3.747   3.390   5.743 -2.2050  0.4967 -1.0581
18463TIP3   OH276879   5.159   0.850  13.408 -0.6223 -0.3048  0.2998
18463TIP3    H176880   5.216   0.923  13.382 -0.3663 -0.2531  0.9887
18463TIP3    H276881   5.214   0.772  13.397 -1.5910 -0.6936 -2.6644
18464TIP3   OH276882   6.166   6.132  14.329  0.5640 -0.1762 -0.2967
18464TIP3    H176883   6.129   6.216  14.357  0.5839 -1.1892  3.2272
18464TIP3    H276884   6.256   6.135  14.360  0.8743 -1.1251 -1.0796
18465TIP3   OH276885   6.533   4.927   0.371 -0.3715 -0.3540  0.1197
18465TIP3    H176886   6.591   4.903   0.299 -0.1610 -1.2915  0.5876
18465TIP3    H276887   6.564   4.876   0.445 -0.9478  0.1619  0.7331
18466TIP3   OH276888   2.299   1.414   4.857  0.7124  0.0708 -0.1178
18466TIP3    H176889   2.205   1.416   4.876  0.5209  0.3050 -1.0344
18466TIP3    H276890   2.340   1.399   4.942 -0.2579 -2.3344  0.0161
18467TIP3   OH276891   4.205   6.708  16.165 -0.6979 -0.3039 -0.0350
18467TIP3    H176892   4.147   6.688  16.239 -0.4299 -2.2302 -0.2972
18467TIP3    H276893   4.175   6.651  16.094  0.8244 -0.5633 -0.5093
18468TIP3   OH276894   6.490   6.501  12.679  0.2297 -0.3699  0.1487
18468TIP3    H176895   6.405   6.515  12.638  0.2792  0.1525  0.2211
18468TIP3    H276896   6.474   6.434  12.745 -0.1962 -0.0427  0.3802
18469TIP3   OH276897   0.493   3.308  10.485 -0.0376 -0.3643  0.2167
18469TIP3    H176898   0.410   3.354  10.495  0.0955 -0.0658 -0.0359
18469TIP3    H276899   0.471   3.216  10.496 -0.6260 -0.4004 -1.1264
18470TIP3   OH276900   3.896   3.806  14.965  0.5452 -0.4029  0.2111
18470TIP3    H176901   3.850   3.809  15.049 -0.2847 -0.5428 -0.2280
18470TIP3    H276902   3.955   3.881  14.967  0.2339 -0.1681  0.7487
18471TIP3   OH276903   3.322   2.465  15.473  0.9429  0.2140  0.5981
18471TIP3    H176904   3.416   2.455  15.461  0.4955 -1.1672 -2.8859
18471TIP3    H276905   3.305   2.426  15.559  3.2738 -1.7523  0.2918
18472TIP3   OH276906   1.792   3.342  14.439  0.0354  0.3164 -0.2899
18472TIP3    H176907   1.808   3.417  14.381 -1.4393  1.2228  0.4273
18472TIP3    H276908   1.832   3.366  14.522  0.9085 -0.3882 -0.4797
18473TIP3   OH276909   6.605   2.495   5.166  0.4541 -0.5290 -0.5916
18473TIP3    H176910   6.516   2.482   5.132  0.6443 -1.4362 -0.7705
18473TIP3    H276911   6.597   2.479   5.260  0.4920 -0.9578 -0.6601
18474TIP3   OH276912   2.777   4.545   0.497  0.1776  0.0352 -0.2669
18474TIP3    H176913   2.847   4.548   0.562 -0.0995 -0.2844  0.0524
18474TIP3    H276914   2.816   4.582   0.418  0.6834 -0.0687 -0.0714
18475TIP3   OH276915   4.258   3.096   5.853  0.7262 -0.6189 -0.3040
18475TIP3    H176916   4.184   3.072   5.796 -0.6077  3.3683 -0.6048
18475TIP3    H276917   4.315   3.149   5.797  1.6901 -0.2347  0.9925
18476TIP3   OH276918   3.494   4.290  12.569  0.1769  0.0546 -0.1141
18476TIP3    H176919   3.452   4.308  12.653  0.1417  0.3897 -0.2024
18476TIP3    H276920   3.505   4.376  12.529 -0.3407 -0.1453 -0.7050
18477TIP3   OH276921   6.350   5.622  14.863  0.1610  0.7300 -0.1251
18477TIP3    H176922   6.325   5.673  14.786 -2.4196  0.0222  0.1390
18477TIP3    H276923   6.328   5.679  14.937 -1.7529 -0.2739  0.1411
18478TIP3   OH276924   2.866   3.184   3.309  0.1193  0.0802  0.3655
18478TIP3    H176925   2.872   3.264   3.361 -0.6009 -0.7404  1.7822
18478TIP3    H276926   2.801   3.204   3.241  0.8763  1.0849 -0.0871
18479TIP3   OH276927   0.977   1.196  11.624 -0.0582 -0.2213 -0.3029
18479TIP3    H176928   0.951   1.286  11.643 -0.0530 -0.1683 -0.5439
18479TIP3    H276929   1.073   1.197  11.626 -0.0724 -0.4347  0.6709
18480TIP3   OH276930   2.069   4.094   5.061  0.6386  0.2277 -0.3503
18480TIP3    H176931   2.134   4.128   5.001 -0.0894 -2.7635 -3.1171
18480TIP3    H276932   2.116   4.032   5.116  0.2862 -2.0017 -2.4103
18481TIP3   OH276933   5.287   4.327  13.661 -0.0465 -0.5940  0.4765
18481TIP3    H176934   5.365   4.273  13.675 -0.3796 -0.9829  0.8522
18481TIP3    H276935   5.281   4.380  13.740 -0.1282 -0.5167  0.4184
18482TIP3   OH276936   4.711   1.898  14.443 -0.1648  0.8574 -0.3148
18482TIP3    H176937   4.684   1.989  14.455 -0.0255  0.9721 -0.8350
18482TIP3    H276938   4.707   1.884  14.348 -3.0072 -0.5496 -0.1077
18483TIP3   OH276939   3.920   0.205   0.623 -0.7192 -0.3508 -0.1066
18483TIP3    H176940   3.967   0.271   0.572 -1.1751 -0.7841 -1.1255
18483TIP3    H276941   3.986   0.138   0.643 -0.1442  0.6025  1.3294
18484TIP3   OH276942   4.762   5.984  17.166 -0.1563 -0.3942  0.3148
18484TIP3    H176943   4.837   5.925  17.174 -0.0073 -0.0852  1.4290
18484TIP3    H276944   4.798   6.071  17.182 -0.5258 -0.0854 -0.4785
18485TIP3   OH276945   1.546   1.170  16.831 -0.0477 -0.5820 -0.1111
18485TIP3    H176946   1.611   1.232  16.800 -1.2761  0.6270 -0.3995
18485TIP3    H276947   1.578   1.084  16.803 -0.4306  0.2830 -3.6321
18486TIP3   OH276948   3.572   2.838  12.261  0.1239  0.1191  0.0899
18486TIP3    H176949   3.637   2.909  12.260 -1.5527  1.7598  1.1620
18486TIP3    H276950   3.544   2.830  12.170  0.7853  0.3977 -0.1436
18487TIP3   OH276951   4.652   5.640  14.272 -0.1443 -0.1673 -0.7004
18487TIP3    H176952   4.584   5.705  14.256 -1.2232 -0.5384  1.9337
18487TIP3    H276953   4.721   5.687  14.319 -1.1827 -0.9306  1.7354
18488TIP3   OH276954   1.827   5.352  12.309 -0.3753 -0.2885  0.1364
18488TIP3    H176955   1.792   5.268  12.280 -0.1367  0.2942 -2.0645
18488TIP3    H276956   1.906   5.330  12.357 -0.5866 -1.3537  0.0155
18489TIP3   OH276957   3.711   5.821  13.362 -0.0285  0.2805 -0.4699
18489TIP3    H176958   3.632   5.873  13.346  0.7996  1.6112 -0.3962
18489TIP3    H276959   3.690   5.768  13.438 -0.4270  1.5993  0.3768
18490TIP3   OH276960   4.100   6.461  14.796 -0.2402  0.6254  0.3102
18490TIP3    H176961   4.180   6.429  14.837 -0.6438 -0.8867 -0.0333
18490TIP3    H276962   4.124   6.547  14.761  0.5983  1.1675  2.1156
18491TIP3   OH276963   2.709   3.079   2.488  0.3947 -0.3589  0.3160
18491TIP3    H176964   2.732   2.988   2.507  0.9398 -0.3298 -0.1775
18491TIP3    H276965   2.713   3.085   2.392 -2.9418 -0.6940  0.0317
18492TIP3   OH276966   4.396   0.646   0.397 -0.5042 -0.0389  0.6540
18492TIP3    H176967   4.393   0.579   0.328  2.8794  0.6679 -0.3808
18492TIP3    H276968   4.385   0.729   0.350  0.7137  0.3847  1.0739
18493TIP3   OH276969   0.586   2.479   3.824  0.2377 -0.3439  0.0736
18493TIP3    H176970   0.554   2.415   3.887  0.1975  1.0426  1.4968
18493TIP3    H276971   0.533   2.557   3.839  2.3005  1.0568  0.5251
18494TIP3   OH276972   4.359   1.308   5.361  0.1039 -0.0911 -0.0065
18494TIP3    H176973   4.409   1.232   5.394 -1.5000 -2.0479 -1.8181
18494TIP3    H276974   4.424   1.360   5.314  0.9299 -1.3860 -0.3680
18495TIP3   OH276975   3.756   1.205  16.942 -0.3365  0.0585 -0.2379
18495TIP3    H176976   3.778   1.114  16.963 -1.4997 -0.3723 -0.8054
18495TIP3    H276977   3.661   1.206  16.934 -0.4728  1.6311  1.0760
18496TIP3   OH276978   5.542   5.208   2.098 -0.1923 -0.9594 -0.2691
18496TIP3    H176979   5.450   5.223   2.118  0.3969  1.0289  1.2263
18496TIP3    H276980   5.569   5.138   2.157 -0.4550 -0.7075  0.1503
18497TIP3   OH276981   4.436   3.135   4.268  0.1429 -0.1508 -0.3020
18497TIP3    H176982   4.482   3.106   4.189  1.8619  0.9540  0.2169
18497TIP3    H276983   4.433   3.231   4.260 -0.6107 -0.1036  0.4737
18498TIP3   OH276984   6.409   4.072  14.545 -0.0963  0.1988 -0.3142
18498TIP3    H176985   6.456   4.062  14.462  0.1377  0.7595 -0.2552
18498TIP3    H276986   6.428   3.991  14.593  1.4446  0.7133  0.0046
18499TIP3   OH276987   2.879   1.643  13.731  0.6380 -0.2729 -0.0144
18499TIP3    H176988   2.801   1.692  13.754  0.1694 -1.1927  0.4200
18499TIP3    H276989   2.907   1.680  13.647 -1.1617 -0.9570 -0.9709
18500TIP3   OH276990   6.717   4.308  16.895 -0.1575  0.4443  0.3218
18500TIP3    H176991   6.622   4.296  16.902 -0.0248 -0.9854 -0.0980
18500TIP3    H276992   6.735   4.307  16.801  0.4396 -0.8892  0.4273
18501TIP3   OH276993   0.530   4.195  15.767 -0.1247 -0.0594  0.3699
18501TIP3    H176994   0.512   4.104  15.742  0.3720  0.0058 -0.2468
18501TIP3    H276995   0.514   4.245  15.687 -0.1321  0.3595  0.6347
18502TIP3   OH276996   1.344   5.086   5.873 -0.3115  0.1445  0.4117
18502TIP3    H176997   1.430   5.080   5.830  0.2964 -0.0631  1.6298
18502TIP3    H276998   1.331   4.999   5.911 -2.2182 -0.6539 -1.8534
18503TIP3   OH276999   0.575   4.446   3.174  0.1420  0.2196  0.2189
18503TIP3    H177000   0.588   4.468   3.082 -0.2648  0.9173  0.3160
18503TIP3    H277001   0.521   4.367   3.172  2.0096 -1.1156 -0.1443
18504TIP3   OH277002   0.711   1.816  13.584  0.4055 -0.1006 -0.1682
18504TIP3    H177003   0.702   1.721  13.587 -0.0952 -0.0303  0.9089
18504TIP3    H277004   0.627   1.847  13.550 -0.3146  0.0653  1.6624
18505TIP3   OH277005   0.672   4.792  15.777  0.0157  0.2867 -0.0525
18505TIP3    H177006   0.599   4.839  15.737  1.2044  0.2034 -2.5096
18505TIP3    H277007   0.708   4.853  15.841 -1.9013  0.4844  0.8976
18506TIP3   OH277008   6.693   6.336   4.071 -0.4101 -0.6241 -0.1157
18506TIP3    H177009   6.715   6.258   4.020  0.7363 -0.8689  0.7266
18506TIP3    H277010   6.662   6.302   4.155 -1.1072 -0.1905 -0.1876
18507TIP3   OH277011   0.185   0.460  11.529  0.7408 -0.5685 -0.4646
18507TIP3    H177012   0.109   0.412  11.497 -0.5263  1.6052 -0.9101
18507TIP3    H277013   0.191   0.436  11.622 -0.0812 -1.2544 -0.5742
18508TIP3   OH277014   1.110   5.539  16.420 -0.3048 -0.1240  0.2919
18508TIP3    H177015   1.180   5.516  16.359 -0.5602  0.9501 -0.4440
18508TIP3    H277016   1.031   5.502  16.380 -0.2429 -0.8178  0.8110
18509TIP3   OH277017   2.040   1.911  12.430 -0.7383 -0.5803  0.2264
18509TIP3    H177018   1.979   1.933  12.500 -1.8044 -0.0439 -0.8243
18509TIP3    H277019   1.985   1.874  12.361  0.1984 -0.5534 -0.5609
18510TIP3   OH277020   3.490   5.016  14.321 -0.2154  0.2936 -0.0238
18510TIP3    H177021   3.577   5.043  14.292  0.2128  1.2820  2.0215
18510TIP3    H277022   3.430   5.070  14.269  0.4682  1.2544  0.1569
18511TIP3   OH277023   1.225   2.970   2.418 -0.3751  0.0422  0.2556
18511TIP3    H177024   1.155   3.017   2.463 -0.3972  1.1171 -0.8460
18511TIP3    H277025   1.304   3.018   2.441 -0.0447 -0.8492  1.0627
18512TIP3   OH277026   2.063   4.678  17.036 -0.0443  0.0849 -0.3478
18512TIP3    H177027   2.009   4.754  17.014 -0.2864 -0.0830 -0.3430
18512TIP3    H277028   1.999   4.611  17.062  0.1909  0.0348  0.1085
18513TIP3   OH277029   2.655   5.764   4.257  0.0910  0.1653 -0.3900
18513TIP3    H177030   2.739   5.725   4.234 -0.2476 -1.5947  1.1310
18513TIP3    H277031   2.591   5.695   4.241 -0.4978 -0.1457  2.6663
18514TIP3   OH277032   5.328   2.653  16.940  0.0174  0.3930  0.2771
18514TIP3    H177033   5.373   2.592  16.882 -0.2274  0.5391 -0.0698
18514TIP3    H277034   5.397   2.695  16.990  0.2053  0.0131  0.3397
18515TIP3   OH277035   4.590   1.927  11.767  0.0747 -0.2214 -0.1850
18515TIP3    H177036   4.547   1.956  11.687  1.0066  0.3794 -0.4860
18515TIP3    H277037   4.526   1.869  11.809 -0.4247 -0.5384 -1.3454
18516TIP3   OH277038   1.744   5.679  15.360 -0.5804 -0.2255  0.0356
18516TIP3    H177039   1.659   5.663  15.400 -1.1824 -1.0495 -1.4650
18516TIP3    H277040   1.790   5.736  15.422 -2.7862  1.5400  0.2092
18517TIP3   OH277041   5.095   5.254   4.822  0.5738  0.1764  0.5880
18517TIP3    H177042   5.101   5.159   4.816  1.3348  0.1955  0.9339
18517TIP3    H277043   5.158   5.286   4.758 -0.9779  0.4818 -0.8553
18518TIP3   OH277044   3.337   4.234  12.047  0.1421  0.0995  0.1594
18518TIP3    H177045   3.354   4.235  11.952  1.7187  0.5704  0.4150
18518TIP3    H277046   3.305   4.146  12.064  2.8624 -1.1129 -0.3885
18519TIP3   OH277047   3.851   6.700   0.317 -0.1828 -0.0734 -0.2041
18519TIP3    H177048   3.941   6.718   0.289  0.2577  2.2599  2.2953
18519TIP3    H277049   3.859   6.636   0.387 -0.4009  0.5125  0.3641
18520TIP3   OH277050   2.802   3.955  13.180 -0.0689  0.5477  0.2737
18520TIP3    H177051   2.736   3.890  13.203  0.1659 -0.1181 -0.8552
18520TIP3    H277052   2.757   4.039  13.190 -0.9801  0.1252 -0.1391
18521TIP3   OH277053   5.075   2.842  14.768 -0.1193  0.3128 -0.1804
18521TIP3    H177054   5.008   2.818  14.704  2.3609 -0.1447 -2.7810
18521TIP3    H277055   5.069   2.774  14.836 -0.6682 -1.1516 -1.6478
18522TIP3   OH277056   0.345   3.169  12.736  0.0506 -0.0014  0.1631
18522TIP3    H177057   0.389   3.090  12.707 -1.2653 -0.8520  0.3877
18522TIP3    H277058   0.390   3.193  12.817 -0.2536 -1.1875  0.7057
18523TIP3   OH277059   2.059   5.667  16.228  0.7337 -0.0678  0.5669
18523TIP3    H177060   2.005   5.612  16.171  1.8875  0.7996 -1.4661
18523TIP3    H277061   2.110   5.606  16.280  0.0211 -0.9001  0.3156
18524TIP3   OH277062   6.134   6.156   0.933 -0.1116  0.2210  0.1721
18524TIP3    H177063   6.178   6.152   1.018  1.8436  0.0780 -0.7921
18524TIP3    H277064   6.181   6.224   0.885 -0.0626 -0.8656 -1.3836
18525TIP3   OH277065   1.150   3.364  11.630 -0.3537  1.1010  0.6120
18525TIP3    H177066   1.088   3.332  11.696 -0.1478 -0.5549  0.0442
18525TIP3    H277067   1.108   3.441  11.592 -0.6504  1.8669  2.3740
18526TIP3   OH277068   0.214   3.253   2.156  0.2046  0.1992 -0.3042
18526TIP3    H177069   0.227   3.292   2.243  0.3212  0.9399 -0.6466
18526TIP3    H277070   0.294   3.204   2.140  0.2100  0.1098 -0.0251
18527TIP3   OH277071   1.331   1.514   6.797  0.4245  0.1334  0.0688
18527TIP3    H177072   1.245   1.472   6.805  0.8399 -0.6416  0.4610
18527TIP3    H277073   1.343   1.524   6.703 -0.8265  1.7881  0.0271
18528TIP3   OH277074   2.207   1.170  15.700 -0.2315 -0.0283 -0.2464
18528TIP3    H177075   2.205   1.079  15.671 -0.0640 -0.0409 -0.2161
18528TIP3    H277076   2.114   1.195  15.707 -0.3426 -0.8382  1.7885
18529TIP3   OH277077   0.527   6.267  11.508  0.4418 -0.3832 -0.5118
18529TIP3    H177078   0.492   6.198  11.452 -1.2115  0.7104 -0.9061
18529TIP3    H277079   0.621   6.250  11.513  0.4994 -1.0228 -2.9107
18530TIP3   OH277080   2.938   5.760   5.863 -0.7477 -0.1735  0.0394
18530TIP3    H177081   2.910   5.839   5.908  1.2556  1.0408 -0.6900
18530TIP3    H277082   2.879   5.752   5.788 -1.8203 -0.1911  0.8556
18531TIP3   OH277083   5.866   3.224  16.131  0.8273  0.6414 -0.8185
18531TIP3    H177084   5.929   3.286  16.095 -0.8293  1.2752 -2.8154
18531TIP3    H277085   5.787   3.275  16.144  0.4618 -0.3003  0.9354
18532TIP3   OH277086   0.459   3.196   3.019 -0.3752  0.8582  0.5473
18532TIP3    H177087   0.375   3.236   3.041 -0.1741  0.5097  2.0646
18532TIP3    H277088   0.509   3.200   3.100  0.4897 -0.3708  0.1035
18533TIP3   OH277089   6.159   5.219   5.600 -0.3426 -0.2996  0.1121
18533TIP3    H177090   6.080   5.214   5.546 -0.3913 -0.5011  0.2008
18533TIP3    H277091   6.184   5.128   5.613  0.1523 -0.2283 -0.2822
18534TIP3   OH277092   0.169   4.516   6.003 -0.0875 -0.1494  0.1259
18534TIP3    H177093   0.113   4.502   6.080 -0.2619  0.8040  0.1757
18534TIP3    H277094   0.233   4.445   6.008 -0.0975 -0.1053  1.1557
18535TIP3   OH277095   6.143   4.214   2.934  0.0939  0.3451 -0.8218
18535TIP3    H177096   6.076   4.263   2.981  2.0073  0.6420  1.8235
18535TIP3    H277097   6.153   4.133   2.983  1.2457  0.0539 -1.4974
18536TIP3   OH277098   1.969   1.033  16.724  0.2780  0.3683 -0.4838
18536TIP3    H177099   1.936   1.033  16.814 -1.2093  1.2705 -0.9753
18536TIP3    H277100   2.031   1.105  16.721 -1.4647  1.9534 -0.7107
18537TIP3   OH277101   0.996   6.775  14.802  0.3123 -0.6639 -0.2752
18537TIP3    H177102   0.907   6.801  14.780  0.2164  1.8227  2.5237
18537TIP3    H277103   0.987   6.685  14.834 -0.8617 -1.0306 -1.4927
18538TIP3   OH277104   6.450   2.777   2.666  0.1536  0.3023  0.3169
18538TIP3    H177105   6.520   2.716   2.643 -2.0029 -1.9983 -0.5889
18538TIP3    H277106   6.446   2.837   2.592  2.5410  1.9684  1.3793
18539TIP3   OH277107   1.249   6.601  13.828  0.6248 -0.6616 -0.4646
18539TIP3    H177108   1.302   6.521  13.834  0.3646 -0.8670 -0.8134
18539TIP3    H277109   1.221   6.604  13.736  0.8136 -0.0492 -0.5038
18540TIP3   OH277110   5.070   6.682   5.121  0.1425  0.5044 -0.1472
18540TIP3    H177111   5.057   6.659   5.213  2.6098 -1.5996 -0.2126
18540TIP3    H277112   5.163   6.700   5.114 -0.2333  2.0525 -2.0142
18541TIP3   OH277113   1.893   5.770   5.088 -0.7000 -0.0584  0.3491
18541TIP3    H177114   1.806   5.733   5.070 -0.4940 -0.6510  0.5393
18541TIP3    H277115   1.951   5.722   5.029 -0.6030  0.8951 -0.3614
18542TIP3   OH277116   4.889   2.013   3.971 -0.2017  0.8940  0.2502
18542TIP3    H177117   4.969   2.018   4.023  0.2163 -2.5637  0.1224
18542TIP3    H277118   4.919   2.024   3.880 -0.0886  0.9039  0.2887
18543TIP3   OH277119   5.654   5.787   0.182  0.1342 -0.2894 -0.4333
18543TIP3    H177120   5.658   5.829   0.097  0.8644  1.5693  0.4766
18543TIP3    H277121   5.600   5.709   0.168  1.1019 -0.5964 -2.8015
18544TIP3   OH277122   4.278   4.198  12.310 -0.0678  0.2497  0.2022
18544TIP3    H177123   4.278   4.117  12.258 -0.2403  1.6519 -2.1127
18544TIP3    H277124   4.221   4.257  12.262  1.2049  2.2389  1.0222
18545TIP3   OH277125   3.901   5.531   3.697  0.0669  0.0620 -0.0550
18545TIP3    H177126   3.939   5.443   3.699  0.3511  0.0566 -2.3424
18545TIP3    H277127   3.852   5.534   3.615 -1.5533  1.4261  0.9039
18546TIP3   OH277128   3.235   2.618   6.409  1.0263  0.0472  0.4017
18546TIP3    H177129   3.300   2.560   6.449  0.4570 -0.2109  0.9634
18546TIP3    H277130   3.188   2.562   6.347  1.0260  0.1161  0.3395
18547TIP3   OH277131   0.906   1.933  11.199  0.4434  0.0144 -0.3756
18547TIP3    H177132   0.815   1.960  11.190  0.3219 -0.0351  0.6159
18547TIP3    H277133   0.902   1.840  11.219  0.6131  0.3215  1.2448
18548TIP3   OH277134   2.734   1.592  12.289  0.3581  0.1712 -0.3103
18548TIP3    H177135   2.650   1.547  12.287  0.6925 -0.5214  0.7603
18548TIP3    H277136   2.719   1.669  12.344  0.2528  0.4312 -0.6954
18549TIP3   OH277137   5.060   2.303   2.521 -0.2511  0.5430  0.4773
18549TIP3    H177138   5.054   2.382   2.467 -1.0973  0.9942  1.2042
18549TIP3    H277139   5.147   2.308   2.560  0.5615 -0.0170 -1.1430
18550TIP3   OH277140   1.872   4.017  13.259 -0.3755 -0.3565  0.2415
18550TIP3    H177141   1.881   3.986  13.169  0.6076 -0.4149  0.3431
18550TIP3    H277142   1.958   4.001  13.298 -0.9239 -0.7635  1.3279
18551TIP3   OH277143   0.022   0.822   5.645 -0.4145  0.0543  0.3031
18551TIP3    H177144   0.018   0.899   5.702  3.5652 -0.6142  1.8402
18551TIP3    H277145   0.023   0.858   5.556 -1.7503  1.4793  0.8167
18552TIP3   OH277146   0.381   2.477  13.305  0.2772 -0.1964  0.2040
18552TIP3    H177147   0.358   2.545  13.242  0.3924 -0.7872 -0.4947
18552TIP3    H277148   0.475   2.462  13.291  0.2037 -0.6534  0.1876
18553TIP3   OH277149   3.974   2.832  14.694  0.7288 -0.2315  0.4363
18553TIP3    H177150   4.028   2.808  14.619  2.2631 -0.9043  1.6708
18553TIP3    H277151   3.957   2.925  14.683  2.1535  0.0021 -0.0376
18554TIP3   OH277152   6.144   1.695   4.678 -0.0004  0.5730 -0.0780
18554TIP3    H177153   6.217   1.752   4.651 -0.6348  0.8297 -1.3547
18554TIP3    H277154   6.133   1.712   4.771  1.9095  0.1275  0.2651
18555TIP3   OH277155   1.096   2.575   6.274 -0.0985  0.2528 -0.2165
18555TIP3    H177156   1.040   2.645   6.243 -0.1403 -0.3746 -1.6775
18555TIP3    H277157   1.042   2.496   6.267 -0.3392  0.1424  2.2046
18556TIP3   OH277158   1.192   3.610   2.919 -0.0289 -0.3901 -0.1117
18556TIP3    H177159   1.166   3.690   2.873  1.9689 -0.4524 -1.5116
18556TIP3    H277160   1.199   3.545   2.850  0.7914 -1.1096  0.6298
18557TIP3   OH277161   2.721   3.807   5.861  0.0074 -0.1534 -0.0979
18557TIP3    H177162   2.781   3.784   5.932  0.1810  0.8709  0.1022
18557TIP3    H277163   2.718   3.729   5.806  1.2653 -0.3445  0.0783
18558TIP3   OH277164   5.130   1.630  14.746 -0.2615 -0.0788 -0.4919
18558TIP3    H177165   5.219   1.636  14.782  0.0349  0.8982 -1.3259
18558TIP3    H277166   5.074   1.666  14.814  0.1856  0.8931 -0.6265
18559TIP3   OH277167   6.798   1.769   6.293 -0.4978  0.0158 -0.1341
18559TIP3    H177168   6.866   1.703   6.276 -0.1082  0.1987  0.6891
18559TIP3    H277169   6.835   1.851   6.261 -1.0988 -0.1811 -1.4317
18560TIP3   OH277170   6.101   0.591   1.057 -0.3383 -0.1419  0.1651
18560TIP3    H177171   6.066   0.678   1.044  1.8858  0.5146 -2.3729
18560TIP3    H277172   6.159   0.599   1.133  2.0319  1.4854 -1.6419
18561TIP3   OH277173   4.454   5.627  10.818 -0.1570  0.3001 -0.2419
18561TIP3    H177174   4.403   5.546  10.816  0.2784  0.0362 -0.9887
18561TIP3    H277175   4.414   5.679  10.888 -0.8602 -0.2802 -0.2031
18562TIP3   OH277176   2.796   2.968  15.357  0.5745  0.0459 -0.3344
18562TIP3    H177177   2.717   3.012  15.386  0.1484 -2.7632  3.4547
18562TIP3    H277178   2.766   2.898  15.299  0.2277 -0.7403  0.7538
18563TIP3   OH277179   1.320   3.579   1.855 -0.1173  0.3207  0.3491
18563TIP3    H177180   1.228   3.554   1.841  0.2734 -0.5650 -0.7341
18563TIP3    H277181   1.366   3.548   1.778  0.7011  3.0946 -0.4150
18564TIP3   OH277182   1.255   6.584   1.905 -0.8601 -0.7095  0.3490
18564TIP3    H177183   1.221   6.502   1.940 -1.2872 -0.8569 -0.3847
18564TIP3    H277184   1.179   6.642   1.903 -0.5480 -0.2750  0.9110
18565TIP3   OH277185   1.039   2.172  16.934  0.3550  0.0291 -1.1064
18565TIP3    H177186   1.045   2.099  16.996  1.8607  0.3383 -0.8466
18565TIP3    H277187   0.998   2.135  16.856 -0.9817 -0.5259 -0.1778
18566TIP3   OH277188   4.723   3.840  15.261  0.8000  0.1514 -0.0976
18566TIP3    H177189   4.793   3.781  15.287  0.2782 -0.2906  0.3431
18566TIP3    H277190   4.709   3.897  15.336 -0.1170 -0.5543  0.2890
18567TIP3   OH277191   0.797   4.847  15.514  0.2025  0.0289 -0.4321
18567TIP3    H177192   0.792   4.815  15.604  0.7912 -0.5026 -0.5766
18567TIP3    H277193   0.890   4.840  15.491 -0.0373 -0.5411 -1.3149
18568TIP3   OH277194   3.026   2.272   6.140  0.4150 -0.0731 -0.1763
18568TIP3    H177195   2.966   2.206   6.174 -0.3798  1.3531  1.3229
18568TIP3    H277196   3.113   2.243   6.168  0.1278 -0.7472  0.0118
18569TIP3   OH277197   5.214   6.557  10.591  0.2947  0.2658 -0.2045
18569TIP3    H177198   5.293   6.505  10.602 -0.6082 -0.8238  1.5836
18569TIP3    H277199   5.154   6.501  10.543 -0.5073 -0.1948  1.2896
18570TIP3   OH277200   5.758   4.540   5.814  0.3453  0.3097  0.2679
18570TIP3    H177201   5.832   4.498   5.858  0.9022  0.6907 -0.3036
18570TIP3    H277202   5.681   4.499   5.854  0.8327  0.6258  1.5712
18571TIP3   OH277203   6.835   0.123  13.271  0.1577  0.4023 -0.7822
18571TIP3    H177204   6.904   0.187  13.289  1.1521 -0.9598  0.5990
18571TIP3    H277205   6.871   0.068  13.202  0.4238 -0.2039 -0.1798
18572TIP3   OH277206   4.823   6.633   1.826  0.2085  0.3898  0.3048
18572TIP3    H177207   4.896   6.583   1.788 -1.4718 -1.6241 -0.5129
18572TIP3    H277208   4.783   6.677   1.751  0.0931  0.8328  0.6216
18573TIP3   OH277209   3.714   6.504  15.610 -0.9419  0.6503  0.8369
18573TIP3    H177210   3.781   6.560  15.570 -0.2959  0.5992  1.8075
18573TIP3    H277211   3.755   6.417  15.613 -2.1551 -0.0528 -1.1978
18574TIP3   OH277212   3.828   1.593   2.099 -0.0753  0.4769  0.0605
18574TIP3    H177213   3.908   1.597   2.048 -0.4127  0.7652 -0.4518
18574TIP3    H277214   3.831   1.670   2.156  0.9013 -0.4956  1.4072
18575TIP3   OH277215   6.777   5.608  13.271 -0.2974 -0.0004  0.1711
18575TIP3    H177216   6.860   5.562  13.283  0.0457  0.4638 -0.3838
18575TIP3    H277217   6.716   5.540  13.241  0.2487 -0.0753 -0.8273
18576TIP3   OH277218   0.587   4.323  16.524 -0.1564  0.2376  0.1717
18576TIP3    H177219   0.622   4.240  16.558 -0.3031  0.0849 -0.0468
18576TIP3    H277220   0.620   4.328  16.434  0.2582  0.6578  0.3445
18577TIP3   OH277221   3.330   5.983   2.649 -0.1698 -0.7829  0.1306
18577TIP3    H177222   3.358   5.897   2.617 -0.3098 -0.0746 -2.0349
18577TIP3    H277223   3.238   5.989   2.625  0.0554  0.2920 -0.5592
18578TIP3   OH277224   5.771   2.854   0.331 -0.0002  0.1505  0.7116
18578TIP3    H177225   5.693   2.810   0.367  0.8165 -0.7938  1.3703
18578TIP3    H277226   5.766   2.836   0.237 -0.3527 -0.2709  0.8057
18579TIP3   OH277227   0.098   5.345  13.802  0.1201  0.4895  0.3646
18579TIP3    H177228   0.010   5.320  13.775  0.4221 -1.5289  1.0843
18579TIP3    H277229   0.153   5.271  13.776  1.5090  1.4718  0.4323
18580TIP3   OH277230   1.832   1.369   4.821 -0.0694  0.4717 -0.0232
18580TIP3    H177231   1.907   1.363   4.763  0.5738  0.4095  0.8001
18580TIP3    H277232   1.837   1.290   4.875  0.3294  1.3553  1.2711
18581TIP3   OH277233   1.862   3.512   0.601  0.1684  0.0610  0.1089
18581TIP3    H177234   1.841   3.452   0.673  1.5730 -2.3682 -1.3623
18581TIP3    H277235   1.941   3.558   0.630 -0.3082  0.4363  0.8303
18582TIP3   OH277236   0.030   2.293   2.018 -0.0051  0.0570  0.4565
18582TIP3    H177237   0.111   2.259   2.056 -0.6570 -2.3985 -0.1261
18582TIP3    H277238  -0.036   2.274   2.085 -0.4770 -0.3563 -0.1146
18583TIP3   OH277239   2.806   6.378  13.765  0.1604 -0.3486 -0.6455
18583TIP3    H177240   2.722   6.334  13.772  0.8045 -2.1313 -2.9376
18583TIP3    H277241   2.842   6.378  13.854 -2.8140  1.8631  0.7317
18584TIP3   OH277242   4.113   5.447  16.878 -0.4005  0.0841 -0.1131
18584TIP3    H177243   4.170   5.520  16.902 -1.3713  0.8740 -0.1294
18584TIP3    H277244   4.165   5.395  16.817 -0.3168  1.8313 -1.6384
18585TIP3   OH277245   3.227   4.566   5.239 -0.0068 -0.5262  0.6752
18585TIP3    H177246   3.240   4.482   5.283 -1.0467 -1.2823 -0.4045
18585TIP3    H277247   3.151   4.552   5.182 -0.8614  1.4490  1.2408
18586TIP3   OH277248   3.359   3.124   1.341  0.0240 -0.5493  0.2541
18586TIP3    H177249   3.363   3.095   1.432 -1.1352  0.7905  0.7726
18586TIP3    H277250   3.341   3.218   1.348 -0.8247 -0.5752 -1.3753
18587TIP3   OH277251   0.781   0.230  12.636  0.1589  0.0274  0.4303
18587TIP3    H177252   0.716   0.197  12.698 -0.4350 -0.5708 -0.4779
18587TIP3    H277253   0.807   0.154  12.585  1.6388  0.2501  0.8107
18588TIP3   OH277254   5.802   2.100  15.353  0.0702  0.1460 -0.3818
18588TIP3    H177255   5.733   2.041  15.325  0.8337 -0.3130 -1.3567
18588TIP3    H277256   5.814   2.081  15.446 -1.0142  0.1506 -0.2311
18589TIP3   OH277257   5.575   2.440  13.083  0.2005 -0.1148  0.3009
18589TIP3    H177258   5.590   2.448  12.988  0.9424  0.6601  0.4709
18589TIP3    H277259   5.661   2.425  13.120 -0.1280 -0.7293  0.8392
18590TIP3   OH277260   3.196   2.115  15.870 -0.0447 -0.3010 -0.5426
18590TIP3    H177261   3.261   2.051  15.840  0.1816 -0.9258  1.1523
18590TIP3    H277262   3.229   2.199  15.839  0.5124 -0.8227 -1.4156
18591TIP3   OH277263   3.928   0.162  15.779 -0.3132  0.2109  0.4280
18591TIP3    H177264   3.892   0.158  15.868  1.8439  1.1057  1.4063
18591TIP3    H277265   3.955   0.072  15.760 -1.7984 -0.2218  0.1562
18592TIP3   OH277266   3.232   3.653   3.707 -0.2362  0.1339  0.1095
18592TIP3    H177267   3.195   3.566   3.718  0.6514 -0.1733  0.7224
18592TIP3    H277268   3.178   3.709   3.763 -0.5263 -0.0995  0.0639
18593TIP3   OH277269   4.080   0.399   3.978 -0.0267 -0.2281 -0.1950
18593TIP3    H177270   4.112   0.472   4.031 -2.2262 -0.8174  2.1842
18593TIP3    H277271   4.004   0.435   3.932 -0.9088 -0.8766  0.7179
18594TIP3   OH277272   1.184   2.233  16.270  0.7073  0.4987  0.1178
18594TIP3    H177273   1.089   2.231  16.282  0.7298 -0.5975  0.1908
18594TIP3    H277274   1.196   2.242  16.175  0.4933 -1.9078 -0.2054
18595TIP3   OH277275   2.942   2.490  14.333 -0.2956 -0.1615 -0.1350
18595TIP3    H177276   3.027   2.532  14.317 -0.6584  0.5545 -0.2201
18595TIP3    H277277   2.882   2.535  14.274 -0.8886 -0.1405  0.4750
18596TIP3   OH277278   1.564   5.944  15.911 -0.1459 -0.0274  0.5187
18596TIP3    H177279   1.500   6.005  15.873  2.9149  2.0701 -1.7913
18596TIP3    H277280   1.551   5.862  15.863 -0.5979  0.6103 -0.4885
18597TIP3   OH277281   6.184   4.899   3.624 -0.6146 -0.2693 -0.7197
18597TIP3    H177282   6.154   4.982   3.585  0.2510 -0.5522 -2.0550
18597TIP3    H277283   6.105   4.844   3.625 -0.8988  0.1174 -1.0728
18598TIP3   OH277284   3.656   0.639  11.083  0.2653  0.0934 -0.0573
18598TIP3    H177285   3.692   0.720  11.119 -0.2613  0.8304 -1.1365
18598TIP3    H277286   3.579   0.620  11.137  0.8247 -0.1231  0.6804
18599TIP3   OH277287   6.319   0.924   2.235 -0.8362  0.2960 -0.1505
18599TIP3    H177288   6.279   1.004   2.200 -0.3427 -0.1585 -1.8565
18599TIP3    H277289   6.280   0.853   2.185 -0.3875 -0.4319  0.5091
18600TIP3   OH277290   1.323   0.607   6.143  0.2764 -0.1191 -0.6095
18600TIP3    H177291   1.277   0.601   6.060  2.0941 -0.2995 -1.6575
18600TIP3    H277292   1.395   0.668   6.127  0.1239  0.5815  1.1088
18601TIP3   OH277293   0.243   4.537  10.349 -0.0139  0.1951 -0.1432
18601TIP3    H177294   0.155   4.559  10.380  0.1369  1.0369 -0.2878
18601TIP3    H277295   0.301   4.597  10.396  0.5682 -0.8141  0.4702
18602TIP3   OH277296   3.315   4.803   0.240 -0.4272 -0.3239  0.0583
18602TIP3    H177297   3.395   4.802   0.189 -0.2346  1.2581  0.2888
18602TIP3    H277298   3.313   4.718   0.284  1.4680 -0.1208  0.5883
18603TIP3   OH277299   5.295   2.020   0.803 -0.4036 -0.0795  0.4305
18603TIP3    H177300   5.386   2.022   0.832  0.3898  1.6385 -1.8490
18603TIP3    H277301   5.285   1.936   0.760  0.0567 -0.3387  0.8219
18604TIP3   OH277302   6.228   3.623  14.795  0.2098 -0.3033  0.2987
18604TIP3    H177303   6.312   3.589  14.764 -0.5282 -2.0096  0.0605
18604TIP3    H277304   6.198   3.558  14.859 -1.0048  0.1961  0.2602
18605TIP3   OH277305   5.290   1.752   3.509  0.6117  0.0188 -0.0974
18605TIP3    H177306   5.373   1.793   3.485 -0.0335 -0.0863 -2.8241
18605TIP3    H277307   5.309   1.659   3.511  0.3596 -0.1292 -2.0752
18606TIP3   OH277308   5.195   5.699  12.877 -0.2324  0.0863  0.2369
18606TIP3    H177309   5.248   5.624  12.905  2.3050  1.7622  0.3064
18606TIP3    H277310   5.226   5.719  12.789 -2.7770 -0.5140 -0.8602
18607TIP3   OH277311   5.449   4.289  16.961  0.4479 -0.0545  0.1051
18607TIP3    H177312   5.423   4.284  16.869  1.2799 -1.4610 -0.0863
18607TIP3    H277313   5.478   4.380  16.973 -1.0875  0.5603 -0.5922
18608TIP3   OH277314   6.019   3.360  16.832  0.2041 -0.3513  0.2203
18608TIP3    H177315   5.949   3.322  16.779 -1.0646 -0.8546  2.1322
18608TIP3    H277316   5.977   3.380  16.916  2.4631 -1.1790  1.6489
18609TIP3   OH277317   0.067   1.871  11.870  0.0039  0.1958  0.1212
18609TIP3    H177318   0.058   1.776  11.876  0.0988  0.2649  1.8596
18609TIP3    H277319   0.011   1.905  11.939  1.0449  1.3267  0.4505
18610TIP3   OH277320   1.041   4.814  15.303 -0.5243 -0.3599 -0.3543
18610TIP3    H177321   1.128   4.847  15.324 -0.7672 -1.3746  2.8082
18610TIP3    H277322   1.056   4.729  15.262 -0.0450  0.0627 -1.0739
18611TIP3   OH277323   0.271   2.456   0.200 -0.6652 -0.1493  0.4547
18611TIP3    H177324   0.255   2.520   0.269 -0.5242  0.3616  0.0199
18611TIP3    H277325   0.366   2.439   0.204 -0.4826  0.6055 -0.2185
18612TIP3   OH277326   2.031   6.036   0.648  0.0145  0.4381  0.0245
18612TIP3    H177327   1.980   6.070   0.574  1.3539 -0.0409 -1.1745
18612TIP3    H277328   1.998   5.947   0.660  0.3256  0.2401 -0.5356
18613TIP3   OH277329   1.907   5.909   2.083  0.1845 -0.4763  0.0862
18613TIP3    H177330   1.854   5.982   2.053 -2.2651 -1.3616  1.8952
18613TIP3    H277331   1.995   5.927   2.050 -0.7998  2.1044 -1.3705
18614TIP3   OH277332   4.938   5.308   0.026 -0.3344 -0.0236  0.0287
18614TIP3    H177333   4.874   5.361  -0.021  0.1365 -0.1510 -0.7963
18614TIP3    H277334   4.995   5.272  -0.044  2.8851  2.9372  0.8573
18615TIP3   OH277335   2.200   2.507  11.647 -0.2286  0.2788  0.6801
18615TIP3    H177336   2.188   2.443  11.577  1.7095 -0.4804  0.9754
18615TIP3    H277337   2.139   2.578  11.625 -0.7477 -0.6121 -0.9427
18616TIP3   OH277338   2.122   6.802  16.316  0.3753 -0.1135 -0.3173
18616TIP3    H177339   2.063   6.729  16.334  1.6241 -1.2271 -0.5429
18616TIP3    H277340   2.210   6.764  16.322  1.0779  1.4228 -0.2388
18617TIP3   OH277341   2.113   2.204   5.003 -0.2992 -0.0427  0.3177
18617TIP3    H177342   2.105   2.167   4.915  0.7435 -0.8552  0.5537
18617TIP3    H277343   2.057   2.150   5.058 -0.7125  0.2797  0.2250
18618TIP3   OH277344   6.704   3.639  15.831 -0.0710 -0.0660 -0.7906
18618TIP3    H177345   6.609   3.651  15.834  0.0754  1.3012 -1.1927
18618TIP3    H277346   6.722   3.574  15.899 -1.1526  0.6194  0.1877
18619TIP3   OH277347   5.446   0.950  11.407  0.6097  0.7993 -0.3586
18619TIP3    H177348   5.428   0.939  11.500  1.9030  0.5659 -0.1102
18619TIP3    H277349   5.486   0.866  11.381 -0.4551  0.5719 -1.3072
18620TIP3   OH277350   0.548   5.878   2.451 -0.3291  0.8462 -0.1404
18620TIP3    H177351   0.506   5.939   2.512  1.5122  0.5829  1.5155
18620TIP3    H277352   0.489   5.803   2.448 -0.4799  0.8735  1.3626
18621TIP3   OH277353   6.677   0.777   1.424  0.1555  0.3782  0.2114
18621TIP3    H177354   6.673   0.705   1.487  1.2720 -0.3393 -0.5106
18621TIP3    H277355   6.690   0.855   1.477  0.5014 -0.1425  0.9067
18622TIP3   OH277356   4.477   3.406   0.226  0.0224  0.6980 -0.0950
18622TIP3    H177357   4.468   3.486   0.279 -2.4964  0.4461 -0.0019
18622TIP3    H277358   4.486   3.336   0.291  2.4689  0.8454 -0.1796
18623TIP3   OH277359   5.650   6.402   3.693 -0.2938 -0.4601  0.0695
18623TIP3    H177360   5.733   6.395   3.741 -0.7795  0.3443  1.0562
18623TIP3    H277361   5.600   6.326   3.723  0.9459 -2.3672 -2.3597
18624TIP3   OH277362   6.585   3.826  13.752 -0.2159  0.1637  0.4166
18624TIP3    H177363   6.551   3.781  13.829 -1.0668 -0.5114 -0.3379
18624TIP3    H277364   6.529   3.797  13.680  2.3175 -1.4933 -1.0129
18625TIP3   OH277365   3.615   1.729   1.743  0.1461  0.6161 -0.7828
18625TIP3    H177366   3.652   1.775   1.818 -0.0964  1.1408 -0.9798
18625TIP3    H277367   3.521   1.748   1.746 -0.0071 -0.1052 -0.7048
18626TIP3   OH277368   0.777   1.551  17.007  0.2145  0.4515  0.0203
18626TIP3    H177369   0.845   1.619  17.008 -1.4823  2.2657  1.9812
18626TIP3    H277370   0.728   1.567  16.926  0.3622  1.0040  0.0373
18627TIP3   OH277371   1.835   3.311   3.256  0.1307  0.4132 -0.2790
18627TIP3    H177372   1.802   3.234   3.209  0.5323 -0.1447  0.3317
18627TIP3    H277373   1.764   3.374   3.251 -0.5250 -0.2973 -0.0976
18628TIP3   OH277374   4.909   2.954  15.932 -0.0299  0.0106  0.0825
18628TIP3    H177375   4.960   2.948  16.013  0.8812 -0.3986 -0.5101
18628TIP3    H277376   4.958   2.902  15.868 -2.0199 -1.8119 -0.0884
18629TIP3   OH277377   1.234   0.384   4.992  0.2213  0.0641  0.1660
18629TIP3    H177378   1.175   0.385   4.917  0.0768 -3.1128  0.1022
18629TIP3    H277379   1.322   0.389   4.954  0.1016  0.3466 -0.0706
18630TIP3   OH277380   4.462   4.786   5.506  0.1371  0.7919 -0.1430
18630TIP3    H177381   4.528   4.758   5.569  0.4287  1.7327 -0.0099
18630TIP3    H277382   4.497   4.867   5.470 -0.7509  1.0730 -0.3912
18631TIP3   OH277383   5.102   6.330   5.632  0.6385  0.0496  0.4744
18631TIP3    H177384   5.021   6.381   5.620  0.6876  0.2145  0.8477
18631TIP3    H277385   5.083   6.271   5.705  0.8812  0.1412  0.6130
18632TIP3   OH277386   6.824   1.135   2.385  0.8725  0.1340  0.8608
18632TIP3    H177387   6.894   1.198   2.397  0.6454  0.7385 -0.7092
18632TIP3    H277388   6.795   1.148   2.295  0.1368 -1.5226  0.8101
18633TIP3   OH277389   6.684   5.379   3.607 -0.0232 -0.1739  0.0560
18633TIP3    H177390   6.705   5.470   3.630 -2.1878  0.3903  0.0751
18633TIP3    H277391   6.723   5.366   3.521 -1.7552  1.6639 -1.0844
18634TIP3   OH277392   4.645   6.503   3.206  0.4010 -0.4436  0.2558
18634TIP3    H177393   4.553   6.525   3.191  0.6146  0.5144  0.3161
18634TIP3    H277394   4.664   6.536   3.294  1.0735  0.2926 -0.1516
18635TIP3   OH277395   0.323   1.220   2.745  0.2759  0.4879  0.1967
18635TIP3    H177396   0.359   1.292   2.693  1.3053  0.1486  0.4112
18635TIP3    H277397   0.234   1.209   2.713  0.2939  1.4766 -0.2347
18636TIP3   OH277398   6.293   0.962  13.724  0.3328  0.0059 -0.2473
18636TIP3    H177399   6.312   1.007  13.807  0.6896  0.3408 -0.5080
18636TIP3    H277400   6.332   0.875  13.735 -2.0479 -0.9902  1.0229
18637TIP3   OH277401   1.759   4.099   2.013 -0.4210  0.2560 -0.4871
18637TIP3    H177402   1.673   4.128   2.041  0.4602  2.7794 -0.0980
18637TIP3    H277403   1.769   4.136   1.925  1.1829  2.3791  0.4657
18638TIP3   OH277404   4.716   6.488  12.851  0.4880  0.2180 -0.1912
18638TIP3    H177405   4.767   6.488  12.771 -0.3511 -1.4484 -0.7581
18638TIP3    H277406   4.625   6.476  12.822 -0.0367  1.2276  0.9129
18639TIP3   OH277407   4.298   0.810   3.777  0.1943 -0.6980 -0.4982
18639TIP3    H177408   4.325   0.835   3.689 -0.0763 -1.1911 -0.7288
18639TIP3    H277409   4.228   0.871   3.799  2.5677  1.7418  0.7995
18640TIP3   OH277410   0.133   3.831   5.648 -0.0586 -0.6080 -0.1249
18640TIP3    H177411   0.104   3.863   5.733  1.9007  0.9824  0.0079
18640TIP3    H277412   0.090   3.888   5.585  1.7950  1.0230  0.0246
18641TIP3   OH277413   3.835   5.808  14.719 -0.4307 -0.9962 -0.6633
18641TIP3    H177414   3.880   5.763  14.648 -4.3404 -2.4123 -2.5282
18641TIP3    H277415   3.775   5.743  14.754 -0.3638  0.4101  2.4123
18642TIP3   OH277416   0.057   4.344   2.398  0.2606  0.5444  0.0754
18642TIP3    H177417   0.017   4.271   2.445  0.4966  0.4727  0.1669
18642TIP3    H277418   0.129   4.372   2.455  0.5364  0.4687 -0.2322
18643TIP3   OH277419   3.425   4.088   5.717 -0.0773 -0.0942 -0.3687
18643TIP3    H177420   3.381   4.160   5.762 -0.9397  0.9736 -2.7540
18643TIP3    H277421   3.363   4.015   5.723  0.1047 -0.1766  0.6809
18644TIP3   OH277422   2.722   0.601   5.112 -0.5385  0.3573  0.5281
18644TIP3    H177423   2.720   0.685   5.158 -2.6815  0.0025  1.1737
18644TIP3    H277424   2.793   0.552   5.154 -0.5242  1.1258  1.4276
18645TIP3   OH277425   2.406   5.397  12.322  0.3699 -0.1608  0.2377
18645TIP3    H177426   2.391   5.303  12.332 -2.2065  0.2941  1.4157
18645TIP3    H277427   2.435   5.425  12.409  0.4172  0.2498  0.0902
18646TIP3   OH277428   6.095   0.810   3.023  0.2234  0.4965 -0.0171
18646TIP3    H177429   6.115   0.767   2.940  0.6529 -0.6685  0.6757
18646TIP3    H277430   6.179   0.843   3.054  0.0286  1.1220 -0.1340
18647TIP3   OH277431   0.896   4.347   1.705  0.2381 -0.3758  0.4508
18647TIP3    H177432   0.814   4.355   1.657 -0.4294 -0.6038  1.5006
18647TIP3    H277433   0.876   4.381   1.792  1.2396 -0.5085  0.7509
18648TIP3   OH277434   0.928   6.092   6.455  0.0916  0.0805  0.0828
18648TIP3    H177435   0.843   6.054   6.478 -0.1668 -0.8238 -2.1114
18648TIP3    H277436   0.916   6.186   6.469 -1.9111  0.1876 -1.8293
18649TIP3   OH277437   2.978   2.850   6.323 -0.2573 -1.1392  0.3726
18649TIP3    H177438   2.912   2.848   6.392  0.3407 -0.0683  1.0051
18649TIP3    H277439   2.947   2.918   6.263 -0.1160 -1.1752  0.2595
18650TIP3   OH277440   4.213   3.049   0.398 -0.2802 -0.0527  0.1723
18650TIP3    H177441   4.211   2.999   0.480  2.0814 -1.1247 -0.3488
18650TIP3    H277442   4.129   3.029   0.357 -1.1634 -0.1501  1.9313
18651TIP3   OH277443   6.141   0.284   3.583  0.3288 -0.0098 -0.1599
18651TIP3    H177444   6.073   0.345   3.553  0.7901  2.0260  2.5369
18651TIP3    H277445   6.096   0.228   3.648  0.4223 -1.1762 -1.0594
18652TIP3   OH277446   5.533   4.045   0.486  0.0941 -0.3529 -0.3980
18652TIP3    H177447   5.473   4.052   0.412 -0.6000  2.1424  0.2976
18652TIP3    H277448   5.478   4.060   0.563  1.5654  2.2223  0.2547
18653TIP3   OH277449   0.761   3.804  14.578  0.1348 -0.7407  0.0307
18653TIP3    H177450   0.812   3.741  14.629  2.8953  0.6293 -0.7912
18653TIP3    H277451   0.825   3.872  14.555 -2.3305  1.5777 -0.4101
18654TIP3   OH277452   6.512   0.678  10.718  0.2011 -0.3280  0.4687
18654TIP3    H177453   6.438   0.621  10.738  0.0465  0.3966  2.1367
18654TIP3    H277454   6.475   0.745  10.660  0.3750 -1.8287 -1.4688
18655TIP3   OH277455   5.915   3.264  14.261 -0.4976 -0.3815  0.3480
18655TIP3    H177456   5.921   3.168  14.261  0.0833 -0.3482  0.8859
18655TIP3    H277457   5.881   3.285  14.174  1.7080 -0.9419 -0.7217
18656TIP3   OH277458   6.568   2.689   2.080 -0.1690 -0.2422 -0.0296
18656TIP3    H177459   6.661   2.709   2.080  0.2499 -1.9541  1.4514
18656TIP3    H277460   6.562   2.600   2.046 -1.4602  0.4547 -1.7287
18657TIP3   OH277461   6.180   4.998   6.000  0.6785  0.1833 -0.4856
18657TIP3    H177462   6.142   5.046   6.074 -0.1768 -1.2568  0.0474
18657TIP3    H277463   6.201   4.912   6.036  0.9449 -0.2981 -1.7476
18658TIP3   OH277464   3.416   0.615   1.585  0.4086  0.3731 -0.8235
18658TIP3    H177465   3.401   0.599   1.492 -0.4612 -0.1621 -0.5996
18658TIP3    H277466   3.355   0.685   1.607  1.4627  1.3634 -0.9095
18659TIP3   OH277467   1.653   0.868  12.328  0.0392  0.0199 -0.2740
18659TIP3    H177468   1.620   0.782  12.301 -1.7808  0.4975  0.3174
18659TIP3    H277469   1.712   0.849  12.400 -2.2340 -0.6416  1.5217
18660TIP3   OH277470   3.316   1.567   6.773 -0.7552  0.2675  0.0715
18660TIP3    H177471   3.403   1.600   6.753 -0.8587  0.6825  0.2971
18660TIP3    H277472   3.332   1.486   6.822 -0.4848 -1.4316 -2.6580
18661TIP3   OH277473   1.624   0.963  11.794  0.2901 -0.0375  0.1487
18661TIP3    H177474   1.687   1.019  11.749  1.3182 -0.8228  0.5591
18661TIP3    H277475   1.673   0.926  11.867 -1.0689  0.4540  1.3660
18662TIP3   OH277476   6.662   6.452  16.884 -0.5935 -0.3226 -0.3318
18662TIP3    H177477   6.711   6.392  16.827 -1.0983 -1.1469  0.0929
18662TIP3    H277478   6.648   6.403  16.965 -1.3774  0.2173 -0.1299
18663TIP3   OH277479   5.467   4.604  14.372  0.0841  0.0923  0.0903
18663TIP3    H177480   5.540   4.550  14.343  0.5510  0.7560  0.0168
18663TIP3    H277481   5.430   4.556  14.446 -1.6270 -2.0535 -1.9831
18664TIP3   OH277482   2.406   4.400  12.690 -0.1466 -0.1326 -0.2701
18664TIP3    H177483   2.389   4.430  12.600 -1.0961  0.2931  0.0440
18664TIP3    H277484   2.366   4.314  12.694 -0.3942 -0.0114 -0.1537
18665TIP3   OH277485   0.118   2.321   3.301  0.2358 -0.0419 -0.2017
18665TIP3    H177486   0.113   2.315   3.205 -0.9763  1.8159 -0.3097
18665TIP3    H277487   0.139   2.232   3.330  1.4786 -0.4763 -2.2283
18666TIP3   OH277488   3.705   6.834  11.866  0.6491  0.1612 -0.1401
18666TIP3    H177489   3.615   6.823  11.836  0.6268 -2.4280  0.6860
18666TIP3    H277490   3.699   6.827  11.961  1.5223  1.9699  0.0902
18667TIP3   OH277491   1.113   3.754  12.171  0.1190  0.5484  0.2202
18667TIP3    H177492   1.106   3.661  12.153  2.4426  0.3590 -0.0305
18667TIP3    H277493   1.065   3.767  12.253  0.3289 -0.9905  0.6067
18668TIP3   OH277494   6.469   6.201   6.149 -0.7216  0.1533  0.3609
18668TIP3    H177495   6.468   6.285   6.105 -0.3899  1.1722  2.2052
18668TIP3    H277496   6.377   6.184   6.169 -0.5770  1.5734  2.5791
18669TIP3   OH277497   4.295   6.125  11.521  0.0264 -0.0781  0.0631
18669TIP3    H177498   4.247   6.087  11.447  0.5053  0.9948 -0.8313
18669TIP3    H277499   4.385   6.097  11.508  0.0771 -0.0383  0.3387
18670TIP3   OH277500   0.666   6.433   5.942  0.2220 -0.0971  0.2339
18670TIP3    H177501   0.697   6.423   6.032 -0.5273  0.2549  0.5410
18670TIP3    H277502   0.687   6.350   5.899  1.5446  0.1064  0.4301
18671TIP3   OH277503   6.575   1.503  13.117  0.3772  0.1484  0.5570
18671TIP3    H177504   6.518   1.568  13.158  1.3802  1.1051  0.4862
18671TIP3    H277505   6.664   1.535  13.134  0.8881 -1.0580  0.2695
18672TIP3   OH277506   1.943   3.169  13.198 -0.4988  0.5975  0.3295
18672TIP3    H177507   2.010   3.237  13.210 -0.4943  0.5016  0.8710
18672TIP3    H277508   1.889   3.174  13.276 -0.5308  0.0142  0.3519
18673TIP3   OH277509   0.696   1.552  11.814 -0.0916 -0.7982 -0.3112
18673TIP3    H177510   0.677   1.617  11.747 -3.4964 -1.1019  0.1760
18673TIP3    H277511   0.665   1.592  11.895  0.8684 -1.7453  0.5550
18674TIP3   OH277512   5.167   0.306  13.332  0.4397  0.2714 -0.1182
18674TIP3    H177513   5.240   0.322  13.272  0.3972 -1.4772 -0.7213
18674TIP3    H277514   5.209   0.290  13.417  0.7297 -0.1298 -0.3304
18675TIP3   OH277515   4.841   3.728  14.077  0.1467  0.1811 -0.1788
18675TIP3    H177516   4.936   3.741  14.071 -0.0234  1.9065  0.3301
18675TIP3    H277517   4.803   3.810  14.045 -1.1013  0.3656  1.5825
18676TIP3   OH277518   5.375   1.100   0.248 -0.2301 -0.3115  0.2783
18676TIP3    H177519   5.446   1.055   0.203  1.7713  0.6863  2.2914
18676TIP3    H277520   5.334   1.153   0.180  0.2774 -1.6248 -1.1243
18677TIP3   OH277521   1.639   4.337  16.352  0.5626 -0.8342 -0.3881
18677TIP3    H177522   1.697   4.390  16.298  1.8669 -2.2704 -0.4502
18677TIP3    H277523   1.599   4.275  16.291 -1.1769  0.1913 -0.3673
18678TIP3   OH277524   3.236   2.290  14.973 -0.0251  0.1367 -0.5033
18678TIP3    H177525   3.173   2.294  14.901  1.2717  3.1602 -1.6528
18678TIP3    H277526   3.207   2.358  15.034  1.1803  0.4868 -0.2865
18679TIP3   OH277527   4.121   1.405  11.224 -0.1824 -0.3306  0.2804
18679TIP3    H177528   4.182   1.418  11.151 -0.2351 -0.5120  0.2040
18679TIP3    H277529   4.046   1.359  11.185 -0.4408  0.0346  0.3382
18680TIP3   OH277530   1.984   6.248  14.800  0.3626  0.0857  0.4901
18680TIP3    H177531   1.913   6.202  14.754  0.1421  0.8069  0.1017
18680TIP3    H277532   2.059   6.243  14.741  0.5721 -0.4602  0.7937
18681TIP3   OH277533   2.603   3.022  11.634  0.6081  0.1500  0.5443
18681TIP3    H177534   2.520   2.981  11.610  0.9115 -2.2310  3.0225
18681TIP3    H277535   2.668   2.980  11.579  0.5493 -0.5388  0.9913
18682TIP3   OH277536   4.239   1.527  14.638  0.6308  0.0063 -0.1237
18682TIP3    H177537   4.312   1.522  14.575  0.2948 -1.0245 -0.4522
18682TIP3    H277538   4.239   1.441  14.681 -2.2320 -1.2074 -2.2507
18683TIP3   OH277539   3.887   5.971  12.607  0.3281 -0.0507 -0.1169
18683TIP3    H177540   3.957   5.958  12.544 -0.2476  3.1119 -1.5991
18683TIP3    H277541   3.838   5.889  12.606  0.5784 -0.3114 -3.5404
18684TIP3   OH277542   4.717   2.010  14.944  0.1754 -0.3509 -0.3651
18684TIP3    H177543   4.811   2.028  14.946  0.5351 -1.9130 -1.5225
18684TIP3    H277544   4.711   1.914  14.942 -1.5398 -0.4288  2.5101
18685TIP3   OH277545   5.527   2.554   1.230 -0.2000 -0.3425  0.9462
18685TIP3    H177546   5.592   2.611   1.271  1.3920 -2.4351  1.4876
18685TIP3    H277547   5.543   2.563   1.136 -0.8653  1.0638  0.9431
18686TIP3   OH277548   4.413   0.848  12.298  0.0214 -0.2865 -0.0950
18686TIP3    H177549   4.382   0.900  12.372  2.3847  2.2817 -0.7501
18686TIP3    H277550   4.382   0.895  12.221  0.3889 -1.0746 -0.7404
18687TIP3   OH277551   4.042   2.001   0.249 -0.7013  0.3846  0.4822
18687TIP3    H177552   4.009   1.911   0.250 -1.4019  0.6100  2.9253
18687TIP3    H277553   4.129   1.994   0.289 -0.3653  0.6981 -0.1709
18688TIP3   OH277554   4.281   4.074  11.635 -0.3015  0.6552  0.0130
18688TIP3    H177555   4.374   4.053  11.620 -0.6689  0.4115 -2.4377
18688TIP3    H277556   4.274   4.085  11.729  2.1565  0.3464  0.3152
18689TIP3   OH277557   6.697   0.107   0.313  0.3394  0.1328 -0.1669
18689TIP3    H177558   6.626   0.044   0.308 -0.6783  1.3317 -1.7855
18689TIP3    H277559   6.663   0.185   0.270  2.4135  0.9684 -0.4174
18690TIP3   OH277560   2.194   6.283   2.317 -0.7433 -0.2185 -0.7165
18690TIP3    H177561   2.283   6.300   2.287 -0.4562 -1.8434 -0.8581
18690TIP3    H277562   2.189   6.323   2.404 -0.0516  0.2973 -0.9054
18691TIP3   OH277563   5.615   0.724  14.296 -0.1632  0.4652  0.2972
18691TIP3    H177564   5.590   0.715  14.204  1.8264  2.2153 -0.4973
18691TIP3    H277565   5.564   0.656  14.341  0.6051 -2.1187 -2.4043
18692TIP3   OH277566   3.235   4.185   1.288 -0.4632  0.3750  0.6846
18692TIP3    H177567   3.268   4.113   1.341 -1.6146 -0.5310  0.2165
18692TIP3    H277568   3.313   4.226   1.251  0.1654 -2.0251 -0.8633
18693TIP3   OH277569   4.923   3.958  15.768 -0.1052 -0.3894 -0.2036
18693TIP3    H177570   4.859   3.974  15.699  1.8508  0.3008 -1.9756
18693TIP3    H277571   4.872   3.922  15.841 -2.1345 -2.2305 -2.3775
18694TIP3   OH277572   5.211   5.690   5.902 -0.3551 -0.0844  0.0013
18694TIP3    H177573   5.167   5.764   5.945 -0.4864  0.0212 -0.3100
18694TIP3    H277574   5.297   5.725   5.878 -0.0804 -0.3042  0.6497
18695TIP3   OH277575   6.419   0.966   6.529 -0.2121 -0.3314 -0.2164
18695TIP3    H177576   6.482   0.912   6.578 -0.5381 -0.6643 -0.1616
18695TIP3    H277577   6.361   0.903   6.487 -0.7262 -0.0188  0.0190
18696TIP3   OH277578   2.561   2.463   2.794  0.1829 -0.8793  0.0217
18696TIP3    H177579   2.525   2.438   2.879  0.5490  0.5042  0.6112
18696TIP3    H277580   2.484   2.473   2.738 -0.4648  1.9168  1.2373
18697TIP3   OH277581   5.941   4.225   3.583  0.4895 -0.3147 -0.9265
18697TIP3    H177582   6.034   4.224   3.607  0.4908 -0.8164 -0.9435
18697TIP3    H277583   5.896   4.247   3.665  0.5572 -1.1282 -0.6564
18698TIP3   OH277584   2.283   1.478  12.129  0.4518 -0.0834 -0.4594
18698TIP3    H177585   2.361   1.459  12.180 -0.5014 -1.5286  0.5370
18698TIP3    H277586   2.216   1.499  12.195 -0.0909  0.8415 -1.2748
18699TIP3   OH277587   3.356   6.081   3.289  0.7589 -0.1528 -0.0001
18699TIP3    H177588   3.450   6.097   3.288  0.7066  0.4062  1.7050
18699TIP3    H277589   3.340   6.030   3.209  2.2387  1.1036 -1.1720
18700TIP3   OH277590   4.476   4.316  16.638 -0.2121 -0.3504  0.2540
18700TIP3    H177591   4.386   4.283  16.634 -0.6600  0.9348 -1.0518
18700TIP3    H277592   4.495   4.344  16.548  1.3215 -0.1533  0.6185
18701TIP3   OH277593   5.174   4.692   2.447 -0.0734  0.5901 -0.2977
18701TIP3    H177594   5.085   4.703   2.480  0.3629  1.6734  0.5851
18701TIP3    H277595   5.166   4.630   2.375 -1.1794 -1.3401  1.4069
18702TIP3   OH277596   0.227   3.564   3.216  0.3299 -0.8419 -0.2549
18702TIP3    H177597   0.132   3.577   3.211  0.0799 -0.1818  3.3336
18702TIP3    H277598   0.264   3.644   3.180 -0.6305  0.2899  1.1334
18703TIP3   OH277599   5.326   0.690   1.686 -0.2942 -0.0231  0.0450
18703TIP3    H177600   5.267   0.621   1.654 -1.9659  1.8389 -1.0688
18703TIP3    H277601   5.281   0.726   1.763 -0.1626  0.8134 -0.2711
18704TIP3   OH277602   0.355   4.683  14.725 -0.0639 -0.3340  0.0396
18704TIP3    H177603   0.308   4.643  14.798  1.3582 -0.8563  0.7283
18704TIP3    H277604   0.437   4.633  14.720  0.7719  1.0276 -0.5657
18705TIP3   OH277605   1.279   2.907   0.397 -0.1015  0.3525 -0.3342
18705TIP3    H177606   1.353   2.851   0.421 -0.9148 -0.3657  0.5419
18705TIP3    H277607   1.266   2.964   0.472 -1.9216 -1.1234  0.5270
18706TIP3   OH277608   3.479   4.699   1.787 -0.6272  0.5759 -0.1651
18706TIP3    H177609   3.420   4.736   1.721 -0.7885  2.0492  0.7621
18706TIP3    H277610   3.563   4.742   1.771 -0.7146  1.0932  0.6827
18707TIP3   OH277611   4.661   1.091  11.028 -0.3019  0.1073 -0.2750
18707TIP3    H177612   4.745   1.093  11.073 -1.0934  0.3265  1.2809
18707TIP3    H277613   4.681   1.060  10.940  1.4823  0.7914 -0.1450
18708TIP3   OH277614   3.148   0.341  16.892 -0.2132  0.2824  0.3701
18708TIP3    H177615   3.101   0.390  16.825  0.3148  0.8746  0.4249
18708TIP3    H277616   3.145   0.397  16.970  1.4383  0.8195  0.1001
18709TIP3   OH277617   1.392   1.438  16.753 -0.0553 -0.0823 -0.1654
18709TIP3    H177618   1.349   1.386  16.821  2.8345 -1.8289  0.5160
18709TIP3    H277619   1.442   1.504  16.801 -1.6525  1.7959 -0.9320
18710TIP3   OH277620   2.896   5.592  11.888 -0.4408 -0.9213 -0.7789
18710TIP3    H177621   2.858   5.575  11.802 -0.4062  0.4300 -1.0767
18710TIP3    H277622   2.820   5.593  11.947 -0.8378  1.0902 -1.2672
18711TIP3   OH277623   0.200   6.722   1.460 -0.0265 -0.0075 -0.2135
18711TIP3    H177624   0.229   6.812   1.478 -0.7358  0.4347 -1.1705
18711TIP3    H277625   0.151   6.729   1.378 -0.1951 -1.2571 -0.2355
18712TIP3   OH277626   6.676   0.209   0.595 -0.2860 -0.2291  0.0674
18712TIP3    H177627   6.730   0.276   0.554 -1.7355  0.9601  0.0470
18712TIP3    H277628   6.590   0.220   0.556 -0.5347 -2.2606 -0.0941
18713TIP3   OH277629   6.099   4.974  14.136 -0.4970 -0.4171 -0.3489
18713TIP3    H177630   6.014   4.958  14.177 -0.2172 -0.6002  0.1716
18713TIP3    H277631   6.113   4.899  14.078 -0.7047 -0.3698 -0.4595
18714TIP3   OH277632   0.237   0.293   0.753  0.2561  0.2048  0.0801
18714TIP3    H177633   0.295   0.359   0.791  1.6743 -1.3748  0.7801
18714TIP3    H277634   0.265   0.210   0.793 -0.0481 -1.1574 -2.3108
18715TIP3   OH277635   5.300   6.766  12.376 -0.3618 -0.1972 -0.3857
18715TIP3    H177636   5.227   6.827  12.366  0.3426  0.6394 -0.5162
18715TIP3    H277637   5.363   6.812  12.430  0.7632 -0.2663 -1.5923
18716TIP3   OH277638   3.839   3.742   2.695  0.1797  0.5596 -0.0876
18716TIP3    H177639   3.914   3.756   2.636  0.7884  2.6096  1.0889
18716TIP3    H277640   3.860   3.660   2.740  0.0333 -0.6944 -2.1414
18717TIP3   OH277641   5.784   3.764  10.794  0.3137 -0.5401  0.7616
18717TIP3    H177642   5.799   3.851  10.832 -1.4183  0.0786  0.1167
18717TIP3    H277643   5.694   3.767  10.762  0.1470 -2.6567  0.9049
18718TIP3   OH277644   6.731   2.827  11.416 -0.4272  0.1489 -0.2039
18718TIP3    H177645   6.774   2.896  11.468 -0.8810 -0.1096  0.5228
18718TIP3    H277646   6.751   2.746  11.463 -1.8402  0.0406  0.2285
18719TIP3   OH277647   1.076   2.429  15.666  0.4005 -0.4131  0.1896
18719TIP3    H177648   1.077   2.512  15.618  2.1703 -1.1660 -1.2074
18719TIP3    H277649   0.985   2.399  15.659  0.8132 -1.3229 -4.3817
18720TIP3   OH277650   2.784   3.312  15.377  0.1641 -0.0465  0.1700
18720TIP3    H177651   2.829   3.244  15.327 -0.2089 -1.0837  1.1990
18720TIP3    H277652   2.846   3.337  15.445  0.1315  0.3479  0.0603
18721TIP3   OH277653   5.991   1.118  13.774 -0.4827 -0.1791  0.2865
18721TIP3    H177654   5.976   1.025  13.755 -2.0135  0.0948  0.0007
18721TIP3    H277655   6.033   1.153  13.696  1.0257 -0.8176  0.7787
18722TIP3   OH277656   2.373   2.788   2.775  0.2781  0.1099 -0.0670
18722TIP3    H177657   2.323   2.827   2.704  1.5987 -1.5048 -2.0068
18722TIP3    H277658   2.333   2.702   2.788  0.7983 -0.0786  0.3180
18723TIP3   OH277659   2.512   3.555  11.669 -0.1111 -0.5165 -0.2295
18723TIP3    H177660   2.557   3.606  11.737  0.2621 -0.9551 -0.1453
18723TIP3    H277661   2.534   3.599  11.587 -1.4427  0.6729  0.0006
18724TIP3   OH277662   6.128   2.870  10.013  0.2442  0.1863  0.6075
18724TIP3    H177663   6.187   2.944  10.001 -1.0044  1.1806  0.2935
18724TIP3    H277664   6.071   2.872   9.936 -0.7064 -0.2397  1.2816
18725TIP3   OH277665   5.310   2.655  15.049 -0.5558 -0.1850 -0.1014
18725TIP3    H177666   5.345   2.654  14.959 -0.5444 -0.8570 -0.0975
18725TIP3    H277667   5.217   2.675  15.038 -0.6226 -0.5849 -0.2922
18726TIP3   OH277668   4.115   2.605  11.914 -0.2475 -0.5414  0.3068
18726TIP3    H177669   4.208   2.609  11.895 -0.6367 -0.8923 -1.9160
18726TIP3    H277670   4.075   2.570  11.834 -2.2538 -0.6865  1.3016
18727TIP3   OH277671   3.792   5.089   0.464 -0.4277 -0.0637 -0.1125
18727TIP3    H177672   3.859   5.157   0.460 -0.0014 -0.5105 -1.1860
18727TIP3    H277673   3.711   5.133   0.441 -0.0826  0.0328 -1.2419
18728TIP3   OH277674   0.046   4.970   4.143  0.2158 -0.0579 -0.0042
18728TIP3    H177675  -0.032   5.024   4.135  0.0134 -0.2560  0.5926
18728TIP3    H277676   0.092   5.005   4.220  0.6070 -0.0782 -0.2234
18729TIP3   OH277677   5.686   6.833   2.328 -0.3966  0.2765  0.1952
18729TIP3    H177678   5.674   6.925   2.303 -1.2704 -0.1780 -1.1328
18729TIP3    H277679   5.716   6.790   2.247  0.4345 -0.5389  0.9115
18730TIP3   OH277680   2.252   1.017  12.752  0.0103  0.3120 -0.7124
18730TIP3    H177681   2.229   1.097  12.798  0.7652 -0.4050  0.9947
18730TIP3    H277682   2.293   0.962  12.818 -0.9016 -1.6874 -1.7165
18731TIP3   OH277683   6.255   5.459   6.124  0.3047 -0.4049  0.0287
18731TIP3    H177684   6.340   5.435   6.162  1.6700 -3.4117 -4.2561
18731TIP3    H277685   6.268   5.548   6.091  0.9522  0.0472  1.4161
18732TIP3   OH277686   3.589   5.160  15.319 -0.4380  0.9094 -0.1166
18732TIP3    H177687   3.587   5.254  15.337 -0.4889  0.7095  0.9946
18732TIP3    H277688   3.682   5.136  15.325 -0.4191  0.8966 -0.4459
18733TIP3   OH277689   1.251   1.867   3.645  0.1964  0.4676  0.7413
18733TIP3    H177690   1.218   1.781   3.617 -2.1196 -0.0701  4.4874
18733TIP3    H277691   1.182   1.928   3.619  0.5143  0.7573  0.5819
18734TIP3   OH277692   3.929   4.976  11.385 -0.3727  0.9245  0.2849
18734TIP3    H177693   3.994   4.948  11.450 -0.9508 -0.0644  0.4541
18734TIP3    H277694   3.952   4.928  11.306 -1.3644 -0.0634  0.5717
18735TIP3   OH277695   4.959   1.710   3.336 -0.6015 -0.2499  0.7715
18735TIP3    H177696   4.871   1.739   3.310 -0.1556  0.6206  0.1958
18735TIP3    H277697   4.944   1.629   3.385 -1.6558 -0.6474 -0.1623
18736TIP3   OH277698   1.635   6.803  16.888  0.5082 -0.1110 -0.3295
18736TIP3    H177699   1.650   6.715  16.924  1.4565 -0.3654 -1.2796
18736TIP3    H277700   1.546   6.798  16.852  0.3807 -0.5349  0.0219
18737TIP3   OH277701   1.506   4.534   3.988 -0.2938  0.2366 -0.5957
18737TIP3    H177702   1.496   4.592   4.064 -2.2179  0.3868 -0.9264
18737TIP3    H277703   1.464   4.452   4.013 -1.5120  0.4915 -1.6781
18738TIP3   OH277704   4.317   2.671  15.303  0.1993  0.0412  0.1611
18738TIP3    H177705   4.355   2.697  15.220  0.8533 -0.6491  0.2311
18738TIP3    H277706   4.372   2.599  15.333  0.7909  1.1420  1.8400
18739TIP3   OH277707   2.887   1.250  15.563 -0.5739  0.6152 -0.0841
18739TIP3    H177708   2.797   1.275  15.587 -0.9961 -0.7347 -0.2140
18739TIP3    H277709   2.897   1.281  15.473 -0.6517  1.3819  0.1571
18740TIP3   OH277710   3.098   6.280  13.414  0.3490  0.2031 -0.3441
18740TIP3    H177711   3.148   6.200  13.397 -0.9208 -0.1399 -3.1347
18740TIP3    H277712   3.007   6.253  13.409 -0.1848  1.2643  2.2251
18741TIP3   OH277713   0.719   5.217  11.945 -0.0289 -0.2540  0.4317
18741TIP3    H177714   0.747   5.299  11.903  0.8667  0.3498  2.1351
18741TIP3    H277715   0.798   5.183  11.986 -1.0958 -0.0933  2.7791
18742TIP3   OH277716   4.425   6.687  10.636  0.3867  0.2684 -0.2423
18742TIP3    H177717   4.480   6.758  10.603  1.6561 -0.5569  0.0418
18742TIP3    H277718   4.448   6.679  10.728 -0.8180  0.4336  0.0952
18743TIP3   OH277719   6.343   2.465  11.469  0.0418  0.1389  0.1696
18743TIP3    H177720   6.389   2.402  11.524 -0.5930  0.2107  0.8037
18743TIP3    H277721   6.360   2.437  11.379  1.0758  0.0063  0.4016
18744TIP3   OH277722   5.663   6.567  14.572  0.0250  0.5687  0.6965
18744TIP3    H177723   5.634   6.637  14.631 -1.4135  1.2105 -0.6947
18744TIP3    H277724   5.600   6.497  14.584  0.0844  0.4552  0.3657
18745TIP3   OH277725   0.942   2.119  10.555 -0.0092 -0.1275 -0.0694
18745TIP3    H177726   0.938   2.035  10.602  0.3971  0.6950  1.4868
18745TIP3    H277727   1.018   2.164  10.592 -1.4447  1.8220  0.6703
18746TIP3   OH277728   4.785   1.052  16.513  0.3704  0.2277  0.1860
18746TIP3    H177729   4.825   0.969  16.537  0.6718  0.0289 -0.9809
18746TIP3    H277730   4.859   1.110  16.496  0.1609  0.6906  0.7959
18747TIP3   OH277731   4.440   3.439  11.112 -0.2056  0.3231 -0.4830
18747TIP3    H177732   4.392   3.428  11.193 -0.3443  0.3945 -0.5567
18747TIP3    H277733   4.377   3.417  11.043 -0.6444  2.0326 -0.6726
18748TIP3   OH277734   2.021   5.640  16.897  0.3167 -0.5612  0.0757
18748TIP3    H177735   2.078   5.604  16.829  0.0723 -1.7916  0.4892
18748TIP3    H277736   1.982   5.717  16.858 -0.1771 -1.5065 -1.3639
18749TIP3   OH277737   5.509   4.016   1.831 -0.4464  0.1949 -0.2288
18749TIP3    H177738   5.424   4.000   1.789  0.1886 -1.5760 -0.9263
18749TIP3    H277739   5.487   4.061   1.912 -1.9813  0.5350 -0.7923
18750TIP3   OH277740   5.412   6.243   2.494 -0.1590  0.2459  0.1946
18750TIP3    H177741   5.500   6.271   2.467  0.4451 -0.6048  1.1947
18750TIP3    H277742   5.421   6.223   2.587 -1.6521  1.0169  0.5333
18751TIP3   OH277743   5.286   1.222  12.720 -0.9201  0.1820 -0.9290
18751TIP3    H177744   5.262   1.315  12.714 -1.5042  0.0981 -0.0568
18751TIP3    H277745   5.241   1.181  12.646 -2.3603  0.2643 -0.1391
18752TIP3   OH277746   5.062   1.440  10.543 -0.5308 -0.0355 -1.1025
18752TIP3    H177747   4.989   1.500  10.529  1.2259  2.0487 -1.7576
18752TIP3    H277748   5.080   1.445  10.637 -0.8578 -0.1414 -1.0305
18753TIP3   OH277749   1.448   1.107  12.620  0.0123  0.6027 -0.1527
18753TIP3    H177750   1.508   1.128  12.691 -1.3310  0.4612  1.0669
18753TIP3    H277751   1.489   1.145  12.542  0.8187  2.0302  0.9176
18754TIP3   OH277752   5.356   5.041   5.022  0.5491 -0.1415 -0.1855
18754TIP3    H177753   5.315   5.108   5.076 -0.9544  0.8794 -2.4505
18754TIP3    H277754   5.300   4.964   5.032  1.1398 -0.4631  0.8344
18755TIP3   OH277755   6.653   2.986   1.366  0.3085 -0.0552  0.3312
18755TIP3    H177756   6.637   2.896   1.393  1.2654 -0.5826 -0.7642
18755TIP3    H277757   6.580   3.006   1.307 -0.3812  0.2094  1.2536
18756TIP3   OH277758   1.531   1.105  16.119 -0.0014  0.1395  0.2564
18756TIP3    H177759   1.582   1.100  16.200 -0.2791  0.8874  0.4912
18756TIP3    H277760   1.464   1.172  16.138 -1.0035 -0.7488 -0.0778
18757TIP3   OH277761   6.024   1.645  11.466  0.3017 -0.0807  0.7050
18757TIP3    H177762   5.959   1.621  11.532  0.9910  1.7590  2.1505
18757TIP3    H277763   6.102   1.594  11.489  0.7092  0.9514  1.6845
18758TIP3   OH277764   0.457   6.362  14.596  0.4840 -0.3226  0.3273
18758TIP3    H177765   0.463   6.458  14.590  0.8777 -0.4102 -0.9056
18758TIP3    H277766   0.547   6.333  14.609  0.3932 -0.5467  0.4606
18759TIP3   OH277767   5.605   1.834   5.315  0.1018 -0.1693 -0.6928
18759TIP3    H177768   5.683   1.793   5.353  0.5942  1.7525  0.4850
18759TIP3    H277769   5.549   1.760   5.291  1.7462 -1.5676 -0.4373
18760TIP3   OH277770   2.521   1.684   1.640 -0.0249  0.5214 -0.1993
18760TIP3    H177771   2.564   1.601   1.660 -0.4744  0.6829  1.7119
18760TIP3    H277772   2.536   1.737   1.718 -1.4545  1.5062 -0.5604
18761TIP3   OH277773   3.511   0.029  12.657  0.0138  0.1136  0.2198
18761TIP3    H177774   3.598   0.065  12.674  0.5662 -1.0055 -0.1069
18761TIP3    H277775   3.511   0.010  12.563 -0.1044 -1.0549  0.4331
18762TIP3   OH277776   2.370   0.836  11.605 -0.1305  1.1352  0.4247
18762TIP3    H177777   2.354   0.742  11.614 -1.3199  1.3458  0.7181
18762TIP3    H277778   2.329   0.874  11.682  1.9681  1.7570  1.3038
18763TIP3   OH277779   0.856   1.159  13.019 -0.3497  0.0528  0.5010
18763TIP3    H177780   0.889   1.133  13.106  0.4309  0.0168  0.2047
18763TIP3    H277781   0.765   1.131  13.019 -0.3714  0.1003  1.3348
18764TIP3   OH277782   1.505   6.022  16.466  0.0034  0.1609 -0.2608
18764TIP3    H177783   1.562   5.998  16.393 -0.5897 -0.2501 -0.5981
18764TIP3    H277784   1.510   5.947  16.525  0.5198  0.5135  0.1506
18765TIP3   OH277785   4.482   3.902   0.254  0.4452 -0.0027 -0.1550
18765TIP3    H177786   4.530   3.984   0.249 -1.9961  1.4574 -1.5598
18765TIP3    H277787   4.437   3.895   0.169 -1.1191 -1.6870  0.7372
18766TIP3   OH277788   0.514   3.674   2.510  0.6674  0.4574  0.0797
18766TIP3    H177789   0.570   3.655   2.586  0.0285  0.3592  0.5296
18766TIP3    H277790   0.485   3.764   2.523  1.3761  0.8037 -0.5872
18767TIP3   OH277791   6.642   4.048   3.394 -0.2153 -0.4106 -0.3654
18767TIP3    H177792   6.639   4.106   3.318 -3.2184 -0.9264 -0.7459
18767TIP3    H277793   6.687   4.100   3.461  0.1359  1.0665 -1.6706
18768TIP3   OH277794   3.658   1.465  15.951  0.0292  0.5322  0.2275
18768TIP3    H177795   3.709   1.545  15.965 -0.9864  1.1611  0.4321
18768TIP3    H277796   3.691   1.431  15.868  0.7771  0.9222  0.3478
18769TIP3   OH277797   3.239   4.218   4.225 -0.3960 -0.6099 -0.4304
18769TIP3    H177798   3.287   4.289   4.184  1.1563 -0.3148  1.7317
18769TIP3    H277799   3.196   4.258   4.301 -0.7556 -1.6740 -0.0534
18770TIP3   OH277800   6.627   6.483   2.532  0.0205 -0.0037  0.1193
18770TIP3    H177801   6.557   6.529   2.486  0.1298 -0.2552 -0.2939
18770TIP3    H277802   6.708   6.515   2.492  0.1783  0.6386  0.9050
18771TIP3   OH277803   0.670   4.169  15.413  0.3205 -0.7733  0.1225
18771TIP3    H177804   0.596   4.230  15.413  1.8983  1.2723 -1.2122
18771TIP3    H277805   0.633   4.086  15.381 -1.2618  0.3819 -1.2031
18772TIP3   OH277806   2.633   0.202   5.268 -0.5298 -0.7130  0.3802
18772TIP3    H177807   2.701   0.135   5.266 -1.4495 -1.6721  0.3293
18772TIP3    H277808   2.578   0.178   5.343 -1.5126 -0.6675 -0.3084
18773TIP3   OH277809   5.949   4.077   2.307  0.3022  0.0445 -0.2909
18773TIP3    H177810   5.973   4.133   2.381  2.2168 -0.3617 -0.5487
18773TIP3    H277811   5.966   4.131   2.230 -1.2275  0.2982 -0.4779
18774TIP3   OH277812   1.316   2.880  16.833  0.3092 -0.4558  0.0035
18774TIP3    H177813   1.335   2.822  16.759  0.3627 -1.1295  0.5356
18774TIP3    H277814   1.304   2.821  16.907 -2.5015 -0.0415 -0.0003
18775TIP3   OH277815   3.482   0.003   0.231 -1.1029 -0.1129  0.3882
18775TIP3    H177816   3.464   0.097   0.243  0.7596  0.2636  0.5829
18775TIP3    H277817   3.577  -0.002   0.224 -1.2940 -1.6920 -2.4113
18776TIP3   OH277818   2.685   3.493  15.132  0.1226  0.0068 -0.3579
18776TIP3    H177819   2.739   3.508  15.209 -1.4510  0.6470  0.6537
18776TIP3    H277820   2.649   3.405  15.144 -2.7835  1.2915  1.4209
18777TIP3   OH277821   0.426   3.760  12.373 -0.6568 -0.6734  0.1122
18777TIP3    H177822   0.473   3.682  12.343  0.0266 -0.4859  0.6866
18777TIP3    H277823   0.490   3.831  12.368 -1.7416  0.2721 -2.1578
18778TIP3   OH277824   6.722   0.389  11.968  0.5092 -0.3929  0.1232
18778TIP3    H177825   6.735   0.295  11.957 -0.5883 -0.7095  1.3177
18778TIP3    H277826   6.717   0.402  12.062  0.7585  0.8959 -0.0230
18779TIP3   OH277827   2.412   6.183   3.879  0.6713 -0.1864 -0.0251
18779TIP3    H177828   2.357   6.259   3.897 -1.3656 -2.0902  2.5490
18779TIP3    H277829   2.351   6.116   3.848  2.5492 -0.6192 -3.2376
18780TIP3   OH277830   3.821   1.922  13.234 -0.1918  0.5127 -0.4694
18780TIP3    H177831   3.864   2.008  13.237  1.8583 -0.4906  0.5663
18780TIP3    H277832   3.827   1.896  13.142  2.0424  0.1374 -0.2571
18781TIP3   OH277833   5.410   5.784  12.352  0.3364  0.3760 -0.1238
18781TIP3    H177834   5.327   5.818  12.387 -0.4537 -1.5075 -0.0511
18781TIP3    H277835   5.394   5.776  12.258 -0.1663 -1.4443  0.0778
18782TIP3   OH277836   3.380   5.679  14.590  0.1193 -0.8575  0.0215
18782TIP3    H177837   3.434   5.757  14.604  0.8684 -0.8115 -2.7034
18782TIP3    H277838   3.394   5.626  14.668  2.1386  0.2783  0.4946
18783TIP3   OH277839   0.949   5.134  15.445  0.4802 -0.4855  0.7189
18783TIP3    H177840   0.939   5.061  15.384  0.9800 -0.9305  1.1620
18783TIP3    H277841   0.867   5.183  15.438 -0.4400 -1.8683  1.4327
18784TIP3   OH277842   1.763   2.761   5.683  0.3668  0.4744  0.2602
18784TIP3    H177843   1.834   2.764   5.747  0.9775  1.6905 -0.4392
18784TIP3    H277844   1.740   2.668   5.677  1.5546  0.1258  0.8723
18785TIP3   OH277845   3.084   4.918   5.972 -0.6606  0.0926  0.5266
18785TIP3    H177846   3.168   4.961   5.981 -0.4211 -0.2441 -0.0789
18785TIP3    H277847   3.026   4.984   5.933  0.2532 -0.7313 -2.4523
18786TIP3   OH277848   5.560   4.889   3.657 -0.0979  0.3197  0.9278
18786TIP3    H177849   5.569   4.975   3.615 -1.0538  0.2786  0.6222
18786TIP3    H277850   5.619   4.832   3.607  0.6197  0.8122  1.1966
18787TIP3   OH277851   1.307   1.636  16.167  0.1994 -0.1874  0.7605
18787TIP3    H177852   1.218   1.611  16.194  1.0455 -0.7002  3.3306
18787TIP3    H277853   1.316   1.727  16.195  0.7791 -0.4205  1.3463
18788TIP3   OH277854   0.983   2.254   5.730 -0.0909 -0.4281  0.1274
18788TIP3    H177855   1.005   2.178   5.785  1.3868 -0.4907 -0.5004
18788TIP3    H277856   0.988   2.328   5.790 -2.4263 -0.8394  0.9655
18789TIP3   OH277857   2.468   4.503   5.562  0.0916 -0.5088 -0.0460
18789TIP3    H177858   2.528   4.502   5.487  0.7071 -1.2294  0.4431
18789TIP3    H277859   2.519   4.543   5.633 -1.5139  3.3218 -0.7748
18790TIP3   OH277860   0.200   4.805  14.159 -0.7435  0.3140 -0.2769
18790TIP3    H177861   0.239   4.892  14.156  1.9473 -0.7340  1.1036
18790TIP3    H277862   0.209   4.771  14.070 -1.3213  1.2334 -0.6922
18791TIP3   OH277863   2.412   4.253  14.544 -0.4676  0.0180  0.3570
18791TIP3    H177864   2.471   4.222  14.613 -0.7839 -0.6342  0.3398
18791TIP3    H277865   2.470   4.268  14.469 -0.0458  1.2292  0.9024
18792TIP3   OH277866   3.724   3.577   0.626 -0.2178  0.7260 -0.0828
18792TIP3    H177867   3.740   3.491   0.665 -0.3318  0.4148 -0.7133
18792TIP3    H277868   3.703   3.559   0.534  3.5486  1.6395 -1.3310
18793TIP3   OH277869   3.923   2.906   2.261  0.4760  0.0634  0.1482
18793TIP3    H177870   3.859   2.938   2.198 -1.1291  0.5891  1.9586
18793TIP3    H277871   3.883   2.826   2.296  1.3885 -0.2686  0.4538
18794TIP3   OH277872   3.301   1.196   3.565  0.1263  0.7973 -0.3634
18794TIP3    H177873   3.382   1.151   3.539  0.6118  1.5553 -0.1913
18794TIP3    H277874   3.296   1.181   3.659 -0.5918 -0.2799 -0.5545
18795TIP3   OH277875   0.632   6.409  10.416 -0.1730  0.3345 -0.3900
18795TIP3    H177876   0.554   6.363  10.445  0.8813 -0.7673  0.8912
18795TIP3    H277877   0.610   6.502  10.423 -1.0519  0.0541  0.9401
18796TIP3   OH277878   1.811   0.077   1.666 -0.3639  0.2268 -0.0047
18796TIP3    H177879   1.832  -0.015   1.676 -0.8088  0.0397 -0.6810
18796TIP3    H277880   1.895   0.121   1.656 -0.2058 -0.2783 -0.9678
18797TIP3   OH277881   6.085   4.948  14.969 -0.6511  0.6784  0.0380
18797TIP3    H177882   6.127   4.875  15.016  1.3434  1.7005 -0.0410
18797TIP3    H277883   6.090   5.022  15.029 -1.1361  1.1742 -0.5190
18798TIP3   OH277884   5.014   2.901  11.164 -0.3648 -0.0181  0.0491
18798TIP3    H177885   4.946   2.954  11.206  0.8334  2.9473 -1.5231
18798TIP3    H277886   4.977   2.877  11.079  1.1688  3.5587 -1.8178
18799TIP3   OH277887   4.206   1.751   2.897 -0.5463  0.2005 -0.5139
18799TIP3    H177888   4.225   1.838   2.932 -2.1572  0.1422  0.5806
18799TIP3    H277889   4.128   1.722   2.944 -0.8372 -1.2875 -1.8227
18800TIP3   OH277890   1.185   6.426   2.471  0.0267  0.1626 -0.1322
18800TIP3    H177891   1.110   6.398   2.524 -0.6822  0.5402 -0.9197
18800TIP3    H277892   1.162   6.401   2.381 -1.0501  3.8924 -1.0702
18801TIP3   OH277893   1.025   5.521   1.850 -0.1259 -0.2728 -0.0030
18801TIP3    H177894   1.093   5.555   1.791  0.8473 -0.2808  1.0752
18801TIP3    H277895   0.990   5.598   1.894  0.4224 -0.4164  0.7102
18802TIP3   OH277896   5.770   2.332   5.987  0.3052  0.2058  0.3513
18802TIP3    H177897   5.726   2.294   6.063 -0.5194  1.6020  0.6231
18802TIP3    H277898   5.791   2.258   5.931 -1.7606 -0.6024  0.5691
18803TIP3   OH277899   2.429   6.297   1.045 -0.0148  0.1351 -0.2012
18803TIP3    H177900   2.351   6.242   1.040 -0.3708  0.7199 -1.7299
18803TIP3    H277901   2.405   6.376   0.996  1.9062 -0.1384 -1.6772
18804TIP3   OH277902   1.954   3.688   3.210 -0.4050 -0.0743 -0.5438
18804TIP3    H177903   1.929   3.675   3.301  0.1385  0.3609 -0.3254
18804TIP3    H277904   1.876   3.726   3.169 -0.1137  1.3372  0.1419
18805TIP3   OH277905   4.609   0.167  14.566  0.3387 -0.5242 -0.3712
18805TIP3    H177906   4.517   0.147  14.583 -0.0085  1.5743  0.5966
18805TIP3    H277907   4.630   0.120  14.485 -2.1172  0.3702 -1.6198
18806TIP3   OH277908   1.933   1.657   2.041 -0.3491  0.1383  0.1555
18806TIP3    H177909   1.838   1.662   2.033 -0.3345  0.3165  0.0769
18806TIP3    H277910   1.961   1.749   2.039 -0.2834  0.1688  1.4693
18807TIP3   OH277911   1.380   4.853   2.196 -0.2999  0.3466 -0.6392
18807TIP3    H177912   1.418   4.819   2.115  2.6132 -0.0676  0.7610
18807TIP3    H277913   1.383   4.949   2.186  1.4878  0.3336 -0.4837
18808TIP3   OH277914   2.153   0.422  12.111  0.2443 -0.1644 -0.4018
18808TIP3    H177915   2.162   0.496  12.172 -2.1793  0.5836 -0.8450
18808TIP3    H277916   2.134   0.347  12.167  1.9424 -0.3295 -0.0032
18809TIP3   OH277917   1.557   1.786  13.625 -0.2146 -0.2572 -0.2203
18809TIP3    H177918   1.571   1.715  13.562  1.0263  0.3044 -0.6046
18809TIP3    H277919   1.621   1.771  13.693 -1.1080 -0.4717  0.5979
18810TIP3   OH277920   1.355   3.800   0.420 -0.5133 -0.2018 -1.0976
18810TIP3    H177921   1.447   3.775   0.427 -0.5474  0.0994  1.7169
18810TIP3    H277922   1.354   3.870   0.355  0.9854 -1.1848 -2.2394
18811TIP3   OH277923   5.300   5.771  10.457  0.0943 -0.2413  0.0852
18811TIP3    H177924   5.261   5.693  10.419  2.4403 -2.1150  1.2574
18811TIP3    H277925   5.369   5.795  10.396  1.1466 -0.7552  1.0512
18812TIP3   OH277926   4.719   1.930   3.407 -0.3089 -0.0975 -0.2884
18812TIP3    H177927   4.724   1.990   3.481 -3.6628  0.1971 -0.1669
18812TIP3    H277928   4.700   1.845   3.447  1.1935 -0.6591 -0.6788
18813TIP3   OH277929   4.871   3.290  11.084  0.1399  0.1862  0.1848
18813TIP3    H177930   4.838   3.205  11.112 -1.1480 -0.0421 -1.7977
18813TIP3    H277931   4.887   3.338  11.165  2.7937 -2.5514  1.4880
18814TIP3   OH277932   3.048   3.817  15.547  0.0028 -0.2448 -0.1542
18814TIP3    H177933   2.987   3.891  15.549 -0.5837 -0.7202 -0.2373
18814TIP3    H277934   3.097   3.823  15.629  0.5208  0.6915 -0.5142
18815TIP3   OH277935   2.939   6.406   1.797 -0.1827  0.3469  0.1423
18815TIP3    H177936   3.005   6.361   1.850  0.3281  0.7807 -0.1242
18815TIP3    H277937   2.940   6.496   1.828 -0.6053  0.3745  0.0875
18816TIP3   OH277938   3.999   3.664  15.627  0.9087 -0.1216 -0.7552
18816TIP3    H177939   3.990   3.755  15.602  0.0318  0.4226  1.3213
18816TIP3    H277940   4.081   3.660  15.676  0.2718 -0.1311  0.3383
18817TIP3   OH277941   1.937   6.073   2.347  0.6363  0.1200 -0.1240
18817TIP3    H177942   1.955   6.097   2.256  0.8685 -0.7368 -0.3078
18817TIP3    H277943   1.865   6.010   2.343  0.5975  0.1310  0.2920
18818TIP3   OH277944   6.580   4.251   5.618  0.0297  0.1646 -0.2054
18818TIP3    H177945   6.673   4.266   5.637 -0.2430  0.0478  1.3562
18818TIP3    H277946   6.561   4.309   5.546  1.2547  0.4055 -0.3597
18819TIP3   OH277947   4.827   3.776  13.690  0.3555 -0.0419 -0.3036
18819TIP3    H177948   4.878   3.779  13.771  2.0784 -1.5509 -1.2510
18819TIP3    H277949   4.859   3.850  13.639 -1.2075  1.3148  0.5997
18820TIP3   OH277950   1.373   6.517  15.001 -0.3086 -0.0831 -0.0515
18820TIP3    H177951   1.449   6.522  14.943 -1.8220  0.4022 -2.0990
18820TIP3    H277952   1.348   6.425  14.998  0.0516 -0.2047  0.4690
18821TIP3   OH277953   3.845   3.343  16.699  0.3608  0.2935  0.4573
18821TIP3    H177954   3.892   3.264  16.672  2.5146  1.7433 -0.3209
18821TIP3    H277955   3.810   3.379  16.617  0.2831  0.7017  0.6688
18822TIP3   OH277956   2.572   2.665  16.152 -0.1366 -0.2387  0.4313
18822TIP3    H177957   2.547   2.657  16.244 -0.1877  0.1359  0.4509
18822TIP3    H277958   2.657   2.709  16.154 -0.0827 -0.3357  0.3040
18823TIP3   OH277959   1.701   6.394   3.377 -0.2293  0.8139  0.7119
18823TIP3    H177960   1.748   6.466   3.336  0.9813 -0.6501 -0.5799
18823TIP3    H277961   1.609   6.410   3.357  0.3240 -0.2571 -3.4793
18824TIP3   OH277962   2.728   3.212   5.444  0.1469 -0.1822  0.0633
18824TIP3    H177963   2.713   3.215   5.349 -0.4334  0.9756  0.1729
18824TIP3    H277964   2.813   3.169   5.453  1.5318  2.0884 -1.1604
18825TIP3   OH277965   3.991   1.442  16.121  0.1411  0.1680  0.6739
18825TIP3    H177966   3.920   1.405  16.068 -0.8081 -1.0564  2.6812
18825TIP3    H277967   3.952   1.519  16.163  0.1281 -0.2448  1.4288
18826TIP3   OH277968   3.143   0.515  11.821  0.0022 -0.7124  0.3167
18826TIP3    H177969   3.110   0.430  11.791 -0.5377 -0.1903 -0.6135
18826TIP3    H277970   3.126   0.575  11.748 -0.3592  0.3763  1.2617
18827TIP3   OH277971   5.962   2.228  10.953  0.1408 -0.1477  0.1256
18827TIP3    H177972   6.004   2.179  10.882 -2.4455  0.2872 -1.8407
18827TIP3    H277973   6.007   2.312  10.955  2.2123 -1.2113  1.0971
18828TIP3   OH277974   0.957   6.419   3.775 -0.0198  0.2594 -0.3848
18828TIP3    H177975   0.921   6.480   3.839  1.2360 -0.1476  0.7877
18828TIP3    H277976   0.993   6.474   3.706  1.2021  0.8911  0.7150
18829TIP3   OH277977   5.357   5.998   0.604 -0.3755 -0.1095 -0.0946
18829TIP3    H177978   5.271   5.956   0.609 -0.7042  0.4183 -1.1070
18829TIP3    H277979   5.396   5.984   0.691 -2.2641  1.3217  1.0495
18830TIP3   OH277980   3.123   5.112   3.549 -0.3718  0.1402  0.9333
18830TIP3    H177981   3.198   5.172   3.546 -0.6435  0.4740  0.6943
18830TIP3    H277982   3.051   5.166   3.583 -0.2060 -0.5073  2.3916
18831TIP3   OH277983   5.884   2.940   5.422 -0.1292  0.4502 -0.3161
18831TIP3    H177984   5.807   2.902   5.464  0.8117 -0.2433  0.8294
18831TIP3    H277985   5.848   3.010   5.367 -1.4249  1.7687  2.0209
18832TIP3   OH277986   4.045   3.593  10.917  0.4098  0.4092 -0.0074
18832TIP3    H177987   4.138   3.607  10.904  0.4977  0.5312  0.7222
18832TIP3    H277988   4.003   3.639  10.844  0.9080  0.5876 -0.1815
18833TIP3   OH277989   2.797   1.625  16.628  0.3966  0.1056  0.2749
18833TIP3    H177990   2.861   1.585  16.568 -0.0496 -1.3165  0.6941
18833TIP3    H277991   2.836   1.708  16.653  0.4754  0.8957 -2.2011
18834TIP3   OH277992   0.426   2.711  11.835 -0.0982  0.3092 -0.0904
18834TIP3    H177993   0.347   2.753  11.803  0.4397  3.0700  1.8011
18834TIP3    H277994   0.396   2.626  11.869 -1.8767  0.5173 -1.0152
18835TIP3   OH277995   1.754   2.057  13.683 -0.0817  0.1013 -0.1654
18835TIP3    H177996   1.778   1.981  13.630 -1.2916  0.8856 -1.9173
18835TIP3    H277997   1.740   2.128  13.620 -0.3911  1.4175  1.3019
18836TIP3   OH277998   4.463   4.400   3.147 -0.9633  0.1684 -0.0095
18836TIP3    H177999   4.476   4.307   3.169  0.4143 -0.8560 -4.1187
18836TIP3    H278000   4.503   4.447   3.219  1.1760 -2.5828  0.8021
18837TIP3   OH278001   3.990   5.710   3.445  0.1632 -0.0331  0.3352
18837TIP3    H178002   3.940   5.785   3.414 -1.7512 -0.7791  1.4424
18837TIP3    H278003   3.939   5.634   3.417  3.2758 -1.1733 -2.9174
18838TIP3   OH278004   6.348   2.103  11.114 -0.1651 -0.0311 -0.4417
18838TIP3    H178005   6.379   2.122  11.026  1.4934 -1.1196 -0.1508
18838TIP3    H278006   6.386   2.172  11.169  0.3226 -0.3881 -0.3269
18839TIP3   OH278007   4.116   3.406  15.860  0.0824 -0.0558 -0.4858
18839TIP3    H178008   4.085   3.406  15.770 -0.3606 -0.7728 -0.3353
18839TIP3    H278009   4.170   3.327  15.867  0.1366  0.0113 -0.1295
18840TIP3   OH278010   4.520   1.434   0.364  0.3466 -0.2023 -0.1274
18840TIP3    H178011   4.503   1.523   0.333 -1.3216 -0.5147 -0.1966
18840TIP3    H278012   4.492   1.378   0.291  0.9751 -0.8146  0.0870
18841TIP3   OH278013   3.587   4.070   0.695 -0.3023 -0.2247 -0.5426
18841TIP3    H178014   3.530   4.140   0.662 -2.0649 -0.6765  1.3700
18841TIP3    H278015   3.539   3.990   0.678  0.7708 -0.8301 -0.8365
18842TIP3   OH278016   0.926   0.227   4.387 -0.0611 -0.3485 -0.1047
18842TIP3    H178017   0.898   0.166   4.318 -0.3488 -1.1180  0.6702
18842TIP3    H278018   0.921   0.313   4.346 -3.4184 -0.4091 -0.1260
18843TIP3   OH278019   6.237   3.811   2.783  0.2758  0.3507 -0.0365
18843TIP3    H178020   6.249   3.794   2.876  1.6617 -0.8107 -0.3928
18843TIP3    H278021   6.150   3.779   2.763  1.3645 -3.0253  0.1226
18844TIP3   OH278022   5.022   1.884  15.245 -0.5607 -0.2387  0.0530
18844TIP3    H178023   5.064   1.854  15.165  0.0893  0.3673  0.1557
18844TIP3    H278024   4.928   1.881  15.227 -0.4101  0.1409 -0.8182
18845TIP3   OH278025   4.825   0.005  15.023  0.0549 -0.5367 -0.3102
18845TIP3    H178026   4.865  -0.081  15.009  0.4554 -0.2408 -0.9918
18845TIP3    H278027   4.731  -0.013  15.027  0.2322 -1.3108  1.8307
18846TIP3   OH278028   4.075   5.449   4.334  0.0662  0.2835 -0.0313
18846TIP3    H178029   4.142   5.516   4.345  1.0556 -0.3719 -1.6470
18846TIP3    H278030   4.057   5.447   4.240  0.1587 -1.7628 -0.0590
18847TIP3   OH278031   3.243   4.196  14.601  0.0962 -0.6699  0.4019
18847TIP3    H178032   3.208   4.209  14.689 -0.9117  0.8822 -0.1989
18847TIP3    H278033   3.232   4.102  14.585  0.9691 -1.1326  2.1719
18848TIP3   OH278034   2.788   1.343   1.170 -0.6507 -0.1784  0.4339
18848TIP3    H178035   2.770   1.418   1.113  0.1248  1.7717  2.6056
18848TIP3    H278036   2.734   1.359   1.247  0.5839 -1.0968  1.5261
18849TIP3   OH278037   2.080   5.460   3.881  0.3376 -0.3023 -0.1741
18849TIP3    H178038   1.989   5.483   3.861  0.4677 -0.4069 -0.9110
18849TIP3    H278039   2.078   5.366   3.899  0.2550 -0.2460  0.1250
18850TIP3   OH278040   5.196   6.456  12.848  0.2238  0.2476  1.0633
18850TIP3    H178041   5.256   6.519  12.807 -0.2484  0.5710  0.8598
18850TIP3    H278042   5.180   6.493  12.935  0.7671 -0.1374  1.3311
18851TIP3   OH278043   3.092   2.991   5.654 -0.0346  0.0732 -0.8939
18851TIP3    H178044   3.077   2.898   5.664  1.4444  0.0195  1.5374
18851TIP3    H278045   3.165   3.011   5.713 -1.6195  3.1264  0.2577
18852TIP3   OH278046   0.967   1.056   1.737  0.2818 -0.4373 -0.8812
18852TIP3    H178047   0.878   1.085   1.713  0.4534  1.4669  0.5161
18852TIP3    H278048   1.023   1.092   1.668  0.3311  1.6562  0.1477
18853TIP3   OH278049   5.388   0.127  16.725 -0.5942 -0.0043  0.1145
18853TIP3    H178050   5.407   0.037  16.753  1.4596  1.3033  3.4981
18853TIP3    H278051   5.461   0.151  16.669  0.5650  0.4775  1.7582
18854TIP3   OH278052   0.018   2.005  11.440  0.2106 -0.0498 -0.2037
18854TIP3    H178053   0.113   1.994  11.438  0.2649  0.2730  0.3398
18854TIP3    H278054   0.005   2.093  11.475 -0.2815  0.0797 -0.7131
18855TIP3   OH278055   5.059   4.521   2.259 -0.0269 -0.4676 -0.4190
18855TIP3    H178056   5.079   4.493   2.170 -0.4713 -0.6865 -0.4521
18855TIP3    H278057   4.982   4.470   2.284 -0.4848  0.2873 -0.2540
18856TIP3   OH278058   1.672   5.398   2.244 -0.0684 -0.3712  0.5021
18856TIP3    H178059   1.730   5.474   2.238  2.3680 -1.9607  2.1183
18856TIP3    H278060   1.596   5.430   2.291  1.2269  0.9386  1.8250
18857TIP3   OH278061   4.631   0.040   0.278  0.1146  0.3982 -0.1872
18857TIP3    H178062   4.725   0.050   0.289  0.2249 -1.6474  1.2337
18857TIP3    H278063   4.595   0.050   0.366 -0.7384 -0.9797 -0.3462
18858TIP3   OH278064   4.812   2.819  12.703 -0.0881 -0.0082 -0.5922
18858TIP3    H178065   4.798   2.884  12.635  0.1235  1.8178  1.0141
18858TIP3    H278066   4.874   2.860  12.764 -3.1562  0.1754  2.7803
18859TIP3   OH278067   5.417   4.576  13.184 -0.1480 -0.0588  0.2984
18859TIP3    H178068   5.350   4.540  13.243 -0.7743  0.6574  0.0317
18859TIP3    H278069   5.368   4.601  13.106  0.5918 -0.4576 -0.2952
18860TIP3   OH278070   2.586   2.314  11.127 -0.0098 -0.0728  0.1486
18860TIP3    H178071   2.676   2.321  11.094 -0.9498  1.1304 -2.4624
18860TIP3    H278072   2.558   2.226  11.102  0.6682 -0.8048  1.7998
18861TIP3   OH278073   4.270   1.240  16.018  0.0123  0.1576  0.1815
18861TIP3    H178074   4.193   1.246  15.960 -0.2043 -0.1202  0.4389
18861TIP3    H278075   4.338   1.289  15.972  0.1989 -1.0247 -0.8917
18862TIP3   OH278076   6.739   5.262   5.416 -0.3375  0.3475 -0.2609
18862TIP3    H178077   6.726   5.334   5.354 -1.7952 -1.0969 -1.7349
18862TIP3    H278078   6.830   5.271   5.444 -0.1564  2.1036 -1.2311
18863TIP3   OH278079   1.744   2.929   2.510  0.1573 -0.5764 -0.1894
18863TIP3    H178080   1.677   2.968   2.566  0.2514 -2.2146  1.1059
18863TIP3    H278081   1.769   3.000   2.450 -2.5098  0.1520 -0.5461
18864TIP3   OH278082   0.992   4.989  15.729  0.5005 -0.7665 -0.5163
18864TIP3    H178083   0.993   5.047  15.653 -1.6596 -1.3659 -1.0838
18864TIP3    H278084   0.943   5.037  15.795  0.7932 -0.9814 -0.1411
18865TIP3   OH278085   1.779   6.503  16.954  0.3979  0.1293 -0.0444
18865TIP3    H178086   1.697   6.479  16.911 -0.1133  1.1693  0.3237
18865TIP3    H278087   1.753   6.528  17.043  1.2819 -0.7753  0.4963
18866TIP3   OH278088   2.604   4.497  10.932  0.2447  0.2389 -0.3811
18866TIP3    H178089   2.547   4.508  10.856 -0.5115  0.0707  0.1542
18866TIP3    H278090   2.593   4.405  10.956  1.3860 -0.0205 -0.7682
18867TIP3   OH278091   0.291   3.452  15.283  0.4506  0.1021 -0.5671
18867TIP3    H178092   0.310   3.432  15.191  0.9521 -1.2694 -0.1890
18867TIP3    H278093   0.195   3.445  15.289  0.5021 -0.9215 -0.7531
18868TIP3   OH278094   1.568   5.828   6.582 -0.5470 -0.1183 -0.0480
18868TIP3    H178095   1.662   5.827   6.598 -0.5291  0.1012 -0.1443
18868TIP3    H278096   1.546   5.920   6.568 -1.1714  0.1513  2.2964
18869TIP3   OH278097   3.334   6.828  14.160  0.1009  0.4356 -0.7005
18869TIP3    H178098   3.337   6.921  14.181  0.4146  0.4718 -0.8977
18869TIP3    H278099   3.258   6.819  14.102 -0.8558  0.3081  0.5256
18870TIP3   OH278100   4.299   3.746   3.390 -0.8913 -0.6964  0.0156
18870TIP3    H178101   4.298   3.835   3.354  2.8614 -1.1475 -1.6386
18870TIP3    H278102   4.236   3.698   3.337 -0.4477  0.2306 -1.4184
18871TIP3   OH278103   1.074   1.989   1.207  0.1687 -0.0832 -0.1393
18871TIP3    H178104   1.081   2.059   1.142  0.1266 -0.5166 -0.6252
18871TIP3    H278105   0.983   1.959   1.200  0.6177 -1.3280 -1.1788
18872TIP3   OH278106   1.108   6.057   5.638 -0.6218 -0.1193  0.1213
18872TIP3    H178107   1.034   6.024   5.689 -0.5541  0.1015  0.3665
18872TIP3    H278108   1.137   5.981   5.586 -0.8975 -0.2565  0.1687
18873TIP3   OH278109   1.920   0.513   6.207 -0.4340 -0.0062  0.1223
18873TIP3    H178110   1.934   0.570   6.282 -2.8518  1.5931 -0.5224
18873TIP3    H278111   1.989   0.447   6.214  2.0226  2.4815  1.3625
18874TIP3   OH278112   4.360   1.663  13.125 -0.3307 -0.7107  0.1341
18874TIP3    H178113   4.418   1.690  13.054 -0.6851 -0.2916 -0.0040
18874TIP3    H278114   4.288   1.618  13.081 -0.3387 -0.8271  0.2659
18875TIP3   OH278115   5.435   2.470   1.871  0.2510 -0.0416  0.0034
18875TIP3    H178116   5.494   2.490   1.798  1.0946  1.3556  1.0133
18875TIP3    H278117   5.452   2.539   1.935 -2.3336  0.2756  0.4623
18876TIP3   OH278118   1.062   5.653   5.129 -0.0438 -0.0589  0.2519
18876TIP3    H178119   1.055   5.673   5.036  1.4496  2.1960  0.5522
18876TIP3    H278120   1.155   5.666   5.150  0.0808 -2.4755  1.7021
18877TIP3   OH278121   6.795   2.593  15.069 -0.3878 -0.0524 -0.1564
18877TIP3    H178122   6.756   2.633  15.147 -0.3212  1.1255 -0.7120
18877TIP3    H278123   6.808   2.501  15.094  0.4468  0.4809  1.5151
18878TIP3   OH278124   3.812   5.524   0.434 -0.0547  0.1856  0.3386
18878TIP3    H178125   3.819   5.524   0.529 -2.3377 -0.2684  0.5580
18878TIP3    H278126   3.858   5.444   0.406  0.0680 -0.0117  1.0947
18879TIP3   OH278127   6.446   6.058  16.582 -0.1203  0.4909  0.6590
18879TIP3    H178128   6.399   6.039  16.501  1.9787 -4.0966  0.2162
18879TIP3    H278129   6.531   6.091  16.554  0.3343 -0.3826  0.9609
18880TIP3   OH278130   6.163   6.208   1.216  0.4119  0.1655 -0.6792
18880TIP3    H178131   6.082   6.157   1.211  0.8675 -0.4094 -3.1881
18880TIP3    H278132   6.231   6.143   1.234  0.6278  0.3289 -0.9062
18881TIP3   OH278133   1.083   4.319   5.405 -0.4310 -0.0094  0.7931
18881TIP3    H178134   1.078   4.373   5.484 -0.3018 -1.4304  1.7994
18881TIP3    H278135   1.022   4.361   5.344  0.9081  2.2537  0.9028
18882TIP3   OH278136   1.416   2.303   2.500  0.1937 -0.7154  0.0854
18882TIP3    H178137   1.500   2.264   2.475  1.0046  0.7624  0.3957
18882TIP3    H278138   1.415   2.388   2.456 -1.3511 -0.8926 -0.2639
18883TIP3   OH278139   3.802   2.663  12.107  0.3384 -0.0710 -0.4053
18883TIP3    H178140   3.808   2.757  12.089  0.5160  0.2102  0.9538
18883TIP3    H278141   3.713   2.639  12.083 -0.5163  1.0098  1.4541
18884TIP3   OH278142   4.757   4.855  15.620 -0.1302  0.2938 -1.0120
18884TIP3    H178143   4.708   4.864  15.539 -0.7915  1.2881 -0.5213
18884TIP3    H278144   4.843   4.893  15.601 -0.7486  1.8325 -0.8633
18885TIP3   OH278145   1.522   1.667  14.481  0.2326 -0.4147 -0.1248
18885TIP3    H178146   1.438   1.670  14.527  0.3310  0.2246  0.0144
18885TIP3    H278147   1.569   1.593  14.521 -1.0309 -2.0629 -1.5444
18886TIP3   OH278148   0.263   5.579   3.695  0.3938  0.4513  0.1492
18886TIP3    H178149   0.223   5.604   3.611 -1.6648 -2.0831  0.2277
18886TIP3    H278150   0.188   5.563   3.752  1.6259 -1.5151  1.3004
18887TIP3   OH278151   3.589   5.614  13.512  0.2213 -0.3099  0.3273
18887TIP3    H178152   3.644   5.538  13.493  0.3986  0.0859 -0.8150
18887TIP3    H278153   3.554   5.596  13.600  0.8699 -1.3344  0.4031
18888TIP3   OH278154   2.766   0.788  14.489  0.3241 -0.0723 -0.1077
18888TIP3    H178155   2.727   0.702  14.504  0.7691 -0.1449  0.7308
18888TIP3    H278156   2.839   0.772  14.430 -0.8488  0.0592 -1.6525
18889TIP3   OH278157   1.424   2.391   5.534  0.0125  0.0558  0.0191
18889TIP3    H178158   1.329   2.403   5.523  0.0451 -0.2717 -0.6804
18889TIP3    H278159   1.440   2.302   5.503  0.2696 -0.6092  1.9183
18890TIP3   OH278160   2.064   0.950  11.139  0.1803 -0.3677 -0.4043
18890TIP3    H178161   2.052   1.044  11.126  0.1694 -0.3359 -0.1668
18890TIP3    H278162   2.124   0.944  11.213 -1.4696 -0.5710  0.9513
18891TIP3   OH278163   1.292   0.385   4.065 -0.0833  0.2921  0.0320
18891TIP3    H178164   1.359   0.320   4.045  0.5426  1.2818 -1.2119
18891TIP3    H278165   1.277   0.376   4.160 -0.8050 -2.3579 -0.2491
18892TIP3   OH278166   2.624   5.712  12.259 -0.1517  0.0809 -0.3428
18892TIP3    H178167   2.591   5.740  12.173 -1.2197 -1.4651 -0.4800
18892TIP3    H278168   2.713   5.746  12.262  0.0796 -0.2403 -2.2775
18893TIP3   OH278169   1.920   5.939   1.277 -0.9586 -0.1717  0.6490
18893TIP3    H178170   1.974   5.894   1.213 -0.9231 -1.3384  1.4663
18893TIP3    H278171   1.836   5.893   1.275 -1.4718  0.7451  0.3764
18894TIP3   OH278172   3.061   2.367  13.680 -0.6672  0.2347  0.0209
18894TIP3    H178173   3.055   2.449  13.730 -0.0059  0.3810 -0.1181
18894TIP3    H278174   3.153   2.365  13.651 -0.9973  0.0761 -1.0416
18895TIP3   OH278175   4.273   4.883  16.038  0.2151  0.0965  0.6038
18895TIP3    H178176   4.220   4.954  16.004  0.2673  0.5014  1.3569
18895TIP3    H278177   4.241   4.805  15.992 -0.9815  0.3418  0.9880
18896TIP3   OH278178   1.106   2.996  15.306  0.3015  0.3719 -0.2753
18896TIP3    H178179   1.068   2.944  15.376 -0.3809  0.0173 -0.8956
18896TIP3    H278180   1.118   2.935  15.233  0.0997  0.9300 -0.7929
18897TIP3   OH278181   0.103   1.788  16.557 -0.4036  0.3342  0.8159
18897TIP3    H178182   0.079   1.704  16.597 -1.9231 -0.1513 -0.9711
18897TIP3    H278183   0.070   1.782  16.468  1.9327  1.7613 -0.2435
18898TIP3   OH278184   0.843   2.835   2.836  0.0355  0.0664 -0.1511
18898TIP3    H178185   0.867   2.925   2.814 -0.0954  0.4072  1.0290
18898TIP3    H278186   0.825   2.793   2.752 -0.4024  1.2809 -0.6802
18899TIP3   OH278187   4.906   5.759   3.260  0.4511  0.7165  0.3993
18899TIP3    H178188   4.820   5.801   3.253 -0.0733 -0.5658 -1.9117
18899TIP3    H278189   4.909   5.724   3.349 -1.2803  1.1025  0.6390
18900TIP3   OH278190   0.619   2.916   0.056 -0.3427  0.1101 -0.2641
18900TIP3    H178191   0.658   2.975  -0.008  2.0718  0.9879  1.8552
18900TIP3    H278192   0.570   2.973   0.115 -0.0618 -0.3009  0.3767
18901TIP3   OH278193   1.534   4.974  13.879 -0.0129 -0.0822 -0.3050
18901TIP3    H178194   1.562   5.056  13.922  1.5672 -1.1631  0.8290
18901TIP3    H278195   1.468   5.002  13.816  0.8638  2.1453 -0.3259
18902TIP3   OH278196   6.514   3.637   1.896  0.6110  0.5331  0.1101
18902TIP3    H178197   6.542   3.723   1.928 -1.3032  0.6670  1.6273
18902TIP3    H278198   6.524   3.579   1.972 -1.3602  0.2159  0.1844
18903TIP3   OH278199   4.486   1.203   4.674 -0.3018 -0.7874  0.7434
18903TIP3    H178200   4.578   1.176   4.668  0.1788  0.2471  2.7534
18903TIP3    H278201   4.490   1.295   4.698 -1.8757 -0.7993  1.1321
18904TIP3   OH278202   1.674   1.643   1.979  0.0199 -0.6769  0.2152
18904TIP3    H178203   1.637   1.669   1.895 -0.1231 -1.0225  0.1694
18904TIP3    H278204   1.602   1.654   2.042  0.1602 -0.3076  0.3136
18905TIP3   OH278205   6.789   0.143  12.013 -0.3194  0.2367  0.1624
18905TIP3    H178206   6.769   0.061  11.967 -3.1983 -0.7220  2.7650
18905TIP3    H278207   6.872   0.127  12.056  0.1213 -0.5527 -0.9267
18906TIP3   OH278208   1.264   4.426  10.870  0.2077 -0.1248  0.0245
18906TIP3    H178209   1.205   4.483  10.919  2.0679  0.9119  1.1817
18906TIP3    H278210   1.294   4.479  10.797 -0.1305 -0.5804 -0.4492
18907TIP3   OH278211   2.668   2.588  15.437 -0.6725 -0.6679  0.4101
18907TIP3    H178212   2.744   2.608  15.381  1.1304 -1.1555  2.5467
18907TIP3    H278213   2.606   2.659  15.419  1.2241  1.0234  0.1929
18908TIP3   OH278214   0.772   2.424   1.217 -0.0206  0.0879  0.2465
18908TIP3    H178215   0.847   2.418   1.277 -0.1478  2.0056  0.6677
18908TIP3    H278216   0.715   2.352   1.244  0.9485 -0.4491  0.9500
18909TIP3   OH278217   4.084   5.484  12.071 -0.2022  0.2779  0.0931
18909TIP3    H178218   4.088   5.451  11.981  0.4919 -1.0031  0.5577
18909TIP3    H278219   4.161   5.541  12.079  0.5046 -0.6785  0.2563
18910TIP3   OH278220   1.110   4.340  12.792 -0.7736 -0.0185 -0.3268
18910TIP3    H178221   1.134   4.273  12.728  1.8176  0.9139 -0.4179
18910TIP3    H278222   1.074   4.411  12.739  0.0101  0.1733 -0.6088
18911TIP3   OH278223   4.670   5.627   2.768 -0.0515  0.0304 -0.6309
18911TIP3    H178224   4.644   5.546   2.723  0.9296 -0.2761 -0.6637
18911TIP3    H278225   4.696   5.687   2.698  0.0334  0.0767 -0.5603
18912TIP3   OH278226   1.217   2.835  10.912 -0.7216  0.4860 -0.0473
18912TIP3    H178227   1.250   2.817  10.824  1.5414 -1.6014  1.0998
18912TIP3    H278228   1.253   2.921  10.934  0.1393  0.2724 -0.5693
18913TIP3   OH278229   1.483   0.618   4.069 -0.0352 -0.0018 -0.0233
18913TIP3    H178230   1.409   0.658   4.113 -0.4528 -1.4714  0.6766
18913TIP3    H278231   1.448   0.537   4.031  0.8555  0.0613 -1.0516
18914TIP3   OH278232   0.164   2.418  10.972 -0.2206  0.0557 -0.0408
18914TIP3    H178233   0.177   2.342  11.028 -0.3452 -0.6031 -0.8919
18914TIP3    H278234   0.235   2.413  10.908  0.1276  0.9948  0.2479
18915TIP3   OH278235   5.241   4.833  12.107 -0.0809  0.3804  0.2224
18915TIP3    H178236   5.161   4.874  12.139 -0.9419  0.5816 -2.0121
18915TIP3    H278237   5.236   4.840  12.012  2.1863 -0.4062 -0.0315
18916TIP3   OH278238   1.201   4.127  14.620 -0.1082 -0.2455  0.4953
18916TIP3    H178239   1.149   4.206  14.607 -0.4070 -0.5704 -0.3501
18916TIP3    H278240   1.263   4.127  14.547  0.0063 -0.7044  0.5911
18917TIP3   OH278241   6.694   0.133   4.756 -0.2061  0.1189 -0.6659
18917TIP3    H178242   6.621   0.182   4.793  0.6692  0.7539  0.2939
18917TIP3    H278243   6.666   0.041   4.758 -0.2508  0.1386  1.5364
18918TIP3   OH278244   0.469   3.428   3.539  0.4605 -0.2694 -0.5491
18918TIP3    H178245   0.533   3.455   3.474  0.8309 -0.3508 -0.2206
18918TIP3    H278246   0.510   3.447   3.623  0.6741 -1.6603 -0.3045
18919TIP3   OH278247   6.498   4.412   1.142 -0.8120  0.2032 -0.3485
18919TIP3    H178248   6.471   4.497   1.177 -1.6054 -0.2947  0.2965
18919TIP3    H278249   6.416   4.362   1.135 -0.2536 -0.8059  0.1312
18920TIP3   OH278250   5.430   5.089   0.339 -0.0399 -0.4103  0.2922
18920TIP3    H178251   5.358   5.132   0.384 -1.7824 -3.3508  0.5534
18920TIP3    H278252   5.498   5.081   0.406 -0.4493  0.0986  0.7871
18921TIP3   OH278253   2.099   1.291   5.059  0.5788 -0.3493  0.3843
18921TIP3    H178254   2.047   1.240   4.996 -1.6214  0.7515  1.2022
18921TIP3    H278255   2.090   1.243   5.142  1.1150 -0.2796  0.4868
18922TIP3   OH278256   4.264   3.877   5.610  0.2715  0.0845  0.1848
18922TIP3    H178257   4.251   3.956   5.557  0.4692 -0.2636 -0.3964
18922TIP3    H278258   4.175   3.851   5.636  0.2317  0.6699  0.6404
18923TIP3   OH278259   1.686   2.932   0.335 -0.8117  0.0827  0.8017
18923TIP3    H178260   1.680   2.922   0.429  1.3662 -1.5722  0.8290
18923TIP3    H278261   1.779   2.946   0.317 -1.0849 -0.2078 -1.1465
18924TIP3   OH278262   1.799   6.006   4.740 -0.3018 -0.0576 -0.2983
18924TIP3    H178263   1.870   6.048   4.691 -0.7026  0.1010 -0.7511
18924TIP3    H278264   1.832   6.000   4.830  0.3384 -0.1142 -0.5346
18925TIP3   OH278265   1.341   0.860   6.925  0.8336 -0.0027  0.5487
18925TIP3    H178266   1.425   0.846   6.883  0.9946 -0.7960  1.1074
18925TIP3    H278267   1.305   0.772   6.938 -0.7889  0.3610 -1.0439
18926TIP3   OH278268   2.167   3.663   6.667 -0.2831  0.0857  0.2876
18926TIP3    H178269   2.118   3.652   6.586 -0.7092  1.3137  0.3537
18926TIP3    H278270   2.100   3.671   6.735  0.0356  0.2684  0.5831
18927TIP3   OH278271   4.313   2.960  11.022 -0.5462 -0.3310  0.0087
18927TIP3    H178272   4.401   2.923  11.029 -0.9315 -2.0388 -2.6572
18927TIP3    H278273   4.320   3.026  10.952 -1.3950 -0.5454 -0.2909
18928TIP3   OH278274   4.954   2.574  13.471 -0.4059 -0.2295 -0.1969
18928TIP3    H178275   4.926   2.618  13.551 -0.0398 -0.3605  0.0028
18928TIP3    H278276   4.893   2.501  13.461 -0.5826 -0.0873 -0.1520
18929TIP3   OH278277   1.663   3.026  10.996  0.2037 -0.4214  0.2882
18929TIP3    H178278   1.747   3.011  11.037  0.5644  1.1021  0.1772
18929TIP3    H278279   1.607   3.060  11.066  1.0054  2.8117 -0.4494
18930TIP3   OH278280   1.184   6.814   5.530 -0.1735 -0.2079  0.4316
18930TIP3    H178281   1.257   6.794   5.589 -2.8169  2.2145  5.0811
18930TIP3    H278282   1.200   6.904   5.501 -0.8965  0.0633  0.8558
18931TIP3   OH278283   3.131   0.171  14.566  0.4621 -0.0560 -0.6235
18931TIP3    H178284   3.225   0.191  14.565  0.9132 -1.7195 -3.2621
18931TIP3    H278285   3.096   0.223  14.638  3.4615  0.2681  0.7697
18932TIP3   OH278286   0.553   6.065   1.014 -0.4922  0.0484  0.0404
18932TIP3    H178287   0.640   6.039   0.984 -0.6070  0.7380 -0.9150
18932TIP3    H278288   0.506   6.090   0.934 -2.0831 -1.7460  0.3323
18933TIP3   OH278289   5.243   2.509   3.351 -0.2769  0.1214 -0.1038
18933TIP3    H178290   5.288   2.425   3.349 -1.3258 -0.4433 -1.3975
18933TIP3    H278291   5.151   2.487   3.334 -0.8714  1.3512  1.2918
18934TIP3   OH278292   5.270   3.619  12.205 -0.2397  0.3167  0.1087
18934TIP3    H178293   5.199   3.637  12.267  1.3207 -1.2103  2.5117
18934TIP3    H278294   5.328   3.694  12.212  0.0221  0.0646  0.6192
18935TIP3   OH278295   3.710   1.076  12.467 -0.3585  0.2393  0.1015
18935TIP3    H178296   3.643   1.011  12.488  0.4228 -0.4048  0.6865
18935TIP3    H278297   3.662   1.152  12.437 -1.4009  0.0488  1.2081
18936TIP3   OH278298   2.956   2.174  15.241 -0.4335 -0.0742  0.7637
18936TIP3    H178299   2.889   2.242  15.253 -0.3136  0.3576 -0.7562
18936TIP3    H278300   3.029   2.220  15.199 -0.4625 -1.1858 -0.5705
18937TIP3   OH278301   0.299   4.711  11.050 -0.0731  0.2427  0.5472
18937TIP3    H178302   0.328   4.801  11.064 -1.3787  1.0146 -1.3166
18937TIP3    H278303   0.250   4.689  11.129 -0.1265  1.3265  0.8246
18938TIP3   OH278304   3.168   0.803   2.546 -0.3063 -0.0157  0.2732
18938TIP3    H178305   3.243   0.772   2.597 -0.1909 -0.4382 -0.1388
18938TIP3    H278306   3.095   0.751   2.579  0.4258 -3.2125 -2.5887
18939TIP3   OH278307   1.906   2.632   4.581  0.0766  0.3210 -0.0605
18939TIP3    H178308   1.884   2.547   4.619 -0.0400  0.5519  0.4041
18939TIP3    H278309   1.897   2.693   4.654  0.7472  0.6434 -0.2372
18940TIP3   OH278310   5.350   4.244   0.035  0.1578  0.4191  0.2894
18940TIP3    H178311   5.386   4.250  -0.053 -0.0938  0.7338  0.2103
18940TIP3    H278312   5.256   4.232   0.023  0.4613 -3.1482  0.4301
18941TIP3   OH278313   4.294   0.181   1.381 -0.0588  0.2443  0.0269
18941TIP3    H178314   4.284   0.272   1.352 -1.3507  0.0926 -0.0437
18941TIP3    H278315   4.301   0.186   1.476  1.6085  0.5344 -0.0776
18942TIP3   OH278316   6.501   5.636   1.357 -0.1123 -0.0984  0.2509
18942TIP3    H178317   6.479   5.619   1.265  1.8279  1.0497 -0.4820
18942TIP3    H278318   6.589   5.672   1.354  0.5704 -1.3451  2.7044
18943TIP3   OH278319   1.100   6.106   0.703 -0.1431 -0.3270 -0.0186
18943TIP3    H178320   1.141   6.185   0.666  0.0155 -0.6860 -0.6205
18943TIP3    H278321   1.135   6.100   0.792  1.3882 -0.8173 -0.6313
18944TIP3   OH278322   2.755   1.862   4.036  0.1459  0.0179 -0.1771
18944TIP3    H178323   2.756   1.897   3.946 -1.1305  0.8539  0.1132
18944TIP3    H278324   2.845   1.832   4.050  0.4603  0.1781 -1.6171
18945TIP3   OH278325   1.385   6.808   1.255 -0.5147 -0.6756  0.4911
18945TIP3    H178326   1.426   6.888   1.221  1.1992 -1.9838 -0.7280
18945TIP3    H278327   1.438   6.785   1.332 -0.4311 -1.1034  0.3078
18946TIP3   OH278328   3.673   0.031  16.956  0.3145 -0.4263 -0.3092
18946TIP3    H178329   3.685   0.022  17.051 -2.6127  0.6959  0.2961
18946TIP3    H278330   3.736   0.097  16.929 -0.9440  1.6762  1.5570
18947TIP3   OH278331   0.309   1.654   4.430 -0.9836  0.0810  0.3482
18947TIP3    H178332   0.398   1.650   4.465 -0.5867  0.6861 -0.5755
18947TIP3    H278333   0.314   1.611   4.345 -1.1166  1.9101 -0.6197
18948TIP3   OH278334   0.449   3.670   0.054 -0.6079  0.0059  0.0830
18948TIP3    H178335   0.469   3.664   0.147 -1.5678  1.1812  0.4021
18948TIP3    H278336   0.450   3.764   0.035 -0.5292 -0.2067 -1.0756
18949TIP3   OH278337   5.670   3.058   3.866  0.2181 -0.0209  0.2368
18949TIP3    H178338   5.628   3.140   3.891  1.5449  0.4484  1.0264
18949TIP3    H278339   5.653   2.999   3.939  0.1794 -0.1115  0.1543
18950TIP3   OH278340   2.909   0.278   0.417  0.4498  0.0601 -0.0512
18950TIP3    H178341   2.852   0.298   0.342 -1.7481 -0.6127  1.3521
18950TIP3    H278342   2.939   0.364   0.448  0.6235  0.3966 -1.0988
18951TIP3   OH278343   5.731   1.791  12.079 -0.3919 -0.0689  0.1340
18951TIP3    H178344   5.679   1.775  12.158  1.4999 -0.9902  1.2609
18951TIP3    H278345   5.689   1.738  12.011 -1.3270 -0.2248  0.8219
18952TIP3   OH278346   4.926   3.318   4.640 -0.3582  0.0211  0.5194
18952TIP3    H178347   4.877   3.335   4.721 -0.8066  0.0239  0.2518
18952TIP3    H278348   4.905   3.228   4.618  2.2762 -1.0808  2.1169
18953TIP3   OH278349   2.134   0.877  12.382  0.1712  0.4795 -0.2416
18953TIP3    H178350   2.096   0.955  12.341  0.9744  1.7376  1.2764
18953TIP3    H278351   2.220   0.906  12.414 -0.6889 -0.1345  2.9732
18954TIP3   OH278352   1.117   0.557   0.671  0.7048  0.4513 -0.2504
18954TIP3    H178353   1.053   0.553   0.599 -0.9935  0.2152  1.1922
18954TIP3    H278354   1.072   0.607   0.740  1.4385 -1.0435  1.3919
18955TIP3   OH278355   4.680   2.779  13.555 -1.2104  0.6181 -0.1946
18955TIP3    H178356   4.640   2.850  13.605 -2.2418 -0.1311  0.0672
18955TIP3    H278357   4.757   2.754  13.606 -0.9037  1.4670 -0.2352
18956TIP3   OH278358   0.184   5.921   1.732 -0.4014  0.0573 -0.2948
18956TIP3    H178359   0.146   5.834   1.718  1.1545 -0.4311 -1.9579
18956TIP3    H278360   0.183   5.962   1.645  1.3686  0.6065 -0.0952
18957TIP3   OH278361   4.793   1.390   4.146 -0.1510 -0.3461 -0.0459
18957TIP3    H178362   4.795   1.486   4.151 -1.1060 -0.2322 -1.3791
18957TIP3    H278363   4.885   1.365   4.135  0.1546  0.3757  0.7397
18958TIP3   OH278364   4.845   6.020  15.900 -0.5345  0.3868 -0.1358
18958TIP3    H178365   4.883   6.097  15.942  1.3471 -0.2713 -0.5133
18958TIP3    H278366   4.804   6.054  15.820 -1.6756  1.2559  0.7753
18959TIP3   OH278367   1.375   1.409  13.496  0.1945  0.5255 -0.0557
18959TIP3    H178368   1.324   1.360  13.561 -0.3370 -0.7641 -1.3914
18959TIP3    H278369   1.313   1.475  13.464 -0.3037 -0.3195 -0.8740
18960TIP3   OH278370   1.465   3.506   0.988  0.2951  0.2285 -0.1128
18960TIP3    H178371   1.408   3.466   0.922  2.5150 -1.9201 -0.8918
18960TIP3    H278372   1.554   3.483   0.959  1.4421  1.0427  2.5064
18961TIP3   OH278373   5.072   0.987   1.150 -0.7953 -0.0110  0.2973
18961TIP3    H178374   5.035   1.033   1.225 -1.7482 -0.6343  0.2246
18961TIP3    H278375   5.015   0.911   1.137 -0.7395  0.1645 -1.1647
18962TIP3   OH278376   4.403   0.273  11.985  0.8677 -0.5377 -0.1978
18962TIP3    H178377   4.397   0.331  11.909 -1.3719 -1.9584 -1.2302
18962TIP3    H278378   4.338   0.307  12.047  0.1799 -1.3857 -0.4340
18963TIP3   OH278379   0.711   6.626  12.705 -0.2893 -0.2471  0.0998
18963TIP3    H178380   0.757   6.581  12.776 -1.8349 -0.3630  1.0849
18963TIP3    H278381   0.632   6.661  12.747 -0.6220  0.7821 -1.3080
18964TIP3   OH278382   6.710   1.097  13.414  0.6337 -0.1199 -0.4467
18964TIP3    H178383   6.693   1.172  13.357  0.3337 -0.3277 -0.6352
18964TIP3    H278384   6.783   1.125  13.470  0.4713  0.3367 -0.4610
18965TIP3   OH278385   6.205   2.004  12.854 -0.1275  0.2750  0.0908
18965TIP3    H178386   6.204   1.916  12.892 -0.6405  0.9363  1.6901
18965TIP3    H278387   6.206   2.063  12.929  0.2186  1.6561 -0.9484
18966TIP3   OH278388   1.101   5.977   4.281  0.7169 -0.3544 -0.1260
18966TIP3    H178389   1.030   5.912   4.284  1.9609 -1.8110 -0.9030
18966TIP3    H278390   1.175   5.933   4.321  1.3521  0.9422  0.1632
18967TIP3   OH278391   0.745   2.244   5.530  0.0154  0.1868  0.0515
18967TIP3    H178392   0.815   2.217   5.589  0.2445 -0.9283 -0.7090
18967TIP3    H278393   0.768   2.333   5.504 -0.5603  1.0650  2.3225
18968TIP3   OH278394   6.782   4.586  12.309  0.0754  0.6204  0.4724
18968TIP3    H178395   6.703   4.545  12.343 -0.0180  0.7158  0.3708
18968TIP3    H278396   6.788   4.669  12.356  0.4183  0.3678  0.8845
18969TIP3   OH278397   2.110   4.771  15.655 -0.1034  0.7539 -0.2407
18969TIP3    H178398   2.120   4.677  15.671 -1.1786  0.7281  0.3677
18969TIP3    H278399   2.055   4.802  15.727 -1.4367  1.4720 -1.5062
18970TIP3   OH278400   4.453   3.394  13.167 -0.2766 -0.2175 -0.3955
18970TIP3    H178401   4.500   3.363  13.090  0.3533 -0.0285 -0.0948
18970TIP3    H278402   4.449   3.489  13.155  0.6642 -0.0778  0.2505
18971TIP3   OH278403   4.782   5.908   0.471 -0.3704  0.2951  0.1313
18971TIP3    H178404   4.713   5.850   0.503  0.5409 -0.2301  1.2067
18971TIP3    H278405   4.770   5.988   0.522 -1.3223  0.9146 -1.0082
18972TIP3   OH278406   2.136   3.776   0.907 -0.3855 -0.3342 -0.0226
18972TIP3    H178407   2.113   3.803   0.996 -0.0486 -0.6615  0.1667
18972TIP3    H278408   2.231   3.767   0.908 -0.4892 -1.7811  0.0148
18973TIP3   OH278409   4.198   5.339  15.059  0.1837  0.5799 -0.2393
18973TIP3    H178410   4.184   5.420  15.011 -1.6163  0.6824  0.3737
18973TIP3    H278411   4.129   5.280  15.028  0.5849 -0.2269  0.3462
18974TIP3   OH278412   1.596   3.039   1.191 -0.8894 -0.4132  0.7646
18974TIP3    H178413   1.644   3.037   1.274 -2.0765 -1.0052  1.4494
18974TIP3    H278414   1.504   3.028   1.216 -1.4191  0.8597 -0.5068
18975TIP3   OH278415   0.325   3.289   0.358  0.0803 -0.5865  0.1025
18975TIP3    H178416   0.306   3.321   0.447  0.1443 -1.8272  0.5855
18975TIP3    H278417   0.326   3.368   0.304  1.7373  0.4069  1.4876
18976TIP3   OH278418   5.976   0.341   4.187  0.3416 -0.6286 -0.2790
18976TIP3    H178419   6.012   0.335   4.275 -0.9992  0.6767  0.3814
18976TIP3    H278420   6.033   0.404   4.142  0.4586 -0.5788 -0.0609
18977TIP3   OH278421   4.283   2.634  12.759 -0.3899  0.2389 -0.2321
18977TIP3    H178422   4.262   2.659  12.849  0.4658  0.1125  0.0127
18977TIP3    H278423   4.269   2.540  12.756  2.1403 -0.2495  0.5614
18978TIP3   OH278424   1.262   4.117   0.948 -0.0471 -0.0057  0.2403
18978TIP3    H178425   1.205   4.117   0.870 -2.5740  0.0010  1.9673
18978TIP3    H278426   1.339   4.167   0.921 -1.2256  0.7684 -1.9809
18979TIP3   OH278427   6.553   3.560  16.413  0.2106 -0.6413  0.0085
18979TIP3    H178428   6.479   3.599  16.460 -1.0035  0.3961 -2.5738
18979TIP3    H278429   6.611   3.634  16.394  0.5429 -0.9873 -0.3413
18980TIP3   OH278430   2.725   0.761   1.489  0.1049 -0.0496 -0.1880
18980TIP3    H178431   2.642   0.797   1.455 -0.5397  0.7336  2.0497
18980TIP3    H278432   2.722   0.779   1.583  1.9694 -1.7599  0.2541
18981TIP3   OH278433   6.186   3.436   1.947  0.2436  0.1231 -0.5014
18981TIP3    H178434   6.111   3.403   1.995  0.9908 -1.2489 -0.2361
18981TIP3    H278435   6.153   3.454   1.859 -0.2959 -0.8841 -0.5100
18982TIP3   OH278436   5.820   2.631  13.766  0.0757 -0.4353 -0.2761
18982TIP3    H178437   5.908   2.600  13.789  1.3033  2.7798 -0.1913
18982TIP3    H278438   5.824   2.647  13.671 -0.6976 -1.0104 -0.4156
18983TIP3   OH278439   1.033   4.326   0.549  0.9561 -0.2051 -0.1637
18983TIP3    H178440   1.106   4.372   0.507  0.4096  1.6316  0.7857
18983TIP3    H278441   1.028   4.364   0.637 -0.3369 -1.2078  0.2260
18984TIP3   OH278442   1.499   1.536   0.104 -0.1578 -0.4715 -0.1189
18984TIP3    H178443   1.572   1.474   0.109 -0.6406 -1.1351 -0.9304
18984TIP3    H278444   1.457   1.516   0.020 -0.9835  0.2231  0.1159
18985TIP3   OH278445   1.986   2.156  15.303  0.1725 -0.3850 -0.3509
18985TIP3    H178446   2.024   2.087  15.358  2.6112  0.2703 -1.0717
18985TIP3    H278447   2.017   2.237  15.342 -1.3952  0.2779 -0.4090
18986TIP3   OH278448   0.757   5.309  11.425  0.4164  0.3851  0.1271
18986TIP3    H178449   0.735   5.241  11.489  0.8832  0.8485  0.8021
18986TIP3    H278450   0.800   5.262  11.354 -1.8167 -0.3994 -0.7729
18987TIP3   OH278451   5.995   3.235  12.113 -0.1243 -0.2768  0.1052
18987TIP3    H178452   5.941   3.292  12.057  1.7974  0.1829 -1.3975
18987TIP3    H278453   5.934   3.200  12.177 -2.5505 -0.9959 -2.3949
18988TIP3   OH278454   1.389   2.060  15.014  0.1425  0.7688  0.3710
18988TIP3    H178455   1.475   2.019  15.020 -0.3000 -0.3763 -0.5942
18988TIP3    H278456   1.340   2.023  15.088  0.0780  0.3627  0.1312
18989TIP3   OH278457   1.096   5.363   0.015  0.0699  0.2449  0.4584
18989TIP3    H178458   1.167   5.318   0.060 -1.9451 -2.5055  1.1328
18989TIP3    H278459   1.127   5.374  -0.075  1.3944 -0.7573  0.7603
18990TIP3   OH278460   1.683   5.216   7.126 -1.0834 -0.0786  0.1659
18990TIP3    H178461   1.684   5.125   7.094 -1.3495 -0.5956  1.5537
18990TIP3    H278462   1.639   5.265   7.056 -0.7514 -0.9736 -0.7021
18991TIP3   OH278463   5.611   2.179   0.140  0.1537  0.2081  0.6669
18991TIP3    H178464   5.677   2.130   0.091 -0.6172 -0.5783  0.3982
18991TIP3    H278465   5.581   2.247   0.080 -0.5303 -0.5277  0.1668
18992TIP3   OH278466   6.007   2.573   1.602 -0.3780  0.2052  0.2042
18992TIP3    H178467   6.076   2.518   1.639 -0.9979  1.2189  3.1188
18992TIP3    H278468   6.036   2.663   1.620 -1.4070  0.7234 -0.6009
18993TIP3   OH278469   0.205   0.203  15.464  0.5375  0.0196  0.3861
18993TIP3    H178470   0.186   0.138  15.397  0.2000  0.8533 -0.3481
18993TIP3    H278471   0.148   0.179  15.537  1.3621 -1.2654  0.6428
18994TIP3   OH278472   2.719   3.014  16.150  0.4739 -0.2759 -0.5359
18994TIP3    H178473   2.731   2.920  16.162  2.1153  0.0839  0.9922
18994TIP3    H278474   2.777   3.054  16.214 -0.4142  1.7948 -0.9492
18995TIP3   OH278475   5.911   6.480   4.481  0.1029 -0.0217 -0.1662
18995TIP3    H178476   5.868   6.474   4.566 -0.4032 -1.9153 -0.4977
18995TIP3    H278477   5.966   6.557   4.487 -2.2573  1.7132  0.7825
18996TIP3   OH278478   2.296   5.047   6.777  0.1004  0.4972 -0.1647
18996TIP3    H178479   2.382   5.059   6.738  0.3600 -0.2338  0.1756
18996TIP3    H278480   2.285   5.123   6.835  0.2567  0.9033 -0.6614
18997TIP3   OH278481   4.757   4.693  16.476 -0.1456  0.1261 -0.0803
18997TIP3    H178482   4.841   4.686  16.522 -0.2134 -1.0816 -0.1102
18997TIP3    H278483   4.744   4.787  16.465  0.7674  0.3671  0.7246
18998TIP3   OH278484   1.123   1.561   0.491 -0.2138 -0.3594  0.1411
18998TIP3    H178485   1.056   1.585   0.427 -0.3055 -0.5157  0.1767
18998TIP3    H278486   1.085   1.585   0.576 -1.1589 -2.3962  0.3795
18999TIP3   OH278487   5.165   2.936  15.132 -0.0725 -0.4624 -0.1337
18999TIP3    H178488   5.220   2.891  15.068  1.2425 -1.8157  1.8160
18999TIP3    H278489   5.225   2.997  15.175 -1.2013  1.2512 -0.8948
19000TIP3   OH278490   6.623   1.749   0.802  1.3247 -0.1151 -0.5284
19000TIP3    H178491   6.623   1.664   0.847  0.8034 -1.0683 -2.2647
19000TIP3    H278492   6.670   1.733   0.721 -0.5941  0.6671 -1.8664
19001TIP3   OH278493   4.807   4.187  16.207  0.0838  0.1995 -0.2409
19001TIP3    H178494   4.824   4.233  16.125  2.2375  0.9499  0.5538
19001TIP3    H278495   4.821   4.095  16.186  0.5925  0.3818 -0.7247
19002TIP3   OH278496   0.699   6.358   6.217 -0.8778 -0.3922 -0.5093
19002TIP3    H178497   0.650   6.440   6.219  0.1239  0.2270 -0.7456
19002TIP3    H278498   0.647   6.297   6.270 -2.1089  0.1083 -1.1097
19003TIP3   OH278499   4.472   4.076  15.934 -0.2581 -0.1077  0.0830
19003TIP3    H178500   4.541   4.114  15.989  0.8130 -1.3389 -0.3632
19003TIP3    H278501   4.436   4.006  15.988 -0.7144  0.1076  0.0568
19004TIP3   OH278502   6.772   5.235  14.901  0.7027 -0.2526  0.2012
19004TIP3    H178503   6.836   5.303  14.923 -0.0832  0.9088 -0.9353
19004TIP3    H278504   6.701   5.282  14.857 -1.8302 -1.2169  2.9440
19005TIP3   OH278505   4.524   6.349   4.129 -0.0745 -0.1005  0.3680
19005TIP3    H178506   4.480   6.377   4.048  0.1020 -0.5163  0.1232
19005TIP3    H278507   4.491   6.260   4.144 -0.2446  0.0434  0.8544
19006TIP3   OH278508   5.135   6.182  11.301  0.2062 -0.1016  0.0734
19006TIP3    H178509   5.213   6.237  11.287  0.6723 -1.1038 -1.5287
19006TIP3    H278510   5.170   6.095  11.318 -0.5667 -0.4634 -0.1597
19007TIP3   OH278511   4.372   5.794  13.733  0.0560  0.3967 -0.1523
19007TIP3    H178512   4.329   5.709  13.733 -0.3822  0.6148  0.1988
19007TIP3    H278513   4.313   5.851  13.782 -0.6646  1.3894 -2.0598
19008TIP3   OH278514   5.820   5.839   4.111 -0.1728  0.4038 -0.3208
19008TIP3    H178515   5.794   5.760   4.159 -2.3730 -0.3004 -2.4379
19008TIP3    H278516   5.903   5.815   4.070 -0.5266 -0.6290 -0.4658
19009TIP3   OH278517   5.538   3.207   3.498  0.6770 -0.0782  0.0566
19009TIP3    H178518   5.500   3.195   3.585  2.3213 -0.4835  0.7628
19009TIP3    H278519   5.499   3.289   3.466  0.0392  0.0711  1.1611
19010TIP3   OH278520   1.310   3.041  10.351  0.4613 -0.3733  0.1715
19010TIP3    H178521   1.352   3.104  10.293  0.0638  0.0592  0.3446
19010TIP3    H278522   1.234   3.009  10.301  1.0683 -1.2623 -0.1996
19011TIP3   OH278523   3.614   2.205  15.049  0.5476  0.2261 -0.0802
19011TIP3    H178524   3.525   2.170  15.057  0.8597 -0.5860 -0.1231
19011TIP3    H278525   3.666   2.154  15.111  1.0521  0.4826 -0.2862
19012TIP3   OH278526   6.276   1.638   0.623 -0.0403 -0.4887 -0.2153
19012TIP3    H178527   6.343   1.668   0.561  0.8130  1.4568  1.5479
19012TIP3    H278528   6.292   1.544   0.631 -0.0906 -0.8003 -2.7743
19013TIP3   OH278529   4.331   1.684   6.110  0.1645  0.1383  0.5274
19013TIP3    H178530   4.377   1.694   6.194 -1.2731  2.7885  1.1069
19013TIP3    H278531   4.398   1.703   6.044  0.3521  2.4694  1.2975
19014TIP3   OH278532   4.985   5.283   0.558 -0.5732  0.5783  0.5196
19014TIP3    H178533   5.009   5.372   0.530  2.5718 -0.3010  0.0630
19014TIP3    H278534   4.971   5.235   0.477  0.7514 -0.0685  0.6645
19015TIP3   OH278535   1.539   2.156   1.669 -0.4371  0.3711 -0.2857
19015TIP3    H178536   1.514   2.121   1.583  1.7110 -0.9567 -0.4501
19015TIP3    H278537   1.544   2.079   1.726 -1.4127  1.1846  0.9441
19016TIP3   OH278538   2.615   3.164  15.523  0.0699 -0.0894  0.0654
19016TIP3    H178539   2.673   3.221  15.473 -0.3172 -0.4350 -0.8006
19016TIP3    H278540   2.533   3.212  15.530 -0.1725 -0.4228 -0.4371
19017TIP3   OH278541   3.428   3.398  13.464  0.0402  0.6571 -0.5830
19017TIP3    H178542   3.361   3.461  13.491 -1.4558  0.2946 -3.1242
19017TIP3    H278543   3.511   3.442  13.483 -0.9492  3.1308 -1.5865
19018TIP3   OH278544   5.089   3.646  12.439 -0.1451  0.4666  0.4645
19018TIP3    H178545   5.157   3.651  12.506 -0.1584  1.6059  0.4081
19018TIP3    H278546   5.025   3.714  12.463 -0.9691 -0.1873  0.1876
19019TIP3   OH278547   2.397   2.249   2.133  1.0616 -0.6605 -0.0104
19019TIP3    H178548   2.329   2.274   2.195  1.8187  0.8908  0.2234
19019TIP3    H278549   2.416   2.157   2.154  2.3325  0.2096  3.0763
19020TIP3   OH278550   4.098   0.711  16.244 -0.0717 -0.1349  0.0896
19020TIP3    H178551   4.151   0.653  16.298 -0.5013 -0.5970  0.0250
19020TIP3    H278552   4.064   0.776  16.306  0.8495  0.3752  0.0665
19021TIP3   OH278553   6.321   1.405   3.794  0.0689 -0.1871 -0.3879
19021TIP3    H178554   6.382   1.413   3.722  1.1242  0.3126  0.5293
19021TIP3    H278555   6.249   1.464   3.772  0.4420  0.0571 -0.9662
19022TIP3   OH278556   2.589   2.462   3.402 -0.5863  0.5770  0.3714
19022TIP3    H178557   2.593   2.479   3.496 -0.1825  0.5468  0.3619
19022TIP3    H278558   2.618   2.371   3.394 -3.0882 -0.3256  0.4678
19023TIP3   OH278559   1.630   0.157  13.301 -0.0208 -0.4442  0.0900
19023TIP3    H178560   1.584   0.237  13.326  0.4081 -0.6661  1.6953
19023TIP3    H278561   1.674   0.179  13.218 -0.2905  0.8263  0.2693
19024TIP3   OH278562   5.309   5.735   0.983 -0.2840  0.2898 -0.0056
19024TIP3    H178563   5.292   5.659   1.039  0.0095 -0.2460 -0.6354
19024TIP3    H278564   5.227   5.784   0.984 -0.5334 -0.1256  0.2680
19025TIP3   OH278565   6.090   6.260   3.357  0.0408  0.0596  0.2124
19025TIP3    H178566   6.124   6.173   3.336  1.2965  0.1550  1.7139
19025TIP3    H278567   6.101   6.268   3.452 -1.6821  1.1849  0.3616
19026TIP3   OH278568   6.322   1.473   1.266  0.1501  0.5216  0.1886
19026TIP3    H178569   6.415   1.494   1.267  0.3675 -0.3918  0.9638
19026TIP3    H278570   6.308   1.426   1.184  0.7700 -0.9221  0.8779
19027TIP3   OH278571   2.479   3.474  14.737 -0.4108 -0.0954  0.6445
19027TIP3    H178572   2.400   3.485  14.790  0.3096  1.1969  1.5091
19027TIP3    H278573   2.506   3.563  14.715  0.6507 -0.5236  0.1399
19028TIP3   OH278574   5.444   1.468  12.212  0.0190 -0.2896 -0.1748
19028TIP3    H178575   5.519   1.476  12.153  0.9008 -0.0805  0.9473
19028TIP3    H278576   5.417   1.376  12.203 -0.6645  0.0301 -1.8183
19029TIP3   OH278577   6.073   0.270   0.500 -0.4454 -0.5088 -0.0195
19029TIP3    H178578   6.074   0.266   0.404 -0.1961 -0.1789 -0.0316
19029TIP3    H278579   6.162   0.250   0.526 -0.7818 -1.7743  0.1996
19030TIP3   OH278580   1.860   2.856   2.755  0.3902  0.0842  0.3938
19030TIP3    H178581   1.818   2.890   2.676  0.7608 -0.3994 -0.0178
19030TIP3    H278582   1.921   2.925   2.781  0.3357  0.2030  0.2084
19031TIP3   OH278583   3.196   2.367   3.069 -0.4031  0.4564  0.1435
19031TIP3    H178584   3.145   2.448   3.066 -0.6008  0.5216  2.7124
19031TIP3    H278585   3.283   2.393   3.040 -0.6770  1.4204  0.1414
19032TIP3   OH278586   1.758   2.149  13.401  0.3948  0.1042  0.2745
19032TIP3    H178587   1.837   2.103  13.371  0.3161  0.3556 -0.3320
19032TIP3    H278588   1.717   2.181  13.321  0.4260  1.2004  0.6788
19033TIP3   OH278589   3.525   2.054  11.725  0.3957 -0.7481  0.0294
19033TIP3    H178590   3.611   2.085  11.753  0.2424 -1.4172  1.3037
19033TIP3    H278591   3.524   2.070  11.631  1.6502 -0.1058  0.1009
19034TIP3   OH278592   0.381   4.293  14.449  0.0360  0.3723 -0.3930
19034TIP3    H178593   0.423   4.366  14.404 -0.1481  0.5083 -0.3472
19034TIP3    H278594   0.328   4.250  14.381 -0.1983  0.5443 -0.3195
19035TIP3   OH278595   1.252   5.028  15.932 -0.1750 -0.6322 -0.2520
19035TIP3    H178596   1.286   4.939  15.921 -2.2368 -1.5031 -0.1398
19035TIP3    H278597   1.157   5.016  15.937 -0.3974  1.2927  2.3055
19036TIP3   OH278598   1.983   1.224   3.541  0.5411  0.0641  0.0033
19036TIP3    H178599   1.952   1.205   3.452 -2.6628  0.5226  0.9284
19036TIP3    H278600   1.959   1.147   3.592 -0.0442  0.8778  0.9815
19037TIP3   OH278601   1.109   0.188  15.096  0.0632  0.3461 -0.3981
19037TIP3    H178602   1.136   0.097  15.103 -1.6659 -0.3001 -1.4749
19037TIP3    H278603   1.043   0.188  15.026 -0.8349  2.2112  0.3866
19038TIP3   OH278604   1.596   5.792   1.860 -0.2849 -0.1762  0.5100
19038TIP3    H178605   1.532   5.851   1.821  0.1966  0.5383  0.7758
19038TIP3    H278606   1.548   5.744   1.927 -0.8468 -0.5893 -0.1701
19039TIP3   OH278607   5.689   3.513   1.025  0.1724  0.6480  0.0927
19039TIP3    H178608   5.755   3.519   1.094  1.2454  1.6659 -0.9661
19039TIP3    H278609   5.612   3.557   1.061 -0.3870 -1.5326  1.7744
19040TIP3   OH278610   2.419   5.141  12.430  1.5407 -0.1621  0.1175
19040TIP3    H178611   2.483   5.086  12.384  2.7565  0.7028  0.7286
19040TIP3    H278612   2.460   5.161  12.514  1.3120  1.9554 -0.2082
19041TIP3   OH278613   4.030   4.654   3.024  0.2797 -0.8234  0.2191
19041TIP3    H178614   4.019   4.626   3.115  0.8390 -0.6661  0.3361
19041TIP3    H278615   4.084   4.732   3.029  0.0883 -0.6583 -0.2337
19042TIP3   OH278616   0.840   2.318  11.969  1.0300 -0.1899 -0.3736
19042TIP3    H178617   0.870   2.362  11.889  0.5055  0.2332 -0.3437
19042TIP3    H278618   0.910   2.256  11.990  0.5699 -1.3193 -1.9553
19043TIP3   OH278619   2.979   1.952  16.956  1.0890 -0.7578 -0.4805
19043TIP3    H178620   2.962   1.893  16.882  0.5197  0.9192 -1.7348
19043TIP3    H278621   2.905   1.938  17.015  0.0631 -0.0930 -1.5765
19044TIP3   OH278622   4.940   4.421   4.484 -0.0357 -0.0172 -0.5607
19044TIP3    H178623   4.956   4.329   4.461 -1.4043  0.3564 -3.5210
19044TIP3    H278624   4.847   4.424   4.506  0.7500  0.0876  3.4555
19045TIP3   OH278625   5.304   3.564  11.135 -0.3047 -0.6652  0.4191
19045TIP3    H178626   5.345   3.586  11.051 -0.8867  3.0168  0.9260
19045TIP3    H278627   5.377   3.539  11.191  0.3927 -0.7633 -0.5098
19046TIP3   OH278628   2.567   1.362   1.970 -1.0549 -0.1408 -0.4671
19046TIP3    H178629   2.608   1.277   1.987  1.3270  1.2128  1.3260
19046TIP3    H278630   2.595   1.384   1.881  0.4374 -0.1928 -0.0467
19047TIP3   OH278631   1.277   0.859  15.373  0.6432 -0.1329  0.4288
19047TIP3    H178632   1.272   0.807  15.292 -0.4555 -1.6559  1.4146
19047TIP3    H278633   1.329   0.805  15.433  1.5815  1.0510  0.7306
19048TIP3   OH278634   4.727   3.396  14.641  0.1784  0.0880  0.1281
19048TIP3    H178635   4.653   3.336  14.646 -0.5777  0.9234 -0.7147
19048TIP3    H278636   4.796   3.345  14.596 -0.2281 -0.3520 -0.0084
19049TIP3   OH278637   6.349   2.695  15.774 -0.5980 -0.0520 -0.5140
19049TIP3    H178638   6.342   2.648  15.857 -0.0919 -0.4277 -0.6837
19049TIP3    H278639   6.260   2.691  15.737 -0.6792 -0.4149 -0.2801
19050TIP3   OH278640   2.015   0.243  16.924  0.0054  0.2989  0.0469
19050TIP3    H178641   2.000   0.158  16.965  2.0373  0.1652  0.6166
19050TIP3    H278642   2.003   0.306  16.995  2.4980  0.1435  0.6760
19051TIP3   OH278643   4.916   0.776   3.415  0.1398 -0.2342  0.1235
19051TIP3    H178644   4.847   0.841   3.427  0.3197 -0.4035  2.6688
19051TIP3    H278645   4.954   0.765   3.503  0.5047 -3.3408 -0.3127
19052TIP3   OH278646   3.667   6.644   6.383 -0.0550  0.1518 -0.7271
19052TIP3    H178647   3.746   6.692   6.357 -0.2328  1.4848  1.0132
19052TIP3    H278648   3.595   6.692   6.342 -0.0446 -0.2632 -1.2263
19053TIP3   OH278649   1.961   3.909   3.670  0.0216 -0.5344 -0.0848
19053TIP3    H178650   2.044   3.945   3.702 -1.0482  0.8617  1.2448
19053TIP3    H278651   1.941   3.838   3.731  0.7553 -1.6184 -1.0672
19054TIP3   OH278652   3.616   1.702  11.335  0.0088  0.0087  0.1237
19054TIP3    H178653   3.648   1.723  11.247 -0.0232  0.6083  0.2490
19054TIP3    H278654   3.657   1.618  11.356  2.1731  1.1330  0.5988
19055TIP3   OH278655   2.481   1.260   3.812 -0.2901  0.3022  0.3824
19055TIP3    H178656   2.575   1.246   3.825 -0.0563  1.3858 -0.0166
19055TIP3    H278657   2.476   1.341   3.761 -1.4152 -0.2171 -0.3614
19056TIP3   OH278658   3.383   5.353  11.728 -0.4028  0.0919  0.0231
19056TIP3    H178659   3.310   5.305  11.690  0.5334 -1.1498 -0.2616
19056TIP3    H278660   3.343   5.434  11.761 -1.7997 -0.3021 -0.6033
19057TIP3   OH278661   6.070   0.040  12.747 -0.0353  1.1798 -0.6598
19057TIP3    H178662   6.105   0.126  12.722  0.9838  1.2203  0.7884
19057TIP3    H278663   6.024   0.057  12.829 -2.1238  0.8035 -1.6853
19058TIP3   OH278664   6.093   6.001   3.328  0.2589  0.1713 -0.6119
19058TIP3    H178665   6.139   5.924   3.362 -0.6060  0.0450  0.3043
19058TIP3    H278666   6.115   6.002   3.235  0.3785 -1.1238 -0.6209
19059TIP3   OH278667   6.509   1.126   0.162 -0.0021  0.2074  0.6775
19059TIP3    H178668   6.447   1.155   0.095 -0.0229 -0.9821  0.1583
19059TIP3    H278669   6.592   1.164   0.135 -0.0853  0.0420  0.1631
19060TIP3   OH278670   6.289   0.481  11.021 -0.0246 -0.1339  0.2056
19060TIP3    H178671   6.328   0.568  11.032  1.6422 -0.8778  0.4706
19060TIP3    H278672   6.268   0.476  10.928 -2.9640  1.6360  0.6404
19061TIP3   OH278673   4.278   6.097  15.226 -0.3148 -0.3660  0.0738
19061TIP3    H178674   4.301   6.181  15.265  0.3976  1.3016 -3.4866
19061TIP3    H278675   4.361   6.050  15.219  0.0137  0.3800 -1.4903
19062TIP3   OH278676   1.930   5.896  16.788 -0.3968  0.3043 -0.3884
19062TIP3    H178677   1.981   5.974  16.810  0.8985 -0.2388 -1.3038
19062TIP3    H278678   1.866   5.927  16.723  0.7799  0.4453 -1.5228
19063TIP3   OH278679   4.972   6.580  15.508 -0.6672 -0.2621 -0.3174
19063TIP3    H178680   4.911   6.608  15.576 -1.4248  1.9556 -1.7657
19063TIP3    H278681   4.959   6.486  15.501 -3.5036  0.0219 -0.1163
19064TIP3   OH278682   3.020   6.002   3.140  0.3049 -0.8175 -0.2182
19064TIP3    H178683   3.047   5.946   3.068 -0.2025 -1.2755 -0.0637
19064TIP3    H278684   2.960   5.947   3.191  0.2824 -0.3367  0.2754
19065TIP3   OH278685   0.805   1.229   3.516 -0.3532 -0.5009  0.0856
19065TIP3    H178686   0.884   1.223   3.462 -1.2921  0.2455 -1.4292
19065TIP3    H278687   0.760   1.146   3.502 -0.5057 -0.3813 -0.1347
19066TIP3   OH278688   6.664   1.504  16.198 -0.3648 -0.1375  0.3817
19066TIP3    H178689   6.725   1.567  16.159 -1.8286  0.4152 -1.1034
19066TIP3    H278690   6.647   1.539  16.286 -2.0065  2.2380 -0.7886
19067TIP3   OH278691   6.132   3.118   4.720  0.4390  0.3257 -0.0581
19067TIP3    H178692   6.129   3.211   4.697  1.1905 -0.3490 -3.3787
19067TIP3    H278693   6.223   3.093   4.707  0.2482 -0.8930  0.7809
19068TIP3   OH278694   4.912   3.626  15.889 -0.3500 -0.0007  0.3423
19068TIP3    H178695   4.827   3.667  15.871 -0.9636 -1.7267 -0.9735
19068TIP3    H278696   4.975   3.698  15.883 -1.6422  1.2148  0.7634
19069TIP3   OH278697   6.608   5.872  11.545 -0.3630 -0.2529 -0.2016
19069TIP3    H178698   6.636   5.849  11.633  0.5275  1.2897 -0.0500
19069TIP3    H278699   6.526   5.921  11.557  0.1719  0.6458 -0.1550
19070TIP3   OH278700   1.495   4.238  15.793 -0.2218 -0.0561 -0.6283
19070TIP3    H178701   1.489   4.155  15.745 -3.6617 -0.1168 -0.3089
19070TIP3    H278702   1.405   4.269  15.800  0.5781  2.0568  2.2107
19071TIP3   OH278703   3.903   3.065   1.669  0.0669 -0.0211 -0.1462
19071TIP3    H178704   3.924   3.068   1.762 -0.6297 -0.8564  0.0376
19071TIP3    H278705   3.814   3.099   1.663  0.6464  1.5237 -0.7042
19072TIP3   OH278706   1.950   3.682  16.685 -0.1246 -0.0484 -0.9243
19072TIP3    H178707   1.889   3.752  16.707 -0.5198 -0.6722  0.0650
19072TIP3    H278708   2.016   3.685  16.753  0.7681  0.3928 -1.7956
19073TIP3   OH278709   6.684   3.447   2.623  0.1826 -0.5545  0.5539
19073TIP3    H178710   6.770   3.483   2.602  0.2866  0.6744  2.8194
19073TIP3    H278711   6.702   3.356   2.648  0.5260 -0.8782 -0.7648
19074TIP3   OH278712   5.335   2.010  15.520  0.2363  0.3308 -0.1744
19074TIP3    H178713   5.277   2.072  15.477  0.3120  0.6977  0.2364
19074TIP3    H278714   5.350   1.942  15.455 -0.9752  0.0184 -0.1551
19075TIP3   OH278715   3.884   4.975  13.139  0.0125  0.5952  0.2645
19075TIP3    H178716   3.804   4.934  13.171  0.3453  0.1976  0.6036
19075TIP3    H278717   3.855   5.058  13.102 -0.5139  0.6244  0.7192
19076TIP3   OH278718   5.320   5.662   2.529 -0.1861 -0.0306 -0.0056
19076TIP3    H178719   5.266   5.599   2.482 -1.7227  0.1296  1.4629
19076TIP3    H278720   5.375   5.609   2.587 -0.0921 -0.0981 -0.1552
19077TIP3   OH278721   4.146   0.560   2.422  0.4660 -0.5035  0.1324
19077TIP3    H178722   4.177   0.650   2.420  0.5312 -0.4317  2.1606
19077TIP3    H278723   4.057   0.564   2.387  0.6057  0.2707 -0.1503
19078TIP3   OH278724   4.165   5.044   2.181  0.1526  0.1010  0.0696
19078TIP3    H178725   4.156   4.950   2.194  1.4851 -0.4318 -2.2716
19078TIP3    H278726   4.075   5.076   2.175 -0.3242 -1.3017 -0.7522
19079TIP3   OH278727   2.979   0.332   5.995  0.4831 -0.0732  0.2807
19079TIP3    H178728   2.947   0.333   5.905  0.1010  0.0702  0.4150
19079TIP3    H278729   3.043   0.261   5.997 -0.9979 -1.4619  0.4048
19080TIP3   OH278730   5.871   0.882  12.137  0.2669  0.0531 -0.0009
19080TIP3    H178731   5.877   0.942  12.063 -0.9708  1.5797  1.0679
19080TIP3    H278732   5.874   0.795  12.098  2.5631  0.7451 -1.5716
19081TIP3   OH278733   0.718   3.157  15.003  0.2381  0.4234 -0.3348
19081TIP3    H178734   0.636   3.178  14.958 -0.7479 -1.7674  0.2995
19081TIP3    H278735   0.712   3.203  15.087 -0.3452  0.2735 -0.2922
19082TIP3   OH278736   5.558   4.962   3.145  0.1290 -0.3108  0.1557
19082TIP3    H178737   5.601   4.913   3.216  0.2129 -1.4963 -0.6782
19082TIP3    H278738   5.597   5.049   3.150 -0.1587 -0.2414  1.8096
19083TIP3   OH278739   0.386   2.827   0.775 -0.1122  0.1582  0.1011
19083TIP3    H178740   0.347   2.741   0.788 -0.7201  0.1358 -1.6209
19083TIP3    H278741   0.478   2.815   0.797 -0.2613 -0.8414  0.2310
19084TIP3   OH278742   0.826   6.705  16.919 -0.0569 -0.0193  0.4524
19084TIP3    H178743   0.770   6.697  16.996 -0.8818 -1.7288 -0.2729
19084TIP3    H278744   0.879   6.783  16.936 -2.6002  1.6689  1.1884
19085TIP3   OH278745   0.526   3.628  15.128 -0.3936 -0.2406 -0.2542
19085TIP3    H178746   0.560   3.631  15.038 -0.9986 -0.4143 -0.4919
19085TIP3    H278747   0.479   3.711  15.139 -0.0365 -0.0692  0.0241
19086TIP3   OH278748   5.024   5.148   2.477 -0.0396 -0.3522 -0.2136
19086TIP3    H178749   5.070   5.070   2.449 -0.3990 -0.6569  0.0316
19086TIP3    H278750   5.084   5.220   2.458  1.9143 -0.9573  2.8776
19087TIP3   OH278751   0.656   3.545  13.767  0.4204 -0.2650  0.3648
19087TIP3    H178752   0.600   3.530  13.691  1.0104  0.9655 -0.3184
19087TIP3    H278753   0.601   3.518  13.842 -0.7863  0.1489 -0.3471
19088TIP3   OH278754   1.594   3.829  11.441 -0.1878 -0.1700  0.7634
19088TIP3    H178755   1.517   3.805  11.390  0.4887 -0.1780 -0.2659
19088TIP3    H278756   1.649   3.879  11.381  1.0501 -0.9548  1.2028
19089TIP3   OH278757   5.567   1.666  15.765 -0.4869  0.1729 -0.1855
19089TIP3    H178758   5.619   1.588  15.787 -0.6560  0.6248  2.1188
19089TIP3    H278759   5.631   1.728  15.731  0.3974  0.3683  1.6794
19090TIP3   OH278760   0.948   5.070  15.990 -0.3400 -0.1381 -0.0772
19090TIP3    H178761   0.890   5.036  16.058  1.2562 -0.5255  1.1731
19090TIP3    H278762   0.931   5.164  15.988 -0.1327 -0.0616  1.1661
19091TIP3   OH278763   5.547   2.854   3.708 -0.4012  0.1881  0.1525
19091TIP3    H178764   5.532   2.942   3.743 -1.9820 -1.0891  3.0242
19091TIP3    H278765   5.642   2.850   3.695 -0.4667  2.9833 -2.3136
19092TIP3   OH278766   6.685   3.245  14.187 -0.1965 -0.7059 -0.1557
19092TIP3    H178767   6.633   3.284  14.258  0.6127 -2.8149  1.7021
19092TIP3    H278768   6.666   3.300  14.111  0.5074  3.0324  2.1152
19093TIP3   OH278769   6.437   1.337  15.940 -0.2433  0.3286 -0.3716
19093TIP3    H178770   6.532   1.326  15.928 -0.5786 -1.6920 -1.6416
19093TIP3    H278771   6.428   1.365  16.031  1.5428  0.0434 -0.0657
19094TIP3   OH278772   2.065   2.971  15.152 -0.2927 -0.1800  0.2428
19094TIP3    H178773   2.114   2.931  15.080 -0.6581 -0.5724  0.2048
19094TIP3    H278774   1.975   2.973  15.120 -0.0457  2.3079 -0.4787
19095TIP3   OH278775   6.344   3.665  16.532 -0.3605 -0.2610  0.3442
19095TIP3    H178776   6.308   3.722  16.464 -0.3072 -0.5694  0.0556
19095TIP3    H278777   6.300   3.693  16.612 -1.0161 -0.4362  0.0473
19096TIP3   OH278778   3.046   6.790   3.796 -0.4469  0.0812  0.0593
19096TIP3    H178779   3.123   6.845   3.785 -0.6739  0.3579 -0.1382
19096TIP3    H278780   3.040   6.740   3.714  2.0230 -3.1532  1.6037
19097TIP3   OH278781   3.296   4.132  12.331 -0.2068  0.3810  0.5457
19097TIP3    H178782   3.354   4.170  12.397  1.0388  1.9392 -1.3289
19097TIP3    H278783   3.234   4.203  12.311  1.0658  0.9292 -1.7681
19098TIP3   OH278784   2.393   1.691   4.837 -0.8564  0.5531 -0.1671
19098TIP3    H178785   2.375   1.597   4.827  0.1351  0.3059  0.3066
19098TIP3    H278786   2.460   1.696   4.905  1.4868  1.3510 -2.3709
19099TIP3   OH278787   2.781   6.319  16.224 -0.5619  0.0935 -0.5800
19099TIP3    H178788   2.816   6.402  16.192  0.7510 -0.0209  0.4864
19099TIP3    H278789   2.733   6.342  16.303  1.5712 -0.3632  0.9211
19100TIP3   OH278790   6.667   2.344   5.466  0.1391 -0.2141  0.3612
19100TIP3    H178791   6.646   2.403   5.538  0.4156 -0.5409  0.7127
19100TIP3    H278792   6.761   2.357   5.451  0.6011 -1.7753  1.5809
19101TIP3   OH278793   4.127   0.145  12.348 -0.3480 -0.2273  0.2143
19101TIP3    H178794   4.059   0.175  12.409 -0.5067 -0.3054  0.0758
19101TIP3    H278795   4.110   0.051  12.337  0.6192 -0.5522  1.2576
19102TIP3   OH278796   6.709   6.240  16.698  0.0730 -0.2947 -0.3071
19102TIP3    H178797   6.656   6.206  16.770  0.7474  0.1884  0.4254
19102TIP3    H278798   6.773   6.171  16.681  0.9366  0.2567  0.6477
19103TIP3   OH278799   5.333   3.148  13.967 -0.0859 -0.3646 -0.3436
19103TIP3    H178800   5.369   3.222  14.017 -0.3856 -0.3367 -0.1688
19103TIP3    H278801   5.238   3.155  13.979 -0.1438 -0.4872 -0.7354
19104TIP3   OH278802   4.153   1.271   4.614  0.7062 -0.6537  0.4353
19104TIP3    H178803   4.137   1.245   4.705  0.4084 -0.9776  0.2897
19104TIP3    H278804   4.208   1.349   4.622 -0.0743 -0.1368  0.9139
19105TIP3   OH278805   0.550   2.708  15.744  0.0270  0.0320 -0.2163
19105TIP3    H178806   0.497   2.774  15.789 -0.8258 -1.3556  0.9309
19105TIP3    H278807   0.567   2.745  15.658 -0.3910  1.7437  0.3914
19106TIP3   OH278808   1.473   2.476  13.866  0.0234 -0.0655 -0.0155
19106TIP3    H178809   1.445   2.389  13.840 -2.0671  0.0636  1.5877
19106TIP3    H278810   1.517   2.464  13.950 -0.1366  0.3896  0.1398
19107TIP3   OH278811   0.428   4.087  13.776 -0.1381 -0.6081 -0.7386
19107TIP3    H178812   0.489   4.088  13.849 -0.6170  1.9387 -0.2845
19107TIP3    H278813   0.348   4.127  13.811 -1.4535 -2.1637 -1.8282
19108TIP3   OH278814   4.575   2.666   5.638 -0.3195 -0.2284 -0.5637
19108TIP3    H178815   4.556   2.755   5.666  1.2626  0.2617 -0.9607
19108TIP3    H278816   4.537   2.610   5.707 -0.1786  0.7978  0.3711
19109TIP3   OH278817   4.570   2.547   2.753 -0.3216 -0.0186  0.0403
19109TIP3    H178818   4.487   2.554   2.708  0.5577  1.3305 -1.4762
19109TIP3    H278819   4.608   2.465   2.721 -0.9056 -0.4773  0.4970
19110TIP3   OH278820   2.912   2.240  15.926 -0.2005  0.2863  0.0718
19110TIP3    H178821   2.891   2.218  16.016 -0.6926 -0.0633 -0.1203
19110TIP3    H278822   2.943   2.158  15.887 -0.3900  0.3319 -0.1825
19111TIP3   OH278823   6.490   5.167   2.124 -0.1515  0.2646 -0.7675
19111TIP3    H178824   6.506   5.247   2.174  0.3622  0.3346 -1.0274
19111TIP3    H278825   6.395   5.159   2.120 -0.2000  0.2742  0.1866
19112TIP3   OH278826   3.624   6.781   5.481 -0.0238 -0.0083 -0.1602
19112TIP3    H178827   3.652   6.703   5.529  0.4199  0.3172  0.1202
19112TIP3    H278828   3.543   6.808   5.524  1.6568  1.7652  2.1480
19113TIP3   OH278829   6.718   0.519   1.237  0.2218  0.3354  0.0302
19113TIP3    H178830   6.770   0.464   1.179 -3.2307 -1.6333 -1.5449
19113TIP3    H278831   6.715   0.604   1.193  1.1483  0.1717 -0.3776
19114TIP3   OH278832   0.406   3.971  14.167 -0.4273 -0.6047 -0.3520
19114TIP3    H178833   0.482   3.920  14.196 -1.5845 -2.5755 -0.6237
19114TIP3    H278834   0.359   3.992  14.247  0.1164  0.1828 -0.2288
19115TIP3   OH278835   3.992   5.343  14.077  0.1076  0.0199 -0.2365
19115TIP3    H178836   3.935   5.419  14.090  2.0103  1.6312 -0.9192
19115TIP3    H278837   3.993   5.300  14.163 -1.2669  0.5702  0.0789
19116TIP3   OH278838   2.528   3.771   2.476 -0.4921  0.3666 -0.0491
19116TIP3    H178839   2.601   3.711   2.489 -2.0847 -1.8141 -0.7213
19116TIP3    H278840   2.495   3.789   2.564  0.5090  0.9857  0.2184
19117TIP3   OH278841   5.401   5.249   6.330 -0.0094 -0.2083  0.6599
19117TIP3    H178842   5.440   5.326   6.371  2.6260 -1.1145  0.0702
19117TIP3    H278843   5.414   5.179   6.394  0.8165 -0.8705 -0.2183
19118TIP3   OH278844   5.301   2.995   3.160 -0.2091  0.5323  0.1182
19118TIP3    H178845   5.274   2.929   3.225 -2.0742  1.5540  0.4656
19118TIP3    H278846   5.286   3.078   3.204 -0.4476  1.2287 -1.2424
19119TIP3   OH278847   1.446   2.932   5.240  0.2161  0.0474  0.1336
19119TIP3    H178848   1.482   2.852   5.278  0.2448 -0.3715 -0.7606
19119TIP3    H278849   1.410   2.980   5.315  0.3210 -0.7282  0.6922
19120TIP3   OH278850   4.882   5.809  13.559 -0.3055 -0.6839  0.5572
19120TIP3    H178851   4.833   5.840  13.484  0.7518  0.3217  0.2439
19120TIP3    H278852   4.865   5.715  13.563 -1.1415 -0.5758 -0.3441
19121TIP3   OH278853   5.473   4.494  10.462 -0.0957  0.1830 -0.1178
19121TIP3    H178854   5.455   4.401  10.447 -1.6497  0.2922  0.8891
19121TIP3    H278855   5.390   4.538  10.445  0.4068  1.3023  0.2197
19122TIP3   OH278856   4.522   6.007  14.737 -0.3704 -0.0014 -0.1450
19122TIP3    H178857   4.449   5.948  14.719 -0.1572  0.1955 -1.8355
19122TIP3    H278858   4.486   6.073  14.796 -2.2152  1.2416 -2.4619
19123TIP3   OH278859   2.339   4.772   1.341  0.9136  0.2587  0.0764
19123TIP3    H178860   2.328   4.867   1.349  1.9866  0.3379  0.8673
19123TIP3    H278861   2.253   4.740   1.315  0.7372  1.5264 -1.0176
19124TIP3   OH278862   6.352   1.846  12.321 -0.1800  0.0000  0.5418
19124TIP3    H178863   6.350   1.904  12.397  0.2395  0.0127  0.5449
19124TIP3    H278864   6.435   1.866  12.277 -0.0415 -0.5795  0.5326
19125TIP3   OH278865   0.208   0.472   2.739  0.1291 -0.0217  0.1303
19125TIP3    H178866   0.124   0.426   2.739 -0.1767  0.5290  0.0319
19125TIP3    H278867   0.272   0.406   2.766 -0.3316 -0.4503  0.1785
19126TIP3   OH278868   5.059   4.449  15.654  0.2240  0.1187 -0.6402
19126TIP3    H178869   5.048   4.451  15.749  0.4948 -1.6100 -0.5493
19126TIP3    H278870   4.992   4.509  15.620  1.5537  2.5485  0.7096
19127TIP3   OH278871   5.594   1.892  12.674  0.4048  0.5625  0.0638
19127TIP3    H178872   5.535   1.965  12.652 -0.8494 -0.5138 -0.3037
19127TIP3    H278873   5.653   1.887  12.599  2.8209  3.3260  1.5634
19128TIP3   OH278874   1.937   0.253   5.332  0.0528  0.3270 -0.6485
19128TIP3    H178875   1.935   0.178   5.272  0.6298 -1.1481  1.0855
19128TIP3    H278876   2.030   0.276   5.338  0.8901 -2.8301  3.3552
19129TIP3   OH278877   6.152   2.858   5.436  0.9138  0.1464  0.5922
19129TIP3    H178878   6.182   2.869   5.346  0.7755 -1.9667  0.2371
19129TIP3    H278879   6.069   2.905   5.440  0.7980  0.0467 -0.4669
19130TIP3   OH278880   1.718   1.584   5.735 -0.3762 -0.2361  0.5890
19130TIP3    H178881   1.790   1.616   5.681 -1.0254  0.8750  0.3568
19130TIP3    H278882   1.735   1.622   5.822 -1.3053  1.0246  0.2408
19131TIP3   OH278883   3.796   0.832  11.568  0.4917 -0.1480 -0.4161
19131TIP3    H178884   3.862   0.856  11.503 -0.5676  0.0215 -1.4599
19131TIP3    H278885   3.810   0.893  11.641  0.7089  0.6966 -1.1508
19132TIP3   OH278886   6.634   2.918  13.550 -0.4926 -0.0834  0.6719
19132TIP3    H178887   6.574   2.970  13.603  0.6010  0.9436  0.9575
19132TIP3    H278888   6.697   2.982  13.516  1.3736 -1.2860  1.6712
19133TIP3   OH278889   6.228   1.925   4.269 -0.0608 -0.2286  0.2863
19133TIP3    H178890   6.227   1.999   4.209 -0.2772 -0.6547 -0.2514
19133TIP3    H278891   6.241   1.849   4.213 -0.4393 -0.6526  0.7575
19134TIP3   OH278892   6.209   4.671   4.016 -0.6530 -0.2340 -0.0988
19134TIP3    H178893   6.117   4.681   3.993 -1.1803 -1.8512  1.1666
19134TIP3    H278894   6.224   4.577   4.016  0.9812 -0.0071 -0.1217
19135TIP3   OH278895   0.919   0.863  14.986 -0.4591 -0.3133  0.1046
19135TIP3    H178896   0.974   0.798  14.943 -2.0558 -0.5229 -1.7932
19135TIP3    H278897   0.969   0.944  14.981 -0.6274 -0.3018 -2.4107
19136TIP3   OH278898   4.296   3.835   5.086  0.0446  0.2721  0.0551
19136TIP3    H178899   4.337   3.809   5.168  0.3794  1.3184  0.2374
19136TIP3    H278900   4.204   3.849   5.108  0.5271  2.8586  0.8687
19137TIP3   OH278901   6.182   2.704   2.684 -0.1501  0.2321  0.8122
19137TIP3    H178902   6.170   2.748   2.600 -1.2232 -1.4087  0.0618
19137TIP3    H278903   6.274   2.716   2.705 -0.0011  1.1757 -0.2847
19138TIP3   OH278904   4.303   0.256   1.636  0.5135 -0.2028  0.5310
19138TIP3    H178905   4.331   0.345   1.657  0.0395 -0.0194  0.4011
19138TIP3    H278906   4.304   0.210   1.720 -0.3424  0.2390  0.7972
19139TIP3   OH278907   0.289   6.833  11.873 -0.3844 -0.0140  0.1213
19139TIP3    H178908   0.275   6.742  11.896 -0.7598  0.1251  0.4510
19139TIP3    H278909   0.313   6.831  11.780  0.7053 -0.5377  0.4005
19140TIP3   OH278910   2.375   4.020  11.776 -0.8423 -0.2922 -1.0158
19140TIP3    H178911   2.362   4.100  11.827  0.1911  0.1749 -1.4533
19140TIP3    H278912   2.452   3.979  11.814  1.1910  1.0716 -3.3326
19141TIP3   OH278913   0.115   6.324   4.165  0.8720 -0.4517  0.5880
19141TIP3    H178914   0.136   6.321   4.072  0.0234  1.3752  0.2944
19141TIP3    H278915   0.030   6.369   4.169  0.0365 -2.0487  2.1319
19142TIP3   OH278916   1.559   2.189  17.114  0.2598 -0.4988  0.2561
19142TIP3    H178917   1.611   2.200  17.034  0.7154  0.3693  0.6519
19142TIP3    H278918   1.617   2.219  17.184 -1.2047  1.8450  0.5703
19143TIP3   OH278919   5.385   1.317   0.880 -0.0800 -0.6202  0.3757
19143TIP3    H178920   5.334   1.259   0.824  0.7327 -1.0737  0.0927
19143TIP3    H278921   5.326   1.390   0.899 -1.2994 -1.7621  1.1454
19144TIP3   OH278922   3.607   2.770  14.549 -0.9374  0.3688 -0.5420
19144TIP3    H178923   3.702   2.774  14.549 -0.9425  1.3434  1.0312
19144TIP3    H278924   3.587   2.684  14.585 -0.6545  0.3686 -0.3836
19145TIP3   OH278925   4.806   5.539  15.576  0.3929 -0.4867  1.0244
19145TIP3    H178926   4.775   5.498  15.656 -1.4789  0.4043  0.8262
19145TIP3    H278927   4.789   5.475  15.507  0.8888 -0.7844  1.1759
19146TIP3   OH278928   2.425   3.946   5.032 -0.0487 -0.5247  0.0993
19146TIP3    H178929   2.363   3.964   5.103 -0.6895 -0.5458 -0.4426
19146TIP3    H278930   2.492   3.890   5.072 -0.2206 -0.2580  0.7685
19147TIP3   OH278931   0.031   1.485  12.954 -0.0145  0.0191  0.1227
19147TIP3    H178932  -0.044   1.542  12.939  0.6015  1.0856  0.9756
19147TIP3    H278933   0.107   1.544  12.951  0.5662 -0.5964  1.8672
19148TIP3   OH278934   6.242   5.757   3.697  0.1051  0.1818 -0.4391
19148TIP3    H178935   6.300   5.724   3.765  0.7907  2.2258  0.0280
19148TIP3    H278936   6.155   5.758   3.738  0.0687 -0.9164 -0.4541
19149TIP3   OH278937   2.942   1.088  14.332  0.2859  0.2134  0.0397
19149TIP3    H178938   2.851   1.062  14.318  0.2826  0.7359 -1.0438
19149TIP3    H278939   2.987   1.062  14.251  1.0365  0.2459  0.4341
19150TIP3   OH278940   0.312   6.089   5.622 -0.3264  0.4287  0.5664
19150TIP3    H178941   0.277   6.124   5.540  1.7932 -0.5282 -0.8304
19150TIP3    H278942   0.393   6.138   5.637  2.8890 -3.6249 -1.5955
19151TIP3   OH278943   4.459   2.829   1.591 -0.3486 -0.3793  0.0143
19151TIP3    H178944   4.494   2.906   1.636 -0.1803 -0.3648 -0.1410
19151TIP3    H278945   4.463   2.852   1.498  2.4818 -1.7008 -0.2682
19152TIP3   OH278946   6.398   3.068  14.696 -0.1239  0.0683  0.0757
19152TIP3    H178947   6.335   3.050  14.626  1.8973 -0.3416 -1.7203
19152TIP3    H278948   6.370   3.152  14.732 -2.7854 -0.9712  0.6597
19153TIP3   OH278949   1.143   4.751  15.725  0.0358 -0.3082 -0.1656
19153TIP3    H178950   1.204   4.759  15.799 -0.7929  2.3585  0.3386
19153TIP3    H278951   1.093   4.833  15.726 -0.3100 -0.3475 -3.4534
19154TIP3   OH278952   5.544   3.939  15.682 -0.4647 -0.1221  0.2916
19154TIP3    H178953   5.513   4.024  15.712  0.7707  0.4227  0.0665
19154TIP3    H278954   5.600   3.907  15.753 -0.0006 -0.2272 -0.1237
19155TIP3   OH278955   4.198   6.426  12.724  0.0676 -0.1504  0.0444
19155TIP3    H178956   4.109   6.391  12.721  0.3031 -0.6564 -2.3928
19155TIP3    H278957   4.196   6.503  12.668  0.7620  0.9074  1.4200
19156TIP3   OH278958   6.401   1.073  13.441  0.2163  0.1107 -0.4883
19156TIP3    H178959   6.320   1.058  13.394 -0.2931  2.8261 -0.6305
19156TIP3    H278960   6.374   1.094  13.530  0.8222  0.1730 -0.3100
19157TIP3   OH278961   6.172   2.812  11.899 -0.3213  0.1945 -0.3061
19157TIP3    H178962   6.187   2.901  11.933 -0.4336 -0.0722  0.4636
19157TIP3    H278963   6.078   2.809  11.882 -0.0540  0.8050 -2.0584
19158TIP3   OH278964   0.448   3.123   4.302  0.0458  0.1530 -0.2411
19158TIP3    H178965   0.534   3.152   4.271  0.6004  0.0749  1.1532
19158TIP3    H278966   0.425   3.187   4.370  0.0129 -1.0586  0.9246
19159TIP3   OH278967   6.456   3.427  15.614  0.0792 -0.5834 -0.3146
19159TIP3    H178968   6.447   3.488  15.687 -0.0075  1.9239 -2.2504
19159TIP3    H278969   6.371   3.383  15.609 -0.8188  1.0611 -0.3762
19160TIP3   OH278970   1.633   0.639  15.769  0.2645 -0.0833 -0.4282
19160TIP3    H178971   1.704   0.665  15.710  0.4436  1.9727  0.6090
19160TIP3    H278972   1.677   0.601  15.845  0.2493  0.6745 -0.0310
19161TIP3   OH278973   3.035   6.760   2.126  0.0592 -0.0333 -0.0333
19161TIP3    H178974   2.944   6.783   2.105  0.1340  0.9087  0.6373
19161TIP3    H278975   3.027   6.677   2.174 -0.6112  0.8897  1.5200
19162TIP3   OH278976   1.260   1.333  16.999  0.4297  0.8650 -0.3021
19162TIP3    H178977   1.257   1.246  17.040  2.7625  0.5958 -0.5589
19162TIP3    H278978   1.206   1.388  17.056 -1.9582 -0.9154 -0.6964
19163TIP3   OH278979   0.631   5.234  15.048 -0.1987  0.3012  0.1736
19163TIP3    H178980   0.665   5.321  15.069 -0.2610 -0.0428  1.8294
19163TIP3    H278981   0.637   5.228  14.952 -0.8237  2.3722 -0.0271
19164TIP3   OH278982   3.481   5.251  11.964 -0.3663  0.2477 -0.2133
19164TIP3    H178983   3.394   5.268  12.000 -1.0668 -1.0566 -1.1910
19164TIP3    H278984   3.468   5.250  11.869  1.0754  1.7362 -0.4761
19165TIP3   OH278985   0.774   0.939   3.463  0.1716  0.0815 -0.0575
19165TIP3    H178986   0.679   0.923   3.469 -0.0597  0.2029 -2.5178
19165TIP3    H278987   0.809   0.858   3.426  0.7415  0.7538 -0.9999
19166TIP3   OH278988   0.923   1.451  15.092  0.2505  0.1300 -0.6502
19166TIP3    H178989   0.838   1.449  15.134 -0.3070 -1.5614 -1.7319
19166TIP3    H278990   0.905   1.478  15.002  0.8693 -0.1154 -0.8580
19167TIP3   OH278991   5.312   3.421  15.516 -0.1451  0.0893 -0.5165
19167TIP3    H178992   5.279   3.390  15.600  0.1090  0.4906 -0.2615
19167TIP3    H278993   5.267   3.505  15.503 -0.7714 -0.3390 -1.1595
19168TIP3   OH278994   2.098   3.168  16.756 -0.3551  0.0107  0.0644
19168TIP3    H178995   2.108   3.227  16.831  1.2111  1.1042 -0.9344
19168TIP3    H278996   2.102   3.080  16.793 -1.4147  0.5149  1.4471
19169TIP3   OH278997   2.251   5.517  16.749  0.2143  0.4271 -0.0138
19169TIP3    H178998   2.318   5.454  16.723 -0.5117 -0.3536 -0.0436
19169TIP3    H278999   2.300   5.593  16.781  1.1053  0.2852 -1.0109
19170TIP3   OH279000   0.283   3.769   5.033 -0.0121 -0.2434 -0.3711
19170TIP3    H179001   0.367   3.791   4.993  0.8555  1.0834  2.0100
19170TIP3    H279002   0.219   3.783   4.963  1.4519  1.5546 -1.4470
19171TIP3   OH279003   5.610   1.612  11.490 -0.3000  0.4481  0.5381
19171TIP3    H179004   5.527   1.653  11.515 -1.4219 -1.3088 -0.0775
19171TIP3    H279005   5.648   1.672  11.426 -0.9315  1.4415  1.0676
19172TIP3   OH279006   0.345   5.210  15.056 -0.7990 -0.6575  0.5633
19172TIP3    H179007   0.341   5.177  14.966 -0.8944  0.2942  0.2058
19172TIP3    H279008   0.439   5.212  15.077 -0.7033  0.1655  0.0782
19173TIP3   OH279009   3.361   5.409  15.390  0.0327 -0.0424 -0.5709
19173TIP3    H179010   3.380   5.459  15.470 -1.2819  1.3542 -1.0939
19173TIP3    H279011   3.266   5.410  15.383  0.0122 -1.9264 -1.0838
19174TIP3   OH279012   2.955   1.292   4.338  0.2186  0.1954  0.1983
19174TIP3    H179013   3.006   1.371   4.322 -1.2595  0.8992 -1.2717
19174TIP3    H279014   2.865   1.323   4.351 -0.2317 -1.1706  0.5545
19175TIP3   OH279015   2.296   0.875   4.297  0.5909  0.0498  0.5268
19175TIP3    H179016   2.357   0.803   4.312  2.0047  0.4475 -2.6641
19175TIP3    H279017   2.226   0.837   4.245 -1.1599  0.0166  2.7230
19176TIP3   OH279018   5.130   6.294  14.996 -0.0756 -0.3883  0.5162
19176TIP3    H179019   5.167   6.207  15.003 -0.5721 -0.4517  3.0728
19176TIP3    H279020   5.177   6.347  15.060  1.4111  1.7575 -2.1063
19177TIP3   OH279021   3.854   4.641   5.525 -0.2921  0.4654  0.4875
19177TIP3    H179022   3.864   4.710   5.461  0.4032  1.4390  1.6057
19177TIP3    H279023   3.831   4.563   5.474  2.4878  0.6284 -1.1939
19178TIP3   OH279024   6.718   5.644  16.906  0.1372  0.5493  0.0060
19178TIP3    H179025   6.773   5.626  16.983  0.5673 -3.7427 -1.0464
19178TIP3    H279026   6.780   5.666  16.837  0.5841 -2.8059 -0.8011
19179TIP3   OH279027   0.301   1.367  12.170 -0.7434 -0.0929 -0.3139
19179TIP3    H179028   0.284   1.346  12.262 -0.9546  0.1587 -0.2956
19179TIP3    H279029   0.326   1.459  12.170 -2.6523  0.4608 -0.7315
19180TIP3   OH279030   0.690   1.545  13.557 -0.1900 -0.0198  0.2299
19180TIP3    H179031   0.713   1.537  13.465  0.7795  1.3946  0.3265
19180TIP3    H279032   0.723   1.465  13.597  2.9307  1.0352  0.0106
19181TIP3   OH279033   5.811   3.809  12.044 -0.2291  0.3060 -0.5093
19181TIP3    H179034   5.717   3.810  12.024 -0.1680 -2.4971 -1.3744
19181TIP3    H279035   5.850   3.865  11.977 -1.1110 -0.2074 -1.4896
19182TIP3   OH279036   3.285   2.885  15.697  0.1390  0.2246  0.3832
19182TIP3    H179037   3.348   2.848  15.636 -3.4845 -2.2575 -2.3388
19182TIP3    H279038   3.242   2.809  15.736 -2.1049  1.6671  0.9531
19183TIP3   OH279039   5.176   5.664  16.009  0.6668  0.0052 -0.0798
19183TIP3    H179040   5.087   5.634  15.989  0.4657 -0.0552  0.8512
19183TIP3    H279041   5.201   5.614  16.087  1.8319 -0.5661 -0.7957
19184TIP3   OH279042   4.742   1.165  10.616 -0.5402 -0.5576  0.0410
19184TIP3    H179043   4.708   1.177  10.527 -1.5904 -1.0675  0.3535
19184TIP3    H279044   4.719   1.246  10.662  0.0707 -0.2630 -0.1724
19185TIP3   OH279045   1.772   0.764   1.542  0.6806 -0.0504  0.3284
19185TIP3    H179046   1.688   0.751   1.586 -0.0039  0.4951 -0.8007
19185TIP3    H279047   1.825   0.812   1.606 -0.5381  1.3647  0.3037
19186TIP3   OH279048   6.167   6.246   6.633 -0.3237  0.0424  0.5304
19186TIP3    H179049   6.210   6.314   6.684  0.7116  0.2947 -0.6282
19186TIP3    H279050   6.156   6.285   6.546 -0.1451 -1.0912 -0.0179
19187TIP3   OH279051   5.366   1.727  14.447  0.2997  0.2675 -0.9600
19187TIP3    H179052   5.382   1.816  14.479  0.3649  0.2983 -1.0768
19187TIP3    H279053   5.369   1.672  14.525 -0.5448  0.4719 -0.7707
19188TIP3   OH279054   0.715   1.605   5.221 -0.3067 -0.6890 -0.0526
19188TIP3    H179055   0.761   1.539   5.170 -1.9497 -0.9445 -1.3115
19188TIP3    H279056   0.752   1.688   5.192  0.2466 -0.9477 -0.0927
19189TIP3   OH279057   3.568   4.302   6.003 -0.3594  0.2429  0.2178
19189TIP3    H179058   3.644   4.251   5.977 -0.0130  1.5433 -1.5366
19189TIP3    H279059   3.604   4.384   6.036 -0.9268  1.8799 -2.8848
19190TIP3   OH279060   3.406   4.457  11.337  0.6045 -0.2347  0.1813
19190TIP3    H179061   3.346   4.521  11.297 -0.4426 -0.2524  1.6460
19190TIP3    H279062   3.348   4.388  11.369  1.0558  0.8276  3.7091
19191TIP3   OH279063   4.082   3.639   0.079  0.0750  0.0041  0.0875
19191TIP3    H179064   4.031   3.643   0.160  2.2752 -2.6691  1.8185
19191TIP3    H279065   4.073   3.548   0.050  1.6678  0.1451 -1.0006
19192TIP3   OH279066   4.461   0.525   6.428 -0.7954  0.0768  0.2910
19192TIP3    H179067   4.540   0.490   6.388 -0.8755 -1.1419  1.1352
19192TIP3    H279068   4.479   0.618   6.440  0.2785 -0.0735 -0.0722
19193TIP3   OH279069   4.243   1.423  13.682 -0.4314  0.0341  0.7756
19193TIP3    H179070   4.337   1.403  13.685 -0.5070 -0.8245 -1.0353
19193TIP3    H279071   4.235   1.495  13.619 -0.9027  0.8834  1.7752
19194TIP3   OH279072   6.526   6.459   5.105  0.0862  0.4183 -0.1289
19194TIP3    H179073   6.594   6.397   5.129 -1.2943 -1.1908 -0.1834
19194TIP3    H279074   6.462   6.454   5.176  0.3911  2.5545  0.3725
19195TIP3   OH279075   2.560   3.494   1.500 -0.4683  0.1905  0.6285
19195TIP3    H179076   2.471   3.484   1.534 -0.4059 -1.3762  0.4161
19195TIP3    H279077   2.594   3.405   1.497 -0.5143  0.1152 -3.6144
19196TIP3   OH279078   4.811   3.852  16.930  0.0948  0.0999  0.1541
19196TIP3    H179079   4.798   3.946  16.945  0.7918  0.2631 -0.1815
19196TIP3    H279080   4.734   3.810  16.967 -0.2032  0.8065  0.3460
19197TIP3   OH279081   4.885   1.081   1.440 -0.0288  0.1056 -0.0828
19197TIP3    H179082   4.897   0.986   1.433 -0.1771  0.0778  0.0463
19197TIP3    H279083   4.879   1.098   1.534  1.3180  0.3998 -0.0261
19198TIP3   OH279084   6.572   1.550   1.367 -0.0951  0.0559  0.0788
19198TIP3    H179085   6.633   1.605   1.417  0.3292  0.9902 -1.4036
19198TIP3    H279086   6.599   1.461   1.387  1.9793  0.4281 -0.7163
19199TIP3   OH279087   3.890   2.496   6.230  0.2772  0.1664 -0.0655
19199TIP3    H179088   3.869   2.571   6.175  1.2271 -1.2233 -2.4520
19199TIP3    H279089   3.972   2.520   6.273  0.5257  0.5466 -0.7350
19200TIP3   OH279090   5.506   6.132  12.724 -0.2760 -0.5999 -0.0786
19200TIP3    H179091   5.443   6.068  12.756  0.0840 -1.0121 -0.1822
19200TIP3    H279092   5.513   6.197  12.794 -1.7616  0.1457 -0.5803
19201TIP3   OH279093   4.718   0.529   2.973 -0.1511  0.3772  0.4713
19201TIP3    H179094   4.771   0.557   3.047 -1.6926  1.7660  1.1291
19201TIP3    H279095   4.642   0.486   3.013 -0.5239  0.2577 -0.3393
19202TIP3   OH279096   5.968   0.376  16.803  0.3413  0.3715 -0.0097
19202TIP3    H179097   6.044   0.423  16.768  0.8323  0.3318  0.9756
19202TIP3    H279098   5.977   0.383  16.898 -0.6932  0.0487  0.1227
19203TIP3   OH279099   0.645   4.099  16.846 -0.2961 -0.5738 -0.9382
19203TIP3    H179100   0.657   4.038  16.919 -0.9255  1.6160  1.1290
19203TIP3    H279101   0.556   4.132  16.857  0.7840  2.5155 -0.3890
19204TIP3   OH279102   4.494   1.890  13.234  0.6122 -0.1774 -0.0767
19204TIP3    H179103   4.526   1.914  13.147  0.0790 -1.4820 -0.6593
19204TIP3    H279104   4.442   1.811  13.219  2.4141 -1.8279  1.7298
19205TIP3   OH279105   4.611   5.076  14.171  0.3408 -0.2159 -0.1622
19205TIP3    H179106   4.681   5.117  14.221 -0.6769  1.0291  0.3035
19205TIP3    H279107   4.630   5.100  14.080  1.0813 -0.7665 -0.1583
19206TIP3   OH279108   0.753   1.504  15.413  0.2814  0.1205 -0.6314
19206TIP3    H179109   0.675   1.558  15.402  0.7187  1.3423  1.5546
19206TIP3    H279110   0.735   1.425  15.363 -1.8662  0.8471 -1.1172
19207TIP3   OH279111   5.776   4.617   2.917  0.1583 -0.7447  0.0838
19207TIP3    H179112   5.763   4.607   2.823  1.7522 -0.5439 -0.1916
19207TIP3    H279113   5.867   4.646   2.925  0.4213 -1.9073  1.7582
19208TIP3   OH279114   4.931   0.678  17.014 -0.1503  0.1863 -0.1103
19208TIP3    H179115   4.852   0.642  17.054 -0.2435 -2.7600 -2.5481
19208TIP3    H279116   4.902   0.757  16.970 -0.8745  1.1941  2.0624
19209TIP3   OH279117   4.723   6.211   1.517  0.1834  0.3283  0.6887
19209TIP3    H179118   4.809   6.225   1.477 -0.1079  1.7395  0.5146
19209TIP3    H279119   4.661   6.256   1.458 -0.8143 -1.4931  0.2719
19210TIP3   OH279120   5.556   1.772   2.484 -0.0402  0.9060  0.1441
19210TIP3    H179121   5.604   1.800   2.561  0.7966 -0.1344  0.0193
19210TIP3    H279122   5.560   1.847   2.424 -0.3918  1.5805  0.9533
19211TIP3   OH279123   4.304   1.971  13.997  0.2082  0.6267  0.3633
19211TIP3    H179124   4.283   2.026  14.073 -0.0228  0.1601  0.6438
19211TIP3    H279125   4.376   2.016  13.954 -0.6973  1.7175 -0.0377
19212TIP3   OH279126   2.559   4.962   1.095 -0.2893 -0.3622 -0.7091
19212TIP3    H179127   2.575   4.874   1.128 -2.6670 -0.4952  0.2160
19212TIP3    H279128   2.603   5.020   1.158 -1.8139 -0.7722  0.7941
19213TIP3   OH279129   2.755   0.518  15.050  0.4008  0.4792  0.0296
19213TIP3    H179130   2.781   0.465  15.125 -0.1892  0.1324 -0.0025
19213TIP3    H279131   2.815   0.593  15.051  1.8706 -0.6474 -0.4924
19214TIP3   OH279132   1.691   6.621   3.002 -0.4841 -0.0648  0.3920
19214TIP3    H179133   1.746   6.572   2.941  0.0213  0.5510  0.3514
19214TIP3    H279134   1.610   6.570   3.007  0.2335 -1.2071  0.7732
19215TIP3   OH279135   1.878   3.734  13.542  0.2702 -0.4825 -0.2095
19215TIP3    H179136   1.964   3.707  13.576  0.3271 -1.7487 -1.2806
19215TIP3    H279137   1.819   3.724  13.616  1.3561  2.6251  1.2697
19216TIP3   OH279138   0.222   5.499  13.610  0.2246 -0.2517 -0.0583
19216TIP3    H179139   0.144   5.556  13.606  0.5477  0.2149  0.1875
19216TIP3    H279140   0.210   5.447  13.689 -0.5205 -1.1920 -0.7703
19217TIP3   OH279141   6.644   4.017  16.847 -0.1406 -0.1187  0.1903
19217TIP3    H179142   6.734   3.994  16.873  0.1200 -0.1351 -0.6704
19217TIP3    H279143   6.653   4.050  16.758 -1.1840 -1.6236 -0.5182
19218TIP3   OH279144   3.866   1.550   2.519  0.0600  0.4013 -0.3385
19218TIP3    H179145   3.884   1.463   2.485 -2.3342 -0.2347 -0.1384
19218TIP3    H279146   3.889   1.609   2.446  0.0224 -0.5296 -1.1302
19219TIP3   OH279147   3.061   3.319  11.940 -0.1978  0.0988 -0.3236
19219TIP3    H179148   2.989   3.256  11.940 -1.4549  1.4893  0.0310
19219TIP3    H279149   3.045   3.374  11.863  1.4492 -0.6043 -1.2101
19220TIP3   OH279150   6.315   5.821   5.148  0.4180  0.2635  0.2468
19220TIP3    H179151   6.273   5.869   5.219  0.6465  2.5545 -1.0942
19220TIP3    H279152   6.369   5.755   5.192  0.0124  1.1690  2.1734
19221TIP3   OH279153   5.753   1.878   1.221 -0.4870 -0.3102 -0.6016
19221TIP3    H179154   5.661   1.854   1.204  0.2152 -3.0652 -0.9498
19221TIP3    H279155   5.780   1.924   1.142 -1.2735 -0.4075 -0.9398
19222TIP3   OH279156   6.409   2.992  16.575 -0.0730  0.3444  0.0069
19222TIP3    H179157   6.337   3.026  16.524 -1.4438 -1.0169  0.9421
19222TIP3    H279158   6.435   3.064  16.632  1.5856  1.9426 -2.5740
19223TIP3   OH279159   2.240   3.129  12.554 -0.6367  0.5267  0.0167
19223TIP3    H179160   2.146   3.127  12.568 -0.5264 -0.2965  0.7008
19223TIP3    H279161   2.251   3.096  12.464 -0.8960 -1.2649  0.6053
19224TIP3   OH279162   2.124   2.902  13.157  0.3802 -0.0319 -0.6610
19224TIP3    H179163   2.083   2.872  13.076 -0.6392 -2.2431  0.5594
19224TIP3    H279164   2.066   2.971  13.189 -0.2487 -0.4203 -0.9362
19225TIP3   OH279165   1.736   6.317   0.603  0.4885 -0.1983  0.3478
19225TIP3    H179166   1.760   6.263   0.528  0.2542  0.5428 -0.2704
19225TIP3    H279167   1.646   6.293   0.622  0.8734 -1.1452  1.0700
19226TIP3   OH279168   4.159   6.686  11.145 -0.0572  0.2559 -0.4572
19226TIP3    H179169   4.238   6.712  11.097  0.1441 -0.0329 -0.2821
19226TIP3    H279170   4.100   6.760  11.133 -0.6309 -0.4512 -2.5027
19227TIP3   OH279171   3.369   6.464   1.453 -0.2538 -0.9391  0.4964
19227TIP3    H179172   3.279   6.496   1.462 -0.4462 -1.5779  0.8846
19227TIP3    H279173   3.412   6.528   1.396 -0.3727  0.4816  1.9581
19228TIP3   OH279174   1.587   4.524  15.942 -0.4618 -0.1946  0.1522
19228TIP3    H179175   1.612   4.494  16.029  0.2828 -2.3073 -0.7062
19228TIP3    H279176   1.539   4.451  15.904  1.7947 -0.6319 -2.2270
19229TIP3   OH279177   6.184   0.489   4.076  0.5107  0.4922 -0.1278
19229TIP3    H179178   6.201   0.558   4.012  0.0662  0.3386 -0.4139
19229TIP3    H279179   6.244   0.508   4.148  0.7513  0.8808 -0.4269
19230TIP3   OH279180   0.293   5.573   2.194  0.0623 -0.0904  0.7169
19230TIP3    H179181   0.310   5.515   2.268 -1.2839 -0.7187  0.5729
19230TIP3    H279182   0.303   5.517   2.117  2.1290  0.7225  0.3400
19231TIP3   OH279183   6.396   3.509  10.657 -0.1650  0.0919  0.4905
19231TIP3    H179184   6.397   3.584  10.717  0.2812  0.8308 -0.4111
19231TIP3    H279185   6.303   3.487  10.649 -0.5762  2.0766 -1.0507
19232TIP3   OH279186   0.595   5.915   2.064  0.0120 -0.2120  0.2278
19232TIP3    H179187   0.598   6.010   2.052  1.0859 -0.3317 -0.5797
19232TIP3    H279188   0.504   5.892   2.043 -0.4299  0.6912  1.0532
19233TIP3   OH279189   4.409   0.115   4.388  0.5063 -0.0220 -0.2038
19233TIP3    H179190   4.372   0.051   4.328  1.4147 -0.7188 -0.0459
19233TIP3    H279191   4.334   0.151   4.434  0.0597 -2.2669  0.9758
19234TIP3   OH279192   0.300   3.220   6.132 -0.1808  0.4616 -0.1008
19234TIP3    H179193   0.234   3.168   6.178  0.0719 -0.3727 -0.6501
19234TIP3    H279194   0.295   3.189   6.041  1.3273  0.0033 -0.0436
19235TIP3   OH279195   1.899   0.871   5.889  0.3234  0.2007 -0.0587
19235TIP3    H179196   1.814   0.913   5.876  0.3847 -0.1423 -1.8867
19235TIP3    H279197   1.882   0.778   5.877  0.7428 -0.0013  0.8448
19236TIP3   OH279198   3.326   3.430  12.034  0.1695 -0.0290 -0.1148
19236TIP3    H179199   3.368   3.475  11.961  0.6712  0.1234  0.2572
19236TIP3    H279200   3.243   3.397  11.999  0.6470 -0.4241 -0.8914
19237TIP3   OH279201   2.053   4.949   1.173  0.1663 -0.1177  0.5845
19237TIP3    H179202   2.050   4.858   1.203  0.4552 -1.2856 -2.6048
19237TIP3    H279203   2.135   4.957   1.125  1.6669  2.8105  3.1824
19238TIP3   OH279204   3.843   0.227   2.143  0.9442  0.5214  0.0671
19238TIP3    H179205   3.862   0.183   2.225  3.5333  2.4053  0.5921
19238TIP3    H279206   3.899   0.183   2.078  0.8379  0.7058 -0.1513
19239TIP3   OH279207   4.925   0.740   1.142 -0.7308  0.3311 -0.4607
19239TIP3    H179208   4.977   0.661   1.152  1.8385  1.7617 -1.3778
19239TIP3    H279209   4.932   0.762   1.049 -2.6094  0.8817 -0.5122
19240TIP3   OH279210   3.058   4.642  12.382  0.7168  0.4308  0.2106
19240TIP3    H179211   3.083   4.726  12.422 -0.2331  1.5865 -1.5302
19240TIP3    H279212   3.117   4.633  12.307  0.7000 -0.3857  0.2888
19241TIP3   OH279213   1.609   4.783   5.207 -0.2706  0.7561 -0.5831
19241TIP3    H179214   1.671   4.829   5.151 -0.2490  0.2841 -0.9556
19241TIP3    H279215   1.642   4.693   5.211 -1.4454  0.2607 -1.5691
19242TIP3   OH279216   3.235   5.165  10.925 -0.4322 -0.0933  0.2376
19242TIP3    H179217   3.227   5.070  10.921 -1.1281 -0.0028 -0.9844
19242TIP3    H279218   3.319   5.180  10.968 -0.4437 -1.2530  0.6895
19243TIP3   OH279219   4.567   4.844  12.229  0.6752  0.0250  0.1877
19243TIP3    H179220   4.603   4.929  12.205 -1.7386  0.6724 -1.5065
19243TIP3    H279221   4.524   4.859  12.314  1.7907 -0.0174  0.7790
19244TIP3   OH279222   5.366   2.968   5.671  0.3676 -0.3188 -0.0002
19244TIP3    H179223   5.436   3.033   5.670 -0.3770  0.5081 -0.0061
19244TIP3    H279224   5.314   2.990   5.749  0.1943 -1.0110  0.0911
19245TIP3   OH279225   4.541   5.651  16.724 -0.0952 -0.0218  0.3310
19245TIP3    H179226   4.636   5.661  16.732 -0.3153  2.5089  0.6327
19245TIP3    H279227   4.530   5.569  16.676  2.2900  0.1920 -0.7551
19246TIP3   OH279228   1.973   5.459   2.735 -0.1949  0.2284  0.2871
19246TIP3    H179229   2.068   5.464   2.722 -0.3310  0.3437 -0.6986
19246TIP3    H279230   1.962   5.464   2.830  0.7976  0.0074  0.4267
19247TIP3   OH279231   3.178   3.928  10.518  0.2739 -0.5214  0.2747
19247TIP3    H179232   3.196   3.840  10.486 -0.4162 -0.8632  0.8046
19247TIP3    H279233   3.192   3.985  10.442 -1.9796 -1.3700 -0.8738
19248TIP3   OH279234   1.296   6.648  14.536  0.1391 -0.0823 -0.0154
19248TIP3    H179235   1.222   6.596  14.567  0.3399 -0.6531 -0.4814
19248TIP3    H279236   1.369   6.587  14.531  0.5566  0.3939  0.0763
19249TIP3   OH279237   3.488   5.145   2.187 -0.3877  0.5654  0.2879
19249TIP3    H179238   3.529   5.058   2.188  1.7933  1.5120 -0.5661
19249TIP3    H279239   3.399   5.129   2.155 -0.2519 -1.4169  0.7580
19250TIP3   OH279240   4.538   4.148  16.877  0.0387  0.4374  0.9186
19250TIP3    H179241   4.628   4.151  16.909  0.1769  1.6733  0.4395
19250TIP3    H279242   4.537   4.204  16.800 -0.6014 -1.4442 -0.5231
19251TIP3   OH279243   1.779   5.235   2.795  0.0574  0.0931  0.6479
19251TIP3    H179244   1.765   5.311   2.851  0.6271  1.7012 -1.2681
19251TIP3    H279245   1.825   5.172   2.850  0.0114  1.3419  2.1598
19252TIP3   OH279246   3.474   0.308   0.590  0.1556  0.2866  0.2508
19252TIP3    H179247   3.408   0.294   0.657  0.3334  0.2743  0.4234
19252TIP3    H279248   3.547   0.251   0.614  0.3811  0.5781  0.2714
19253TIP3   OH279249   3.791   0.460  16.235 -0.2331 -0.3885  0.2150
19253TIP3    H179250   3.849   0.440  16.309  1.6274 -1.9280 -1.5387
19253TIP3    H279251   3.839   0.528  16.186 -0.8103 -0.3308 -0.2768
19254TIP3   OH279252   1.682   4.384   3.817 -0.4637 -0.0180 -0.0129
19254TIP3    H179253   1.656   4.469   3.784  0.9219  0.6171  0.4409
19254TIP3    H279254   1.682   4.394   3.913 -0.7078 -0.6662  0.0655
19255TIP3   OH279255   5.358   5.467   4.916  0.3835  0.2060 -0.0570
19255TIP3    H179256   5.400   5.475   5.002 -0.7653 -0.4483  0.6014
19255TIP3    H279257   5.288   5.532   4.917  0.5836  0.4303 -0.6312
19256TIP3   OH279258   3.362   1.750   4.391 -0.1280 -0.3920  0.3116
19256TIP3    H179259   3.301   1.824   4.400 -1.1738 -0.7439 -2.6917
19256TIP3    H279260   3.368   1.736   4.296  1.5447 -2.9536  0.7095
19257TIP3   OH279261   5.173   3.938  11.472  0.3301  0.9404  0.0271
19257TIP3    H179262   5.197   3.926  11.380  0.5482  1.6888 -0.0184
19257TIP3    H279263   5.256   3.947  11.518  0.3729 -1.9933  0.7078
19258TIP3   OH279264   6.568   4.296  11.391  0.0884 -0.5601  0.4048
19258TIP3    H179265   6.627   4.364  11.357 -2.3888  0.6783 -1.7781
19258TIP3    H279266   6.572   4.226  11.327  1.6809 -2.0330  2.0192
19259TIP3   OH279267   3.265   2.828  16.981  0.3797 -0.7451  0.1646
19259TIP3    H179268   3.261   2.837  16.885 -1.4253  4.5739  0.3942
19259TIP3    H279269   3.189   2.774  17.002 -0.0023 -0.8600 -1.3619
19260TIP3   OH279270   4.365   6.509   1.702  0.6179 -0.1842  0.4101
19260TIP3    H179271   4.340   6.425   1.740 -1.0174  0.4740  0.8716
19260TIP3    H279272   4.296   6.528   1.638  0.3712  1.3081  1.0803
19261TIP3   OH279273   6.165   5.847   1.838 -0.0157 -0.2936 -0.4642
19261TIP3    H179274   6.246   5.800   1.858 -1.7241 -2.6017  1.5809
19261TIP3    H279275   6.127   5.799   1.765  0.7180  1.2465 -1.9350
19262TIP3   OH279276   6.278   0.658   3.604  0.4381  0.3570  0.4900
19262TIP3    H179277   6.348   0.611   3.559  0.1509 -0.5424  0.9832
19262TIP3    H279278   6.212   0.673   3.536  0.5351  0.0545  0.3276
19263TIP3   OH279279   2.286   1.886   2.660 -0.9525  0.3591 -0.4437
19263TIP3    H179280   2.310   1.850   2.745 -1.0081 -1.0007 -0.9886
19263TIP3    H279281   2.193   1.907   2.667 -0.7960  0.8999  0.0446
19264TIP3   OH279282   0.545   6.613   0.357  0.3075 -0.0452 -0.4129
19264TIP3    H179283   0.500   6.697   0.368  3.3004  1.8818 -1.6435
19264TIP3    H279284   0.514   6.560   0.430 -2.6338  1.6160 -0.2621
19265TIP3   OH279285   5.513   3.815   4.631  0.0516  0.1873  0.6229
19265TIP3    H179286   5.478   3.734   4.668  1.1942 -0.5150  0.2143
19265TIP3    H279287   5.571   3.850   4.699  0.6635 -0.0944  0.2517
19266TIP3   OH279288   1.147   1.853   1.451  0.1529 -0.1384  0.0847
19266TIP3    H179289   1.123   1.760   1.446 -1.2347  0.1853  0.3475
19266TIP3    H279290   1.175   1.874   1.362 -1.5215 -0.3305 -0.5387
19267TIP3   OH279291   1.133   0.988   5.889  0.1805 -0.2758 -0.0153
19267TIP3    H179292   1.141   1.022   5.978  0.9899 -1.4004  0.3607
19267TIP3    H279293   1.088   0.904   5.899 -0.0001 -0.2676 -0.7053
19268TIP3   OH279294   6.344   1.329   4.514  0.0397  0.0522 -0.2411
19268TIP3    H179295   6.379   1.405   4.561 -0.0694 -0.4347  0.6650
19268TIP3    H279296   6.249   1.336   4.526 -0.0251  0.2064 -0.8408
19269TIP3   OH279297   1.607   6.802   3.991 -0.2630  0.7915  0.0730
19269TIP3    H179298   1.625   6.846   4.074 -0.4896  2.5122 -0.7345
19269TIP3    H279299   1.678   6.739   3.981 -0.3213  0.4175  1.6235
19270TIP3   OH279300   1.759   5.447   5.471 -0.0793 -0.1571 -0.1759
19270TIP3    H179301   1.745   5.355   5.494 -1.0131 -0.3682 -1.4965
19270TIP3    H279302   1.851   5.463   5.492 -0.2282 -1.0062  1.3055
19271TIP3   OH279303   2.813   4.486   1.784 -0.3237  0.0436  0.3580
19271TIP3    H179304   2.832   4.531   1.701 -0.0968 -0.7221 -0.0101
19271TIP3    H279305   2.816   4.556   1.850  0.1602  0.5506 -0.1868
19272TIP3   OH279306   5.761   2.759   4.756 -0.1293 -0.5563  0.0198
19272TIP3    H179307   5.849   2.795   4.760  0.9693 -3.0313  0.1675
19272TIP3    H279308   5.737   2.741   4.847 -0.9906  0.4712  0.0186
19273TIP3   OH279309   1.647   3.308   0.352  0.4144  0.1379 -0.8770
19273TIP3    H179310   1.648   3.216   0.324 -0.1635  0.0563 -0.6335
19273TIP3    H279311   1.624   3.304   0.445  0.0109  0.5527 -0.9566
19274TIP3   OH279312   0.257   0.835   5.801 -0.3078  0.2415  0.0469
19274TIP3    H179313   0.211   0.808   5.722 -1.3272  1.0860  0.3203
19274TIP3    H279314   0.197   0.812   5.872  1.5180 -2.5798  0.8378
19275TIP3   OH279315   4.844   2.891   5.291 -0.3513 -0.0434  0.1312
19275TIP3    H179316   4.752   2.877   5.314 -0.2957  1.5926  1.5614
19275TIP3    H279317   4.877   2.804   5.269 -2.0455 -0.7693  0.3148
19276TIP3   OH279318   3.946   4.984   2.990 -0.3369 -0.3233 -0.3314
19276TIP3    H179319   3.930   4.916   2.924 -3.0426 -1.2062  1.1135
19276TIP3    H279320   3.950   5.065   2.939 -0.3556 -1.1959 -1.7835
19277TIP3   OH279321   0.878   2.754  16.086  0.4101  0.2940 -0.0870
19277TIP3    H179322   0.965   2.794  16.088  0.6569 -0.2357  0.1598
19277TIP3    H279323   0.866   2.727  15.995  0.2878  0.8193 -0.2294
19278TIP3   OH279324   4.999   1.533  12.040  0.1200 -0.1003 -0.7958
19278TIP3    H179325   5.022   1.531  12.133 -0.2856  0.7770 -0.6673
19278TIP3    H279326   4.937   1.606  12.032 -2.5369 -2.1936 -1.1388
19279TIP3   OH279327   1.790   2.122   3.130 -0.5864 -0.9435  0.0746
19279TIP3    H179328   1.807   2.064   3.205 -0.1093  1.8663  2.3026
19279TIP3    H279329   1.824   2.073   3.055  2.2689 -2.4770  2.1465
19280TIP3   OH279330   1.333   2.183   0.086  0.9322  0.2009  0.9853
19280TIP3    H179331   1.409   2.182   0.028  0.0658 -0.1941 -0.1850
19280TIP3    H279332   1.328   2.273   0.118  0.5241  0.8579 -0.8149
19281TIP3   OH279333   4.083   3.190  14.980  0.4630 -0.1156 -0.5699
19281TIP3    H179334   4.124   3.170  14.896  1.3065  0.0567 -0.2028
19281TIP3    H279335   3.990   3.175  14.964  0.8850 -3.2836 -0.6366
19282TIP3   OH279336   4.975   5.255  10.933 -0.9411 -0.3465 -0.0470
19282TIP3    H179337   4.897   5.258  10.988 -1.0868 -0.8153 -0.2226
19282TIP3    H279338   4.945   5.217  10.851 -0.5304 -0.5096 -0.1233
19283TIP3   OH279339   6.121   4.749  11.237 -0.9212 -0.3210 -0.0077
19283TIP3    H179340   6.109   4.708  11.152  0.0882 -1.1294  0.2203
19283TIP3    H279341   6.077   4.834  11.230 -1.7671 -0.8309 -0.9692
19284TIP3   OH279342   1.272   6.237  12.778  0.1233  0.1461 -0.5985
19284TIP3    H179343   1.334   6.297  12.735  1.4431 -1.0237 -0.4137
19284TIP3    H279344   1.203   6.294  12.813  1.1306  1.5143 -0.7651
19285TIP3   OH279345   2.846   0.861   3.153 -0.0175 -0.1869 -0.2795
19285TIP3    H179346   2.857   0.825   3.242 -0.1645 -1.2833 -0.6919
19285TIP3    H279347   2.936   0.867   3.119 -0.0655 -1.2952 -0.6318
19286TIP3   OH279348   2.850   4.256  11.768  0.2933  0.1736 -0.0249
19286TIP3    H179349   2.849   4.194  11.840 -3.5575  1.2092  1.0264
19286TIP3    H279350   2.765   4.245  11.725  0.7806  2.4862 -1.7753
19287TIP3   OH279351   6.393   2.445   5.381 -0.3370  0.0172 -0.2742
19287TIP3    H179352   6.455   2.439   5.455  0.4757  0.9543 -0.8578
19287TIP3    H279353   6.388   2.356   5.348 -0.5642 -0.3849  0.7828
19288TIP3   OH279354   4.604   3.349   3.800 -0.4892  0.5615  0.1397
19288TIP3    H179355   4.520   3.382   3.768 -1.7674 -1.5504  1.0583
19288TIP3    H279356   4.621   3.271   3.747 -0.3685 -0.4081  1.5434
19289TIP3   OH279357   1.212   6.388  14.706  0.1641  0.5704  0.3173
19289TIP3    H179358   1.305   6.366  14.705  0.6384  2.2094  2.0024
19289TIP3    H279359   1.176   6.347  14.628  1.7108 -2.5322  1.0850
19290TIP3   OH279360   0.753   4.126  11.990 -0.1569 -0.3049  0.2235
19290TIP3    H179361   0.717   4.190  11.928 -1.1086  0.9106  1.9577
19290TIP3    H279362   0.677   4.098  12.041  0.1927 -3.0145 -0.5746
19291TIP3   OH279363   3.943   0.604  16.046 -0.3424 -0.1109  0.4366
19291TIP3    H179364   3.987   0.544  15.986  0.8833 -0.8289  1.9611
19291TIP3    H279365   4.013   0.635  16.103 -1.5386  0.0506  1.8710
19292TIP3   OH279366   6.164   6.545   2.991  0.2438 -0.8233  0.0026
19292TIP3    H179367   6.129   6.459   3.014  1.2600 -0.9849  1.0224
19292TIP3    H279368   6.182   6.538   2.897 -2.1141 -0.8232 -0.4964
19293TIP3   OH279369   2.089   5.210  11.508  0.7468  0.5968  0.4656
19293TIP3    H179370   2.141   5.192  11.429  1.3793 -0.2590  1.0690
19293TIP3    H279371   2.000   5.223  11.475  1.2167  1.4862 -0.5236
19294TIP3   OH279372   3.233   6.409   4.270  0.1509 -0.0961 -0.0805
19294TIP3    H179373   3.238   6.316   4.249  0.7829  0.2296 -1.4631
19294TIP3    H279374   3.323   6.441   4.263 -0.0109  0.5689  0.6719
19295TIP3   OH279375   1.247   3.437   3.135 -0.7570  0.7576 -0.5496
19295TIP3    H179376   1.198   3.493   3.194  0.5388  1.1261  0.2051
19295TIP3    H279377   1.240   3.480   3.050 -0.5264  1.5884 -0.1554
19296TIP3   OH279378   0.062   2.588   0.048 -0.4031 -0.2629 -0.2682
19296TIP3    H179379   0.135   2.543   0.089 -0.3168  0.0023 -0.1259
19296TIP3    H279380  -0.010   2.578   0.110 -0.3544 -0.1170 -0.1864
19297TIP3   OH279381   1.175   5.494  12.325  0.1160 -0.3535 -0.0318
19297TIP3    H179382   1.142   5.533  12.406 -1.9741 -1.4003 -0.3358
19297TIP3    H279383   1.189   5.402  12.346  2.8102 -0.0283  0.0201
19298TIP3   OH279384   1.565   2.922   4.464  0.0372  0.6654  0.3093
19298TIP3    H179385   1.622   2.961   4.530  2.2172 -0.4986 -0.7795
19298TIP3    H279386   1.603   2.835   4.448 -0.7773  0.6725 -1.9952
19299TIP3   OH279387   2.672   0.744   4.185 -0.4162 -0.1337  0.1789
19299TIP3    H179388   2.627   0.799   4.120  1.4661  0.7337 -0.4700
19299TIP3    H279389   2.610   0.737   4.257 -1.5871  1.0030 -0.6604
19300TIP3   OH279390   6.717   6.500  16.548 -0.2158  0.1088 -0.0046
19300TIP3    H179391   6.729   6.569  16.613 -1.0682 -0.0670  0.3570
19300TIP3    H279392   6.720   6.419  16.598  0.3368 -0.1010 -0.3676
19301TIP3   OH279393   1.745   4.527   5.176 -0.3141 -0.0916  0.1579
19301TIP3    H179394   1.770   4.437   5.197 -2.5049 -0.9647 -0.7192
19301TIP3    H279395   1.697   4.520   5.094 -1.8517  1.6511  0.8451
19302TIP3   OH279396   5.796   0.088   5.342  0.1046 -0.3513  0.3697
19302TIP3    H179397   5.854   0.029   5.390  1.5173  0.9575  0.3405
19302TIP3    H279398   5.853   0.159   5.313 -0.8691 -0.5887 -2.4055
19303TIP3   OH279399   5.527   0.317   3.125  0.0819 -0.2149 -0.1816
19303TIP3    H179400   5.433   0.301   3.139  0.3274 -1.7891 -0.1625
19303TIP3    H279401   5.535   0.336   3.032 -0.2160 -0.4151 -0.2486
19304TIP3   OH279402   5.034   3.695  13.475  0.0573  0.7961  0.7672
19304TIP3    H179403   5.068   3.615  13.515  0.2359 -0.0723 -1.0121
19304TIP3    H279404   4.951   3.711  13.519  0.8656  0.6776  2.3898
19305TIP3   OH279405   0.421   6.559   2.855 -0.1293  0.4727 -0.0429
19305TIP3    H179406   0.334   6.541   2.889 -0.1958 -0.2016 -0.5434
19305TIP3    H279407   0.474   6.579   2.933 -0.6040  0.3486  0.3153
19306TIP3   OH279408   5.084   6.249  13.306  0.1543  0.4619 -0.0327
19306TIP3    H179409   5.111   6.215  13.221 -0.2642 -1.7474  0.6448
19306TIP3    H279410   5.019   6.316  13.287  1.8867  1.8192 -1.4983
19307TIP3   OH279411   6.426   1.006  14.479 -0.3572  0.3179 -0.9842
19307TIP3    H179412   6.511   1.032  14.444 -0.5343 -0.4154 -2.0147
19307TIP3    H279413   6.446   0.963  14.562  0.4753 -1.2635 -1.9406
19308TIP3   OH279414   0.459   5.214  11.502  0.2984 -0.0336  0.1619
19308TIP3    H179415   0.525   5.203  11.570 -0.8512 -0.4173  1.2635
19308TIP3    H279416   0.376   5.217  11.550 -0.4771  0.6252 -1.1553
19309TIP3   OH279417   4.858   4.319   5.118 -0.3625  0.0233  0.4298
19309TIP3    H179418   4.916   4.304   5.044 -0.7765  1.6608 -0.2571
19309TIP3    H279419   4.915   4.313   5.195  0.2515 -0.6713 -0.0634
19310TIP3   OH279420   0.490   4.089   6.734  0.1021  0.2520  0.2742
19310TIP3    H179421   0.557   4.158   6.735  1.9796 -1.4827  1.1084
19310TIP3    H279422   0.527   4.020   6.789 -2.3521 -0.8475  0.6418
19311TIP3   OH279423   5.618   0.948   0.199 -0.2327 -0.3189 -0.4998
19311TIP3    H179424   5.591   0.885   0.133  1.1178 -1.9359  0.4142
19311TIP3    H279425   5.568   0.924   0.277 -1.8869  1.6309 -0.8615
19312TIP3   OH279426   4.306   2.162   5.619  0.5226 -0.4412 -0.1435
19312TIP3    H179427   4.319   2.087   5.561 -0.0121 -1.0123  0.4639
19312TIP3    H279428   4.239   2.215   5.576  0.5433 -0.5632 -0.3248
19313TIP3   OH279429   1.273   1.781   3.912 -0.1810  0.4018  0.4159
19313TIP3    H179430   1.306   1.803   3.825  0.5765 -2.1540 -0.0303
19313TIP3    H279431   1.343   1.809   3.972  0.5564 -0.3623 -0.0672
19314TIP3   OH279432   5.736   4.583   1.830 -0.4985 -0.0958  0.2781
19314TIP3    H179433   5.702   4.500   1.865 -0.2097 -0.6440 -0.7001
19314TIP3    H279434   5.722   4.646   1.900 -2.0550 -0.6586  0.5223
19315TIP3   OH279435   2.456   5.092  16.732  0.4062 -0.3140  0.3532
19315TIP3    H179436   2.530   5.059  16.682 -0.1386 -0.9124 -0.0742
19315TIP3    H279437   2.381   5.082  16.673 -0.5235 -2.3787  1.7555
19316TIP3   OH279438   0.115   2.675   5.081 -0.1164  0.6572  0.1735
19316TIP3    H179439   0.133   2.722   5.163 -0.4772  2.2499 -0.6221
19316TIP3    H279440   0.149   2.732   5.012 -0.6353 -0.2228 -0.8485
19317TIP3   OH279441   6.027   5.860  11.403  0.2424  0.1540 -0.3242
19317TIP3    H179442   6.015   5.841  11.496 -0.0250 -0.4388 -0.4750
19317TIP3    H279443   6.120   5.845  11.387 -0.0944 -1.8860 -0.6112
19318TIP3   OH279444   4.257   5.699  15.245  0.6148  0.0494 -0.7397
19318TIP3    H179445   4.307   5.642  15.304 -0.4706 -0.8119 -0.6124
19318TIP3    H279446   4.294   5.680  15.158  0.0251 -1.1588 -0.7513
19319TIP3   OH279447   2.056   5.613  12.460 -0.5053  0.2260 -0.1697
19319TIP3    H179448   2.046   5.618  12.365  0.4063 -2.1028 -0.4407
19319TIP3    H279449   2.000   5.683  12.493 -0.4829  1.4153 -2.4183
19320TIP3   OH279450   0.891   2.260  16.215  0.0385  0.2322 -0.0976
19320TIP3    H179451   0.824   2.290  16.276  0.4980 -0.3537  0.7032
19320TIP3    H279452   0.845   2.199  16.157  0.1338 -1.2058  1.2719
19321TIP3   OH279453   3.028   2.054   4.061  0.6562 -0.3337 -0.1587
19321TIP3    H179454   2.992   2.106   4.133  2.2062 -0.7393  0.9845
19321TIP3    H279455   3.046   1.968   4.100  0.4612 -0.9343 -1.3470
19322TIP3   OH279456   5.036   4.255  14.946 -0.0611 -0.0830 -0.2514
19322TIP3    H179457   4.945   4.247  14.976  0.6082  0.3927  2.1060
19322TIP3    H279458   5.038   4.206  14.864 -2.0979 -1.4554  0.4318
19323TIP3   OH279459   6.104   3.127   5.938 -0.8408 -0.2658  0.2622
19323TIP3    H179460   6.036   3.083   5.887 -1.0353 -1.1052  1.2010
19323TIP3    H279461   6.114   3.073   6.016 -0.6892  1.0728  1.2128
19324TIP3   OH279462   2.838   5.836  15.610  0.0153  0.5155 -0.0599
19324TIP3    H179463   2.889   5.904  15.566  0.6201  0.6834  0.8624
19324TIP3    H279464   2.898   5.800  15.676 -1.3617  1.4915  1.8255
19325TIP3   OH279465   6.482   4.494   0.678 -0.3436  0.3176 -0.5975
19325TIP3    H179466   6.435   4.439   0.740  0.4023 -0.3487 -0.6102
19325TIP3    H279467   6.528   4.433   0.621 -0.9741  0.9105 -1.8000
19326TIP3   OH279468   1.525   1.011   0.262  0.1550 -0.6542  0.6159
19326TIP3    H179469   1.465   0.937   0.250 -0.3289 -0.3704  1.2346
19326TIP3    H279470   1.555   1.032   0.174 -0.3427 -1.0565  0.3427
19327TIP3   OH279471   1.404   2.176  16.827 -0.7213 -0.9423 -0.2190
19327TIP3    H179472   1.371   2.087  16.842 -0.4854 -0.6383  2.5268
19327TIP3    H279473   1.490   2.178  16.870 -2.2983  1.6131  3.2387
19328TIP3   OH279474   5.366   4.846   0.869 -0.1885  0.0680  0.2911
19328TIP3    H179475   5.376   4.937   0.839 -0.9496 -0.6220 -2.3652
19328TIP3    H279476   5.279   4.843   0.908  0.3409  0.7415  1.5661
19329TIP3   OH279477   0.148   5.413  11.396 -0.6074  0.3923  0.6371
19329TIP3    H179478   0.116   5.338  11.447  0.9531 -0.4736  0.3829
19329TIP3    H279479   0.240   5.420  11.419 -0.4283  1.4361 -0.3427
19330TIP3   OH279480   5.731   2.216  12.074 -0.2132 -0.1026  0.2725
19330TIP3    H179481   5.763   2.297  12.034 -1.1780 -0.1207 -0.5833
19330TIP3    H279482   5.647   2.240  12.113  1.1676  0.1946  3.3795
19331TIP3   OH279483   0.977   1.240   4.103  0.1697  0.0790  0.3341
19331TIP3    H179484   0.930   1.157   4.088  0.4790  0.0489 -0.5079
19331TIP3    H279485   1.045   1.217   4.167 -1.2497  0.2400  1.9867
19332TIP3   OH279486   0.319   3.957  14.441 -0.3046  0.9004 -0.1510
19332TIP3    H179487   0.357   3.988  14.524  0.1416  0.1074 -0.0392
19332TIP3    H279488   0.225   3.957  14.456 -0.1785 -0.9748  1.0488
19333TIP3   OH279489   3.364   3.211   5.188  0.4890  0.1320  0.4255
19333TIP3    H179490   3.387   3.283   5.247  3.4850  0.9047 -1.4230
19333TIP3    H279491   3.283   3.239   5.146  1.0698  2.0063  0.4610
19334TIP3   OH279492   0.940   5.134  12.076 -0.2213  0.1950  0.3167
19334TIP3    H179493   0.927   5.222  12.109 -3.2725  0.4395 -1.2161
19334TIP3    H279494   0.978   5.086  12.150 -2.3520  1.8029  2.6055
19335TIP3   OH279495   1.260   0.362  16.422 -0.1197 -0.1154  0.6161
19335TIP3    H179496   1.327   0.378  16.489 -0.1757  0.5426  0.5265
19335TIP3    H279497   1.199   0.435  16.432  0.9643  1.1860 -1.4919
19336TIP3   OH279498   0.713   6.007   3.386 -0.5472  0.1522 -0.0382
19336TIP3    H179499   0.648   6.030   3.319  0.0751  1.2298 -0.2831
19336TIP3    H279500   0.788   5.975   3.335 -0.2630  0.4918  0.1683
19337TIP3   OH279501   0.515   1.668  10.975 -0.0162  0.1337 -0.2767
19337TIP3    H179502   0.609   1.686  10.973 -0.2597  2.1452  1.9278
19337TIP3    H279503   0.503   1.615  11.054 -0.5881 -1.4717 -1.3945
19338TIP3   OH279504   3.146   0.413  16.406 -0.3831  0.2302 -0.3286
19338TIP3    H179505   3.069   0.408  16.348 -0.3062 -0.5248 -0.3731
19338TIP3    H279506   3.198   0.485  16.370 -0.2332 -0.3600 -1.3459
19339TIP3   OH279507   4.857   0.813  15.619 -0.2980  0.4613 -0.0531
19339TIP3    H179508   4.910   0.876  15.572 -2.4724  1.5787 -1.1657
19339TIP3    H279509   4.900   0.802  15.704 -0.2367  4.0684  0.5143
19340TIP3   OH279510   5.735   5.162   3.766  0.7895  0.0560 -0.0974
19340TIP3    H179511   5.782   5.207   3.836  0.9375  1.4269 -1.0513
19340TIP3    H279512   5.668   5.224   3.738 -0.0343 -0.9420 -0.3870
19341TIP3   OH279513   5.713   2.548   5.843 -0.0157 -0.1726 -0.2292
19341TIP3    H179514   5.649   2.506   5.786  0.4159 -1.1149 -0.0467
19341TIP3    H279515   5.744   2.477   5.900 -2.1646  1.1413  2.8734
19342TIP3   OH279516   2.139   1.230   5.882  0.1558 -0.1013 -0.7266
19342TIP3    H179517   2.205   1.274   5.935 -0.3205 -0.0275 -0.1838
19342TIP3    H279518   2.168   1.139   5.878 -0.7499 -0.5326  1.2430
19343TIP3   OH279519   3.073   0.673   3.594 -0.4343  0.0410  0.1067
19343TIP3    H179520   3.135   0.725   3.544  0.1597  0.7962  1.5691
19343TIP3    H279521   3.053   0.726   3.671 -0.9956 -1.2342  0.8839
19344TIP3   OH279522   6.784   5.236   1.982 -0.0930 -0.3646 -0.6033
19344TIP3    H179523   6.782   5.329   2.004 -0.1051 -0.3049 -0.8560
19344TIP3    H279524   6.692   5.211   1.978 -0.0858 -0.4704 -0.1958
19345TIP3   OH279525   1.890   1.898   3.697 -0.5884 -0.0895 -0.0542
19345TIP3    H179526   1.946   1.908   3.621 -0.1558 -1.7590 -0.0031
19345TIP3    H279527   1.947   1.861   3.764 -1.1991  0.4249  0.7663
19346TIP3   OH279528   2.460   0.442   2.707  0.1699 -0.4171 -0.3312
19346TIP3    H179529   2.390   0.498   2.743  1.5792  1.1142  0.1559
19346TIP3    H279530   2.496   0.397   2.783 -0.4197 -1.3918 -0.6159
19347TIP3   OH279531   0.534   4.805   5.546 -0.0785 -0.6279 -0.1678
19347TIP3    H179532   0.542   4.887   5.594  0.5967 -1.4954  1.2706
19347TIP3    H279533   0.546   4.829   5.454  0.6586  0.7911  0.2790
19348TIP3   OH279534   2.002   0.770  10.800  0.1492 -0.0777  0.4446
19348TIP3    H179535   2.041   0.852  10.828 -0.3142 -0.3877  2.0913
19348TIP3    H279536   1.911   0.776  10.828 -0.0062 -0.9686  0.1640
19349TIP3   OH279537   2.102   4.428  15.377 -0.4687 -0.1622  0.4652
19349TIP3    H179538   2.019   4.381  15.387 -0.5826  0.3159  2.1895
19349TIP3    H279539   2.164   4.362  15.347 -1.4075 -0.5874 -0.5834
19350TIP3   OH279540   2.549   3.341  16.648 -0.0586  0.0219 -0.2396
19350TIP3    H179541   2.603   3.406  16.603  0.7364 -0.5388 -0.1301
19350TIP3    H279542   2.478   3.391  16.687  0.9193  0.9315  0.4318
19351TIP3   OH279543   0.291   6.465   0.863 -0.2368  0.2389 -0.3892
19351TIP3    H179544   0.338   6.460   0.947  0.4592  1.3040 -0.7035
19351TIP3    H279545   0.199   6.452   0.887 -0.0632  0.6336  0.5542
19352TIP3   OH279546   4.670   1.380  15.330  0.6285 -0.0722  0.0252
19352TIP3    H179547   4.741   1.344  15.384  1.4498 -0.1519 -1.0772
19352TIP3    H279548   4.714   1.437  15.268 -0.3485  0.3484 -0.2962
19353TIP3   OH279549   6.032   1.472   5.270  0.3540 -0.2875 -0.5543
19353TIP3    H179550   6.051   1.531   5.343  1.3563  0.7868 -1.6268
19353TIP3    H279551   6.102   1.407   5.274  0.6589  0.0198 -0.7939
19354TIP3   OH279552   5.233   1.556  15.640  0.1836  0.6686  0.0822
19354TIP3    H179553   5.180   1.541  15.719 -0.5573 -0.3344 -0.5825
19354TIP3    H279554   5.184   1.621  15.590  0.1637  0.5756 -0.0169
19355TIP3   OH279555   3.973   2.834  11.899 -0.0175 -0.0432  0.0649
19355TIP3    H179556   3.995   2.915  11.944  1.4293 -1.0017  1.1802
19355TIP3    H279557   4.029   2.768  11.940 -1.5239 -1.7163 -0.4526
19356TIP3   OH279558   1.770   2.777  16.766  0.3109 -0.0931  0.5023
19356TIP3    H179559   1.700   2.833  16.802 -0.8687 -1.0624 -0.2002
19356TIP3    H279560   1.750   2.771  16.673  1.2965 -0.4900  0.3086
19357TIP3   OH279561   2.763   3.910  14.202 -0.1731 -0.3845 -0.0148
19357TIP3    H179562   2.775   3.953  14.117 -2.8353 -1.4957 -1.0741
19357TIP3    H279563   2.825   3.837  14.200 -0.6092 -0.7531 -1.2973
19358TIP3   OH279564   4.210   1.996   5.250 -0.1232  0.0665 -0.4780
19358TIP3    H179565   4.151   1.970   5.178  1.7478 -1.2821 -1.6149
19358TIP3    H279566   4.251   2.076   5.219  0.0020 -0.0125 -0.5188
19359TIP3   OH279567   4.927   1.037   4.924 -0.8722  0.1752  0.7693
19359TIP3    H179568   4.877   0.974   4.977 -1.9199  0.7087  0.4552
19359TIP3    H279569   4.943   1.111   4.983 -1.7986  0.6503  0.4574
19360TIP3   OH279570   1.990   1.454   5.770 -0.3012  0.5203 -0.1046
19360TIP3    H179571   1.934   1.491   5.838  3.3963  2.7308  2.0582
19360TIP3    H279572   2.035   1.381   5.812  0.5544  0.6171 -0.8088
19361TIP3   OH279573   0.613   3.932   3.603  0.0267  0.5726  0.2606
19361TIP3    H179574   0.522   3.927   3.633  0.3852 -1.6002  1.2237
19361TIP3    H279575   0.665   3.911   3.681  1.2119 -0.6791 -0.8042
19362TIP3   OH279576   0.415   3.579   2.285  0.0008 -0.2017 -0.0478
19362TIP3    H179577   0.430   3.605   2.376 -3.1162 -1.0575  0.8224
19362TIP3    H279578   0.399   3.662   2.240 -0.2477  0.1152  0.6010
19363TIP3   OH279579   4.524   1.260  12.702 -0.1083  0.1235 -0.0142
19363TIP3    H179580   4.599   1.252  12.761 -0.6621  1.0257  0.8482
19363TIP3    H279581   4.559   1.237  12.616  0.4956 -2.2424  0.7823
19364TIP3   OH279582   3.492   2.312  12.102  0.5755 -0.3597  0.0767
19364TIP3    H179583   3.413   2.347  12.061  0.6112 -0.1315  0.1978
19364TIP3    H279584   3.563   2.337  12.044  0.5607 -0.5389 -0.0164
19365TIP3   OH279585   3.661   2.015   3.356 -0.1148 -0.2111 -0.4139
19365TIP3    H179586   3.627   1.985   3.440  0.0691 -0.6090 -0.4819
19365TIP3    H279587   3.754   1.996   3.359 -0.0841 -0.1027 -0.6575
19366TIP3   OH279588   0.486   4.490   3.674 -0.2868  0.2910 -0.2045
19366TIP3    H179589   0.581   4.503   3.674 -0.3951  1.5409 -2.4331
19366TIP3    H279590   0.450   4.572   3.710 -0.5503  0.7449 -1.4443
19367TIP3   OH279591   5.666   0.574  13.212 -0.6232 -0.2354 -0.4220
19367TIP3    H179592   5.728   0.569  13.139 -1.4811 -0.7464 -1.1362
19367TIP3    H279593   5.598   0.509  13.190 -2.4222  1.6297 -0.6281
19368TIP3   OH279594   2.743   4.267  14.538  0.0289  0.1329  0.5702
19368TIP3    H179595   2.722   4.272  14.630  0.1248  0.5750  0.5668
19368TIP3    H279596   2.805   4.193  14.532 -1.5684 -1.2727  0.5516
19369TIP3   OH279597   2.240   3.103   6.187  0.1598 -0.5416 -0.5278
19369TIP3    H179598   2.165   3.163   6.193 -0.7886 -1.6027 -1.2831
19369TIP3    H279599   2.315   3.157   6.211 -1.0426  0.0881  2.2971
19370TIP3   OH279600   6.318   1.021  12.276  0.3576 -0.0781  0.0902
19370TIP3    H179601   6.347   1.039  12.187 -0.9593  1.5374 -0.0427
19370TIP3    H279602   6.347   1.097  12.327 -2.9643  1.3446  0.0646
19371TIP3   OH279603   3.144   0.279   4.744  0.3575  0.1457 -0.2286
19371TIP3    H179604   3.141   0.293   4.649 -0.2522 -0.4044 -0.2978
19371TIP3    H279605   3.121   0.187   4.755  1.2050  0.0032  0.4118
19372TIP3   OH279606   2.673   4.427  16.049  0.3776  0.1723  0.2849
19372TIP3    H179607   2.582   4.455  16.061 -0.5170 -1.9804 -0.9207
19372TIP3    H279608   2.708   4.486  15.982 -0.3936  0.4667  0.1333
19373TIP3   OH279609   2.223   6.290   1.543 -0.1468 -0.3368 -0.2158
19373TIP3    H179610   2.235   6.196   1.556 -3.4399 -0.8969 -0.2580
19373TIP3    H279611   2.233   6.302   1.449 -0.0971 -0.7490 -0.2676
19374TIP3   OH279612   4.157   6.702   3.739 -0.6071  0.1498 -0.2264
19374TIP3    H179613   4.179   6.634   3.675 -0.1464 -0.8158  0.9197
19374TIP3    H279614   4.114   6.770   3.687 -2.5024 -1.6598 -1.2010
19375TIP3   OH279615   5.110   3.640  16.374 -0.3970 -0.5813  0.0057
19375TIP3    H179616   5.133   3.651  16.282  0.0488 -1.2533  0.0298
19375TIP3    H279617   5.101   3.545  16.386 -1.8773 -0.4264  0.3266
19376TIP3   OH279618   5.642   1.934  17.147  0.3765  0.1077 -0.0026
19376TIP3    H179619   5.722   1.893  17.179  0.0457 -1.1869 -0.7769
19376TIP3    H279620   5.666   1.971  17.062  0.5452  1.1585  0.4743
19377TIP3   OH279621   2.208   5.371  15.635 -0.2032 -0.0507 -0.3183
19377TIP3    H179622   2.119   5.338  15.631  0.5486 -2.3763  0.6259
19377TIP3    H279623   2.198   5.466  15.642 -2.5446 -0.1597 -1.2520
19378TIP3   OH279624   0.441   1.513  11.176  0.1106  0.2651 -0.0051
19378TIP3    H179625   0.354   1.477  11.192  0.0700  0.3073 -0.1362
19378TIP3    H279626   0.499   1.436  11.175  0.1602  0.2840  0.6596
19379TIP3   OH279627   2.872   4.459  16.654  0.0806  0.0588  0.3730
19379TIP3    H179628   2.899   4.378  16.611  0.0394  0.8941 -1.3139
19379TIP3    H279629   2.918   4.459  16.737 -1.3143 -2.5567  1.2638
19380TIP3   OH279630   2.588   0.560  16.739 -0.0787  0.2722  0.0608
19380TIP3    H179631   2.624   0.637  16.784  1.1131  0.6406 -1.4359
19380TIP3    H279632   2.538   0.597  16.666 -0.7766 -0.3361  0.2316
19381TIP3   OH279633   6.189   3.731  11.263 -0.3463  0.1694  0.0953
19381TIP3    H179634   6.143   3.754  11.344 -0.7859  3.0714 -0.8747
19381TIP3    H279635   6.164   3.640  11.247  0.3948 -0.8000  3.5773
19382TIP3   OH279636   3.003   2.412   4.903 -0.3804 -0.2462 -0.5561
19382TIP3    H179637   2.915   2.447   4.889  0.1006  0.4357 -2.0919
19382TIP3    H279638   3.058   2.488   4.918  0.1190 -0.5799 -0.6487
19383TIP3   OH279639   5.391   1.093  12.471  0.4922  0.6877 -0.0177
19383TIP3    H179640   5.427   1.009  12.443 -1.6875 -0.3201 -0.0111
19383TIP3    H279641   5.366   1.137  12.389  0.9042  0.9923  0.0167
19384TIP3   OH279642   0.650   4.881  15.057  0.3520  0.5725 -0.4350
19384TIP3    H179643   0.739   4.913  15.072  0.8525 -1.2577  0.8901
19384TIP3    H279644   0.606   4.893  15.142  0.2669 -1.2180 -0.1944
19385TIP3   OH279645   0.054   5.708  13.578 -0.4467 -0.1029 -0.2497
19385TIP3    H179646  -0.013   5.761  13.621 -1.0290 -1.1069  0.0927
19385TIP3    H279647   0.011   5.625  13.558  0.5917 -0.6420 -0.3292
19386TIP3   OH279648   0.998   2.412  10.727  0.6805  0.0388 -0.6733
19386TIP3    H179649   1.079   2.369  10.698  0.6385 -0.6891  0.2292
19386TIP3    H279650   1.027   2.494  10.765  0.8275  0.5422 -1.8413
19387TIP3   OH279651   3.525   2.662   4.452 -0.3214  0.3051 -0.8107
19387TIP3    H179652   3.537   2.642   4.360 -0.1573 -0.7587 -0.5633
19387TIP3    H279653   3.612   2.690   4.482  0.0750 -1.1253 -0.5583
19388TIP3   OH279654   2.299   4.328  10.903  0.3417 -0.4712  0.1571
19388TIP3    H179655   2.302   4.403  10.844 -0.4638 -0.5501  0.0004
19388TIP3    H279656   2.340   4.257  10.855  0.9869 -0.1717  0.2551
19389TIP3   OH279657   6.566   2.220  13.965 -0.1146 -0.2411  0.1862
19389TIP3    H179658   6.597   2.265  13.886  1.1163 -1.4644 -0.0711
19389TIP3    H279659   6.639   2.162  13.989 -1.8691 -2.7055  0.0011
19390TIP3   OH279660   1.473   2.787  14.012  0.3399  0.0783 -0.2780
19390TIP3    H179661   1.401   2.847  14.030  0.3907 -0.2515  1.1799
19390TIP3    H279662   1.443   2.735  13.937 -0.3047  0.9307 -0.6317
19391TIP3   OH279663   5.948   5.034   1.070 -0.6790  0.0490  0.0950
19391TIP3    H179664   6.000   4.961   1.036  0.6802  0.8378  0.3951
19391TIP3    H279665   5.871   5.037   1.013 -0.4366 -1.1923 -0.3377
19392TIP3   OH279666   4.883   2.356   2.153 -0.2436  0.0207 -0.2968
19392TIP3    H179667   4.881   2.409   2.232  1.2245 -0.3663  0.0427
19392TIP3    H279668   4.846   2.272   2.180 -2.2254  0.6931 -0.7419
19393TIP3   OH279669   0.454   3.599  13.604  0.3091 -0.1690 -0.4656
19393TIP3    H179670   0.491   3.589  13.516 -2.4522 -0.2029 -1.7385
19393TIP3    H279671   0.416   3.687  13.605  0.2114 -0.2043  0.6589
19394TIP3   OH279672   4.763   0.768  14.458 -0.0310  0.0288  0.5500
19394TIP3    H179673   4.686   0.713  14.469 -0.3817  0.9661  5.5133
19394TIP3    H279674   4.728   0.855  14.441  0.0293  0.0510  0.5394
19395TIP3   OH279675   3.811   5.662  16.167  0.0619  0.1716 -0.1781
19395TIP3    H179676   3.738   5.608  16.198  0.1454 -0.3654 -0.9012
19395TIP3    H279677   3.880   5.647  16.232  0.1861 -0.8390 -0.5287
19396TIP3   OH279678   1.939   3.788   2.767 -0.0685  0.3548 -0.3276
19396TIP3    H179679   1.937   3.858   2.833  1.4914 -0.2035  0.3678
19396TIP3    H279680   1.871   3.726   2.796  0.9019 -0.1070  1.0579
19397TIP3   OH279681   1.353   1.270   0.678  0.0275 -0.4803  0.0683
19397TIP3    H179682   1.380   1.358   0.704  0.9456 -0.6375 -0.2998
19397TIP3    H279683   1.371   1.266   0.584  3.4020 -2.1615  0.6322
19398TIP3   OH279684   5.044   0.561  13.209 -0.1364  0.9769  0.1595
19398TIP3    H179685   5.052   0.476  13.252 -0.4246  0.5409 -0.6211
19398TIP3    H279686   5.116   0.562  13.146 -0.4192  1.1087 -0.1605
19399TIP3   OH279687   0.314   2.728  10.931 -0.9965 -0.0496  0.6882
19399TIP3    H179688   0.307   2.822  10.945 -1.6241 -0.1745  1.2421
19399TIP3    H279689   0.344   2.719  10.841 -2.2080  0.6566  0.2000
19400TIP3   OH279690   5.179   0.752   0.188 -0.1121 -0.6632  0.0603
19400TIP3    H179691   5.187   0.776   0.281  3.9714 -1.4373  0.0683
19400TIP3    H279692   5.145   0.663   0.190 -2.7296  0.2373  0.5543
19401TIP3   OH279693   3.984   4.844   3.307  0.4082  0.2779  0.7681
19401TIP3    H179694   3.904   4.885   3.339  0.7297 -0.3200  2.4656
19401TIP3    H279695   3.958   4.755   3.285  0.4527  0.3240  0.5191
19402TIP3   OH279696   1.412   4.354  16.668  0.5222 -0.1877 -0.0670
19402TIP3    H179697   1.452   4.272  16.695 -2.1029 -1.7874 -0.7220
19402TIP3    H279698   1.358   4.331  16.593  0.4546  2.3574 -0.9013
19403TIP3   OH279699   4.348   0.665   5.539 -0.2695 -0.0216  0.2621
19403TIP3    H179700   4.266   0.615   5.537 -1.4730  1.8818 -0.1861
19403TIP3    H279701   4.335   0.730   5.608  1.6468 -0.8784  1.5080
19404TIP3   OH279702   1.605   1.514   1.465 -0.8157 -0.1841 -0.2123
19404TIP3    H179703   1.564   1.451   1.405 -1.6304  0.7386 -0.6503
19404TIP3    H279704   1.550   1.592   1.459  1.0486  1.1602 -0.9181
19405TIP3   OH279705   2.762   1.425   2.778  0.0136  0.0412 -0.5707
19405TIP3    H179706   2.703   1.373   2.724 -0.8220 -0.1858  0.5273
19405TIP3    H279707   2.763   1.381   2.863 -0.5732  1.6808  0.3368
19406TIP3   OH279708   6.285   3.789   1.527 -0.5516  0.1954 -0.9740
19406TIP3    H179709   6.267   3.861   1.588  0.6047 -0.6316  0.4108
19406TIP3    H279710   6.211   3.791   1.466 -1.0867  1.8859 -0.3482
19407TIP3   OH279711   6.407   5.158  13.208 -0.6952 -0.5870  0.1269
19407TIP3    H179712   6.446   5.078  13.172  0.2826 -0.1701  0.2254
19407TIP3    H279713   6.401   5.142  13.302 -3.2626 -1.6807 -0.1529
19408TIP3   OH279714   6.057   1.995  15.458 -0.1486 -0.6282  0.1666
19408TIP3    H179715   6.038   1.973  15.367  1.9289 -0.2226 -0.4342
19408TIP3    H279716   6.095   1.915  15.494 -0.8643 -0.7530  0.6490
19409TIP3   OH279717   5.222   5.498  13.685  0.3081 -0.2632  0.2005
19409TIP3    H179718   5.131   5.476  13.669  0.3231 -1.4991  1.7221
19409TIP3    H279719   5.269   5.460  13.610 -0.1898 -1.4803  0.4885
19410TIP3   OH279720   2.927   3.828   3.268  0.1246  0.5794 -0.1294
19410TIP3    H179721   2.848   3.834   3.322  1.5150 -0.2973  2.1841
19410TIP3    H279722   2.964   3.917   3.270  0.6608  0.3616  1.2922
19411TIP3   OH279723   4.758   5.907   5.950  0.0470  0.3812 -0.6695
19411TIP3    H179724   4.740   5.993   5.987  2.0186  1.1320 -1.2977
19411TIP3    H279725   4.746   5.918   5.856 -0.1126 -0.1624 -0.7179
19412TIP3   OH279726   3.219   2.587   0.928  0.0513  0.0105 -0.2356
19412TIP3    H179727   3.294   2.646   0.934  0.1852 -0.0317 -1.3325
19412TIP3    H279728   3.212   2.566   0.835 -1.6583  0.4349 -0.2359
19413TIP3   OH279729   3.273   1.788   1.913  0.3950 -0.4635  0.4756
19413TIP3    H179730   3.217   1.711   1.929  1.8242 -1.6355  0.0559
19413TIP3    H279731   3.308   1.774   1.825 -1.3753  2.0392 -0.7293
19414TIP3   OH279732   0.166   4.561  11.255 -0.6400  0.2081 -0.2150
19414TIP3    H179733   0.080   4.600  11.271 -0.8147  0.8375 -2.3545
19414TIP3    H279734   0.225   4.609  11.313 -1.2663  1.9490 -0.9424
19415TIP3   OH279735   3.672   1.384   5.161  0.5748 -0.1456  0.0091
19415TIP3    H179736   3.734   1.357   5.228  0.9277 -1.0476 -0.6528
19415TIP3    H279737   3.708   1.349   5.079 -0.0670  0.5488 -0.5976
19416TIP3   OH279738   3.826   5.485  12.143 -0.0025  0.0927  0.0480
19416TIP3    H179739   3.766   5.504  12.071  0.7352 -0.3936 -0.7098
19416TIP3    H279740   3.913   5.492  12.104  0.4237  0.2176  0.9936
19417TIP3   OH279741   5.273   0.391   6.194  0.6341 -0.5859 -0.9254
19417TIP3    H179742   5.272   0.362   6.285 -0.6995 -1.0971 -1.0801
19417TIP3    H279743   5.224   0.474   6.195 -0.3095 -1.1148 -1.3122
19418TIP3   OH279744   0.165   5.747  12.549 -0.0992 -0.2383  0.4226
19418TIP3    H179745   0.098   5.701  12.598 -1.2174  0.2561 -0.5917
19418TIP3    H279746   0.186   5.688  12.476 -1.6242  0.8402 -0.9491
19419TIP3   OH279747   6.385   2.386   2.734 -0.1844 -0.2990 -0.2150
19419TIP3    H179748   6.469   2.429   2.716 -0.9760  0.9043 -1.2352
19419TIP3    H279749   6.405   2.322   2.801  1.4225  0.4467  0.0721
19420TIP3   OH279750   2.279   6.261  15.126  0.5966 -0.3116 -0.2208
19420TIP3    H179751   2.260   6.304  15.209  2.0381 -1.2545  0.6430
19420TIP3    H279752   2.302   6.332  15.067  0.6713  0.2849  0.5051
19421TIP3   OH279753   4.281   2.007   4.415 -0.0981 -0.5501  0.1899
19421TIP3    H179754   4.341   2.007   4.341  0.1096 -0.7191  0.3538
19421TIP3    H279755   4.203   1.961   4.384 -0.1871 -0.2303 -0.0590
19422TIP3   OH279756   2.200   0.666   5.864 -0.2243 -0.8403 -0.7001
19422TIP3    H179757   2.276   0.608   5.857  0.2300 -0.2385 -0.8811
19422TIP3    H279758   2.126   0.613   5.835  0.3158 -1.0699 -1.6975
19423TIP3   OH279759   3.301   0.772  13.916 -0.0203 -0.2299  0.0937
19423TIP3    H179760   3.365   0.717  13.961 -0.0525 -0.8438 -0.5881
19423TIP3    H279761   3.271   0.833  13.983 -0.7328 -1.6795  1.1583
19424TIP3   OH279762   0.979   3.819   1.410 -0.4116  0.2704  0.1983
19424TIP3    H179763   0.904   3.767   1.381  1.1508 -0.8764 -2.0470
19424TIP3    H279764   1.003   3.871   1.334  0.8231  0.9181  1.0064
19425TIP3   OH279765   6.593   6.030  11.883 -0.6409  0.3326 -0.2172
19425TIP3    H179766   6.572   6.036  11.976 -1.7221  0.8525 -0.4730
19425TIP3    H279767   6.624   5.941  11.870  1.6628  0.8859  1.0406
19426TIP3   OH279768   4.913   0.770   0.839  0.5708  0.5147 -0.5599
19426TIP3    H179769   5.003   0.741   0.822  0.4020 -0.2145 -0.2320
19426TIP3    H279770   4.874   0.778   0.752  0.8374  0.4758 -0.6858
19427TIP3   OH279771   5.898   1.338  12.257 -0.2819 -0.2882  0.6643
19427TIP3    H179772   5.974   1.297  12.217 -0.0957  0.4366  0.2609
19427TIP3    H279773   5.853   1.381  12.184 -0.7336 -0.1835  1.0008
19428TIP3   OH279774   4.128   3.677  14.546 -0.3949  0.1144 -0.2265
19428TIP3    H179775   4.176   3.678  14.628 -0.6714  0.5015 -0.0700
19428TIP3    H279776   4.196   3.674  14.478 -0.1783 -0.9985  0.0280
19429TIP3   OH279777   6.357   0.122  16.784  0.4526  0.3682  0.2139
19429TIP3    H179778   6.348   0.158  16.696  0.3151  0.2464  0.1768
19429TIP3    H279779   6.428   0.058  16.777 -2.5226 -3.1307 -0.9444
19430TIP3   OH279780   3.024   2.643  16.764  0.0514 -0.0434 -0.5813
19430TIP3    H179781   3.035   2.650  16.859  1.2868  3.4950 -0.8432
19430TIP3    H279782   3.108   2.611  16.732 -0.1880 -0.7208 -0.5487
19431TIP3   OH279783   5.497   0.917   6.587  0.0119 -0.1499  0.0390
19431TIP3    H179784   5.493   0.999   6.637  2.9464  0.0895  0.0672
19431TIP3    H279785   5.537   0.854   6.647 -1.7280 -1.5020 -0.1605
19432TIP3   OH279786   4.664   6.239   6.380  0.6355 -0.2263  0.0502
19432TIP3    H179787   4.583   6.189   6.375  1.2780 -1.4889  1.3393
19432TIP3    H279788   4.708   6.222   6.297  0.0535 -0.3599 -0.2357
19433TIP3   OH279789   5.555   3.572   3.987 -0.0856 -0.3356 -0.3487
19433TIP3    H179790   5.617   3.614   3.928 -1.0641  1.4368 -0.1991
19433TIP3    H279791   5.589   3.589   4.075 -1.4733  2.0049 -0.1794
19434TIP3   OH279792   6.445   4.982   4.163 -0.0122 -0.6500  0.3791
19434TIP3    H179793   6.379   4.972   4.094 -1.1359  0.2799  1.2672
19434TIP3    H279794   6.408   4.936   4.238  0.0720  0.3644  1.0614
19435TIP3   OH279795   5.071   2.241   1.233 -0.0895  0.3097 -0.1410
19435TIP3    H179796   5.142   2.304   1.237  0.5734 -0.4802  1.2866
19435TIP3    H279797   5.062   2.221   1.140 -0.0970  2.2184 -0.5846
19436TIP3   OH279798   5.495   0.429  14.904  0.5219 -0.2408 -0.0773
19436TIP3    H179799   5.578   0.460  14.938 -1.2185  2.3294  2.3267
19436TIP3    H279800   5.453   0.386  14.978 -1.1993  0.6584 -0.4648
19437TIP3   OH279801   2.864   2.897  13.677 -0.3664  0.0841 -0.5538
19437TIP3    H179802   2.949   2.940  13.666  0.9325 -2.1732  0.0160
19437TIP3    H279803   2.835   2.925  13.764 -0.9568  2.0095 -1.3217
19438TIP3   OH279804   0.659   3.724  12.136  0.4912  0.2875 -0.2901
19438TIP3    H179805   0.636   3.635  12.161  2.0256  0.0922  0.5694
19438TIP3    H279806   0.612   3.740  12.055 -1.5936 -0.4903  0.6867
19439TIP3   OH279807   6.251   6.149  15.106  0.1869 -0.3537 -0.0558
19439TIP3    H179808   6.219   6.159  15.016  0.9769 -0.7519 -0.3894
19439TIP3    H279809   6.269   6.056  15.115 -0.5731 -0.4338  0.7647
19440TIP3   OH279810   4.428   2.125   3.671 -0.1043  0.5057 -0.2354
19440TIP3    H179811   4.368   2.148   3.743 -0.1124  0.9796 -0.3905
19440TIP3    H279812   4.508   2.098   3.715 -0.3996 -0.0356 -0.0263
19441TIP3   OH279813   3.747   5.642   6.122 -0.9291 -0.0975 -0.3741
19441TIP3    H179814   3.713   5.632   6.211 -0.0390 -0.9978 -0.1136
19441TIP3    H279815   3.734   5.735   6.102 -0.4824  0.2869  0.9828
19442TIP3   OH279816   4.895   2.341  11.108  0.2497  0.8104  0.0508
19442TIP3    H179817   4.800   2.342  11.103  0.1719  1.3916  1.2493
19442TIP3    H279818   4.923   2.422  11.065  0.1237  1.2445  0.7721
19443TIP3   OH279819   5.591   3.991  11.003 -0.4749 -0.0420  0.9549
19443TIP3    H179820   5.681   4.009  10.978 -0.7094 -0.4099 -0.2177
19443TIP3    H279821   5.597   3.955  11.092  0.8566 -2.8753 -0.1530
19444TIP3   OH279822   2.583   4.899  15.020 -0.3439  0.0178  0.1545
19444TIP3    H179823   2.643   4.950  14.965 -0.6919  0.1392 -0.1170
19444TIP3    H279824   2.621   4.903  15.107 -0.0696  0.2748  0.0238
19445TIP3   OH279825   5.226   3.184  12.753  0.0713  0.3982  0.2275
19445TIP3    H179826   5.288   3.202  12.683 -0.1200  3.3263  0.6985
19445TIP3    H279827   5.281   3.166  12.830  0.2816 -2.8790 -0.5370
19446TIP3   OH279828   0.680   2.850  14.937  0.7829 -0.2951  0.1625
19446TIP3    H179829   0.707   2.831  14.847  1.1975 -1.1960  0.4620
19446TIP3    H279830   0.608   2.913  14.928 -1.3704 -2.7474 -0.9750
19447TIP3   OH279831   5.101   0.537   5.576 -0.5692 -0.5848  0.3073
19447TIP3    H179832   5.164   0.465   5.570 -1.7853 -1.5668 -2.4104
19447TIP3    H279833   5.015   0.494   5.578 -1.2735  0.7702  0.2340
19448TIP3   OH279834   2.778   6.288   6.108  0.3721 -0.2974  0.0365
19448TIP3    H179835   2.732   6.286   6.192  1.0813  1.4275  0.4943
19448TIP3    H279836   2.806   6.378   6.097  0.2730 -0.4560 -2.1024
19449TIP3   OH279837   5.837   0.742   2.232 -1.0369  0.1531 -0.1209
19449TIP3    H179838   5.900   0.761   2.302  0.2900  2.0724 -1.7105
19449TIP3    H279839   5.839   0.821   2.177 -2.7101 -0.9190 -1.8137
19450TIP3   OH279840   5.857   0.565   1.288 -0.6445 -0.0826 -0.0759
19450TIP3    H179841   5.947   0.571   1.256 -0.5995 -0.9398 -0.1415
19450TIP3    H279842   5.840   0.471   1.293 -1.8618  0.0656 -1.0029
19451TIP3   OH279843   0.882   3.093   3.242  0.1720  0.2341 -0.4497
19451TIP3    H179844   0.974   3.116   3.237  0.2617  0.2285  0.8835
19451TIP3    H279845   0.881   2.998   3.255 -0.0324  0.2207 -0.5476
19452TIP3   OH279846   0.299   0.174  15.808 -0.0964 -0.3506 -0.1081
19452TIP3    H179847   0.208   0.171  15.776  0.5293  0.7662 -2.1636
19452TIP3    H279848   0.339   0.095  15.771 -0.0813 -0.5811  0.3881
19453TIP3   OH279849   1.627   3.852   1.174 -0.0701 -0.0933 -0.6912
19453TIP3    H179850   1.609   3.945   1.168 -0.2209 -0.0881 -0.2269
19453TIP3    H279851   1.714   3.846   1.214  0.6848 -0.1310 -2.2605
19454TIP3   OH279852   3.506   3.500   3.657 -0.1825 -0.4141 -0.4876
19454TIP3    H179853   3.576   3.458   3.708  0.0278 -0.3212 -0.6985
19454TIP3    H279854   3.427   3.450   3.679  0.1516 -1.2726 -1.1413
19455TIP3   OH279855   0.076   1.258   3.986 -0.2171 -0.1292  0.2450
19455TIP3    H179856   0.047   1.334   3.936 -2.2239 -1.5012 -0.8553
19455TIP3    H279857   0.140   1.215   3.929 -0.5898 -0.3092 -0.0500
19456TIP3   OH279858   0.592   5.534   1.200  0.3673  0.5186  0.1020
19456TIP3    H179859   0.537   5.456   1.212  0.4228  0.4628 -0.0069
19456TIP3    H279860   0.681   5.499   1.190  0.2342  0.5099 -1.2032
19457TIP3   OH279861   0.822   1.705   0.517  0.2497  1.0509 -0.0582
19457TIP3    H179862   0.867   1.624   0.542 -0.2841  1.1834  1.4492
19457TIP3    H279863   0.831   1.761   0.594 -0.3774  2.0014 -0.6655
19458TIP3   OH279864   2.203   5.606   4.070 -0.0347  0.2370  0.2935
19458TIP3    H179865   2.231   5.674   4.009  0.8235 -0.4871 -0.1449
19458TIP3    H279866   2.163   5.539   4.016  2.1561 -1.1535  0.2654
19459TIP3   OH279867   2.074   0.910  13.272  0.3063  0.3710  0.0394
19459TIP3    H179868   1.984   0.943  13.269  0.0829 -0.2540 -0.3647
19459TIP3    H279869   2.129   0.987  13.256 -0.2137  0.5259 -1.0521
19460TIP3   OH279870   2.455   5.855   0.935  0.0012 -0.5726  0.0189
19460TIP3    H179871   2.387   5.913   0.970 -1.5894 -1.5403 -1.3367
19460TIP3    H279872   2.510   5.835   1.011 -1.4080 -0.0227  1.2437
19461TIP3   OH279873   0.332   6.420   0.191 -0.4296  0.0782  1.0139
19461TIP3    H179874   0.377   6.466   0.120  1.5690 -1.1510  1.4033
19461TIP3    H279875   0.256   6.380   0.148  0.0914  0.3178 -0.1980
19462TIP3   OH279876   3.636   5.376   1.521  0.0413 -0.5027 -0.1669
19462TIP3    H179877   3.600   5.403   1.437  0.1099 -2.4180 -0.8608
19462TIP3    H279878   3.565   5.393   1.584  0.1941  1.4902 -0.4536
19463TIP3   OH279879   5.483   0.839  12.378  0.1178 -0.3180 -0.1161
19463TIP3    H179880   5.546   0.875  12.441  1.2652  0.9672 -1.9155
19463TIP3    H279881   5.515   0.750  12.361  0.4051 -0.2997  0.3173
19464TIP3   OH279882   6.563   5.844  17.039  0.0773  0.3149 -0.0206
19464TIP3    H179883   6.593   5.795  16.962 -2.3959  0.8489 -1.4455
19464TIP3    H279884   6.641   5.886  17.073  2.0210 -3.1425  0.2502
19465TIP3   OH279885   6.615   0.318   4.045 -0.1911 -0.7741 -0.2819
19465TIP3    H179886   6.703   0.289   4.022  0.4773  0.6553  0.3083
19465TIP3    H279887   6.592   0.382   3.977  0.5509  1.1855  1.1999
19466TIP3   OH279888   0.939   4.090  14.120 -0.0184  0.5167  0.5746
19466TIP3    H179889   0.890   4.170  14.101 -0.6230  0.1417  0.5529
19466TIP3    H279890   0.899   4.024  14.064  1.1260  0.4094 -0.1592
19467TIP3   OH279891   5.866   4.513   0.789  0.2861  0.4425 -0.2020
19467TIP3    H179892   5.786   4.510   0.843  1.1210 -0.7358  1.0284
19467TIP3    H279893   5.838   4.479   0.704 -0.8736  1.5661 -0.3113
19468TIP3   OH279894   4.535   4.059   1.155  0.3306 -0.0962  0.2588
19468TIP3    H179895   4.575   3.974   1.168  0.9074 -0.4270 -2.8203
19468TIP3    H279896   4.569   4.089   1.070 -2.2555  1.7699 -0.2531
19469TIP3   OH279897   3.496   1.261  16.924 -0.0947  0.1001 -0.5625
19469TIP3    H179898   3.435   1.315  16.873  1.5787  1.4641 -1.2057
19469TIP3    H279899   3.439   1.205  16.977 -1.9185  1.8629 -0.5332
19470TIP3   OH279900   3.578   1.266  14.229  0.1641 -0.6092  0.1387
19470TIP3    H179901   3.558   1.360  14.230  3.0421  0.1048 -0.5097
19470TIP3    H279902   3.601   1.248  14.138  1.4951 -1.4787  0.6186
19471TIP3   OH279903   5.228   6.251   1.108 -0.2531  0.3228 -0.1886
19471TIP3    H179904   5.280   6.175   1.133 -0.9293  0.0391  0.4002
19471TIP3    H279905   5.190   6.228   1.023 -2.2857 -0.9868  0.9897
19472TIP3   OH279906   2.937   2.372  13.159  0.3590 -0.1064 -0.2598
19472TIP3    H179907   2.877   2.307  13.195 -2.1976  2.9719  1.5233
19472TIP3    H279908   2.989   2.401  13.234  2.2478 -0.7502 -1.2486
19473TIP3   OH279909   0.145   6.454   3.290  0.7612  0.0467 -0.3735
19473TIP3    H179910   0.149   6.422   3.380  0.5104 -1.2336 -0.7824
19473TIP3    H279911   0.051   6.464   3.272  0.6016 -2.2787 -1.2810
19474TIP3   OH279912   5.183   2.709   4.968 -0.3680 -0.0843 -0.0541
19474TIP3    H179913   5.264   2.727   4.920 -0.9206 -0.7719 -1.2920
19474TIP3    H279914   5.145   2.633   4.924 -0.3006 -1.5573  2.2575
19475TIP3   OH279915   3.051   5.984  11.492  0.6227  0.7571 -0.1250
19475TIP3    H179916   3.140   6.017  11.491  1.2663 -0.8477  0.6049
19475TIP3    H279917   3.053   5.909  11.432  0.2175 -0.3195  1.1653
19476TIP3   OH279918   6.719   1.716  12.905 -0.1726 -0.0093  0.1336
19476TIP3    H179919   6.768   1.719  12.822  0.9619  0.0775  0.7870
19476TIP3    H279920   6.649   1.779  12.893  1.2114  1.5713 -0.0184
19477TIP3   OH279921   1.206   5.361   1.390 -0.1161 -0.0569  0.0614
19477TIP3    H179922   1.206   5.314   1.473 -3.1230 -2.1618 -0.9748
19477TIP3    H279923   1.155   5.306   1.331  0.1381  2.3558 -2.6141
19478TIP3   OH279924   0.184   3.259   0.698 -0.2073 -0.0458  0.8248
19478TIP3    H179925   0.201   3.345   0.660 -0.9555  0.0679  0.7469
19478TIP3    H279926   0.133   3.213   0.631 -0.2773 -0.3620  1.0945
19479TIP3   OH279927   3.158   5.844  16.574 -0.4381  0.0066 -0.5425
19479TIP3    H179928   3.243   5.842  16.619 -0.0127  0.6292 -1.2954
19479TIP3    H279929   3.112   5.918  16.613 -0.8297 -0.6044  0.1861
19480TIP3   OH279930   2.981   5.224   3.158 -0.3704 -0.6001 -0.1574
19480TIP3    H179931   3.022   5.221   3.072  0.3631 -0.9421  0.2010
19480TIP3    H279932   2.993   5.136   3.194 -0.6372 -0.4477  0.3187
19481TIP3   OH279933   6.381   5.119   0.458 -0.4484 -0.5919 -0.1793
19481TIP3    H179934   6.412   5.113   0.548 -1.8294 -1.7720  0.2408
19481TIP3    H279935   6.431   5.051   0.412  0.5932  0.3147 -0.4406
19482TIP3   OH279936   5.490   1.563  13.111 -0.3153 -0.3655 -0.3768
19482TIP3    H179937   5.470   1.516  13.030  0.8427 -1.7264  0.0889
19482TIP3    H279938   5.577   1.531  13.136  1.8666  3.9064 -1.4026
19483TIP3   OH279939   4.582   1.169   3.354 -0.5224  0.6795 -0.1217
19483TIP3    H179940   4.639   1.187   3.428  0.1978  1.9748 -0.9614
19483TIP3    H279941   4.515   1.237   3.358 -1.9545 -0.7165  0.7485
19484TIP3   OH279942   1.586   3.281  12.336  0.2139  0.3930  0.2941
19484TIP3    H179943   1.540   3.353  12.294  0.6009  1.5529  1.7848
19484TIP3    H279944   1.651   3.323  12.392  2.3779 -1.1467 -0.8802
19485TIP3   OH279945   1.752   1.695   2.549 -0.5131 -0.1869 -0.3388
19485TIP3    H179946   1.812   1.745   2.494  0.9111 -0.4212  0.9418
19485TIP3    H279947   1.775   1.603   2.533  1.1274 -0.2387  1.8397
19486TIP3   OH279948   4.485   5.993  17.125  0.0379  0.3264  0.4161
19486TIP3    H179949   4.577   5.982  17.149  0.2842 -2.9525 -1.4222
19486TIP3    H279950   4.438   5.993  17.208  1.5883  1.0842  1.3395
19487TIP3   OH279951   3.336   2.951   3.786  0.1422 -0.2513 -0.0428
19487TIP3    H179952   3.278   2.992   3.720  1.8015  2.4208  0.0152
19487TIP3    H279953   3.284   2.952   3.866 -0.7627 -0.6213 -0.5959
19488TIP3   OH279954   1.191   2.330  15.990 -0.1430 -0.0252 -0.2120
19488TIP3    H179955   1.112   2.278  15.970  0.4980 -0.5201 -1.5968
19488TIP3    H279956   1.165   2.420  15.973 -0.9781  0.0478  1.2671
19489TIP3   OH279957   3.034   5.637   1.416  0.6504  0.1469 -0.5704
19489TIP3    H179958   3.052   5.664   1.506  2.1783 -1.9475 -0.1848
19489TIP3    H279959   2.945   5.602   1.418 -0.2839  2.3326 -0.4868
19490TIP3   OH279960   6.793   3.449   4.761 -0.0974 -0.0016  0.0242
19490TIP3    H179961   6.732   3.379   4.784 -0.7817  0.4685 -0.3123
19490TIP3    H279962   6.805   3.498   4.842 -0.3287  0.0224  0.0455
19491TIP3   OH279963   3.395   6.228   0.525 -0.1997  0.7468 -0.3031
19491TIP3    H179964   3.342   6.298   0.564  0.5416  1.4025 -0.4503
19491TIP3    H279965   3.403   6.162   0.594  1.2408  1.9649  0.7574
19492TIP3   OH279966   0.660   6.265  14.042 -0.7436 -0.6458 -0.1135
19492TIP3    H179967   0.609   6.184  14.038 -0.3449 -0.8895 -3.3568
19492TIP3    H279968   0.748   6.239  14.014  0.3187  0.3839  2.0480
19493TIP3   OH279969   3.262   2.518   4.400 -0.2077 -0.7341 -0.1883
19493TIP3    H179970   3.241   2.531   4.307 -0.8225 -1.1080 -0.1054
19493TIP3    H279971   3.355   2.539   4.406 -0.3881  0.3016 -0.6993
19494TIP3   OH279972   0.746   5.290   0.504  0.0634 -0.0145  0.1735
19494TIP3    H179973   0.707   5.238   0.434  1.2794  1.3151 -1.5854
19494TIP3    H279974   0.715   5.379   0.488 -0.4488  0.1733  1.9724
19495TIP3   OH279975   5.946   5.285   1.322 -0.3712  0.2380 -0.5051
19495TIP3    H179976   5.868   5.264   1.373 -0.6557  1.0890 -0.5683
19495TIP3    H279977   5.914   5.341   1.251  0.3477  0.9460 -0.2883
19496TIP3   OH279978   3.559   6.822   6.218 -0.1319  0.1011  0.2352
19496TIP3    H179979   3.623   6.893   6.217 -0.2875  0.3818  2.8310
19496TIP3    H279980   3.475   6.865   6.200  0.0715  0.1408 -0.6624
19497TIP3   OH279981   2.681   0.582  13.312 -0.6795  0.5455  0.2533
19497TIP3    H179982   2.666   0.526  13.236 -1.6762  0.9027  0.1668
19497TIP3    H279983   2.620   0.655  13.301 -0.2168  1.0602  0.9477
19498TIP3   OH279984   3.300   3.927   3.554  0.3082 -0.7569  0.4268
19498TIP3    H179985   3.231   3.934   3.619  1.1438 -0.0058  1.2601
19498TIP3    H279986   3.348   3.848   3.578 -1.2393 -2.2956 -1.1839
19499TIP3   OH279987   6.350   1.103   1.311  0.7363  0.7832  0.1087
19499TIP3    H179988   6.441   1.113   1.282  0.6855  1.0337  0.0337
19499TIP3    H279989   6.299   1.152   1.247  0.3690 -0.8064 -0.8795
19500TIP3   OH279990   3.063   1.194  16.481  0.6045  0.3981 -0.4133
19500TIP3    H179991   3.050   1.223  16.572  1.5682 -1.2688  0.3175
19500TIP3    H279992   3.125   1.121  16.489 -0.1954 -0.5343 -2.3103
19501TIP3   OH279993   0.770   6.150   0.117 -0.3080  0.0669  0.2669
19501TIP3    H179994   0.828   6.125   0.189  1.1928  2.7625  0.1351
19501TIP3    H279995   0.749   6.068   0.073  2.2469 -1.1997  1.2026
19502TIP3   OH279996   6.531   1.164   4.891 -0.9983  0.2577  0.1950
19502TIP3    H179997   6.553   1.206   4.808  0.3213  0.3896  0.6018
19502TIP3    H279998   6.567   1.076   4.884 -0.9483  0.2459  0.6121
19503TIP3   OH279999   3.095   2.020  12.517  0.4044  0.0773  0.2413
19503TIP3    H180000   3.158   2.083  12.553  1.6168  0.7658 -2.7337
19503TIP3    H280001   3.014   2.070  12.507  0.7466  0.5777 -0.1273
19504TIP3   OH280002   0.545   2.112  11.427 -0.5749  0.4938  0.1733
19504TIP3    H180003   0.544   2.108  11.523 -0.8923  0.1080  0.1589
19504TIP3    H280004   0.529   2.204  11.406 -0.5172  0.5762  0.4918
19505TIP3   OH280005   2.754   5.430   4.125 -0.5343 -0.1508 -0.2581
19505TIP3    H180006   2.789   5.495   4.064  1.5990  1.0336  2.0677
19505TIP3    H280007   2.816   5.358   4.122 -0.0215  0.2071  0.9193
19506TIP3   OH280008   3.839   3.401   5.131 -0.5298  0.6880  0.4296
19506TIP3    H180009   3.811   3.313   5.156  2.1555 -0.5202 -0.4236
19506TIP3    H280010   3.777   3.428   5.063  0.1213 -1.7184 -1.2398
19507TIP3   OH280011   5.439   1.240   3.895 -0.2390  0.1580 -0.0501
19507TIP3    H180012   5.481   1.288   3.967 -0.2992 -0.0920  0.1534
19507TIP3    H280013   5.482   1.273   3.816 -0.2359  0.5008  0.0940
19508TIP3   OH280014   2.417   2.387   1.719 -0.3807  0.4515 -0.0857
19508TIP3    H180015   2.476   2.461   1.710 -0.2615  0.3677  0.0046
19508TIP3    H280016   2.335   2.416   1.678 -0.1734  0.4462 -0.5084
19509TIP3   OH280017   1.126   3.931  12.862  0.4357  0.6292 -0.2241
19509TIP3    H180018   1.214   3.966  12.875  0.4302  1.6918 -2.4835
19509TIP3    H280019   1.124   3.906  12.770 -1.6908  0.8191 -0.2813
19510TIP3   OH280020   4.062   1.336  13.342  0.0730  0.1071 -0.7264
19510TIP3    H180021   4.149   1.347  13.304  1.1713  1.5134  1.9079
19510TIP3    H280022   4.056   1.243  13.364  2.5298  0.4791  2.2833
19511TIP3   OH280023   3.663   2.272  11.248 -0.2551  0.0348 -0.3298
19511TIP3    H180024   3.667   2.186  11.289 -1.0069 -0.7087 -1.7095
19511TIP3    H280025   3.744   2.279  11.197  0.2041  0.5214  0.4530
19512TIP3   OH280026   4.836   1.991  13.752  0.1574 -0.4808  0.1509
19512TIP3    H180027   4.863   2.082  13.737  0.6127 -0.5779  0.3680
19512TIP3    H280028   4.798   1.964  13.668  0.4461 -0.2361 -0.0647
19513TIP3   OH280029   4.683   1.288   5.600  0.2888 -0.1478 -0.0440
19513TIP3    H180030   4.751   1.265   5.538  0.0792 -0.7930 -0.0378
19513TIP3    H280031   4.702   1.379   5.624  0.1555  0.2261 -1.3120
19514TIP3   OH280032   1.561   4.887  14.560 -0.1854  0.3497 -0.2795
19514TIP3    H180033   1.647   4.891  14.518 -0.0119  0.2250  0.0659
19514TIP3    H280034   1.500   4.873  14.487  0.1219  0.0696 -0.4836
19515TIP3   OH280035   0.576   1.216   0.796  0.2418  0.2219  0.6511
19515TIP3    H180036   0.535   1.142   0.752  2.1443 -0.5540  0.0437
19515TIP3    H280037   0.539   1.216   0.884 -2.0231  0.4483 -0.2479
19516TIP3   OH280038   3.773   3.804   6.456  0.1777  0.0722  0.4537
19516TIP3    H180039   3.682   3.805   6.486  0.3450 -2.2441  1.1668
19516TIP3    H280040   3.814   3.731   6.502  2.2186  0.5562 -0.4550
19517TIP3   OH280041   2.786   5.271  12.681  0.4287 -0.0436 -0.2565
19517TIP3    H180042   2.820   5.268  12.770  1.7520  1.6428 -0.6547
19517TIP3    H280043   2.811   5.357  12.648 -3.1232  0.8423 -1.0706
19518TIP3   OH280044   3.379   5.909  11.953  1.0094  0.1598  0.3377
19518TIP3    H180045   3.360   5.999  11.980 -1.3985 -1.1697  3.7233
19518TIP3    H280046   3.472   5.910  11.929  1.0444  3.5147  0.1641
19519TIP3   OH280047   0.657   4.058  16.589 -0.6161 -0.1128 -0.1236
19519TIP3    H180048   0.689   3.970  16.571  1.1822  0.6704 -1.0829
19519TIP3    H280049   0.649   4.063  16.684 -1.2533 -1.4646 -0.0983
19520TIP3   OH280050   5.241   2.702  14.590  0.1290  0.3050 -0.3833
19520TIP3    H180051   5.332   2.725  14.608  0.4391 -0.0863 -1.4002
19520TIP3    H280052   5.191   2.777  14.621  0.7139  0.1507  0.9978
19521TIP3   OH280053   4.414   1.544   3.926 -0.1766 -0.0104  0.2127
19521TIP3    H180054   4.407   1.540   4.022  2.3759 -1.3998  0.4157
19521TIP3    H280055   4.390   1.456   3.897  0.0790  0.1002 -0.3366
19522TIP3   OH280056   3.497   5.279   1.154 -0.1701 -0.5839 -0.0006
19522TIP3    H180057   3.402   5.281   1.144 -0.5359 -2.8443  2.0325
19522TIP3    H280058   3.524   5.371   1.149 -2.2428 -0.0100 -1.9747
19523TIP3   OH280059   2.784   2.197  10.933  0.2024 -0.3567 -0.3604
19523TIP3    H180060   2.806   2.264  10.869  0.1195  2.4619  2.3391
19523TIP3    H280061   2.867   2.175  10.974 -0.2782  1.6044  1.8528
19524TIP3   OH280062   3.695   1.047   2.636  0.0766  0.3088  0.4830
19524TIP3    H180063   3.684   1.129   2.588 -1.4906  0.8699  1.7138
19524TIP3    H280064   3.779   1.057   2.680  1.3824 -0.0710 -1.7532
19525TIP3   OH280065   2.445   2.790   0.817 -0.2959 -0.6876 -0.2187
19525TIP3    H180066   2.531   2.803   0.777 -0.4226  0.9636  0.0036
19525TIP3    H280067   2.404   2.722   0.764 -0.1941  0.9151 -2.4900
19526TIP3   OH280068   6.086   4.520   3.726 -0.2656 -0.8481 -0.1579
19526TIP3    H180069   6.070   4.601   3.774 -1.5105 -0.7582 -0.6633
19526TIP3    H280070   6.180   4.519   3.710 -0.1374  0.1580  0.4520
19527TIP3   OH280071   4.419   2.590  12.369  0.1506  1.0134  0.0106
19527TIP3    H180072   4.500   2.575  12.320  0.9384 -1.2503  1.8781
19527TIP3    H280073   4.445   2.589  12.461 -2.1906 -1.8059  0.7913
19528TIP3   OH280074   2.578   1.290  10.866  0.6530  0.3798 -0.1186
19528TIP3    H180075   2.543   1.355  10.804  0.0372  0.1778  0.0077
19528TIP3    H280076   2.503   1.267  10.921  0.8850 -0.3725 -0.1049
19529TIP3   OH280077   1.964   1.279  15.638  0.0521  0.8259 -0.2552
19529TIP3    H180078   1.903   1.338  15.594  0.5041  1.7515  0.3278
19529TIP3    H280079   1.909   1.209  15.673 -0.6510  1.5423  0.0932
19530TIP3   OH280080   2.563   2.334  13.741  0.6637  0.5256 -0.2006
19530TIP3    H180081   2.502   2.333  13.667  1.5801 -2.0046 -1.0381
19530TIP3    H280082   2.625   2.403  13.720 -0.2304  1.1730 -0.7924
19531TIP3   OH280083   0.852   5.742   4.500 -0.2684  0.8077  0.7704
19531TIP3    H180084   0.895   5.718   4.419  0.1909  1.7182  0.7308
19531TIP3    H280085   0.759   5.730   4.483 -0.1246  0.2635  0.3650
19532TIP3   OH280086   3.433   5.020   1.472  0.9492 -0.2726  0.1387
19532TIP3    H180087   3.492   5.075   1.524  0.0236  0.2246  0.6941
19532TIP3    H280088   3.453   5.043   1.381  2.3038 -0.8567  0.2657
19533TIP3   OH280089   1.985   0.454  11.317 -0.3092 -0.1254 -0.1158
19533TIP3    H180090   2.026   0.455  11.231  1.0058  1.4234  0.4847
19533TIP3    H280091   1.989   0.362  11.345  0.8218 -0.3462 -0.9674
19534TIP3   OH280092   5.112   5.708  10.866 -0.0990  0.1513 -0.1967
19534TIP3    H180093   5.183   5.748  10.816 -0.2296 -1.3354 -1.6943
19534TIP3    H280094   5.117   5.615  10.844 -1.4130 -0.2600  1.0677
19535TIP3   OH280095   5.643   3.436  10.809  0.2018 -0.1800 -0.1811
19535TIP3    H180096   5.582   3.511  10.806  1.1381  0.5697 -1.6645
19535TIP3    H280097   5.590   3.364  10.843 -0.8710  1.0205  0.8093
19536TIP3   OH280098   6.781   0.354   2.793 -1.1330 -0.2173  0.1777
19536TIP3    H180099   6.695   0.397   2.785 -1.5067 -1.2063 -1.9476
19536TIP3    H280100   6.760   0.262   2.808 -0.5815 -0.8169 -2.2311
19537TIP3   OH280101   5.013   3.499   0.285  0.4799  0.1601  0.4612
19537TIP3    H180102   5.006   3.472   0.376 -0.2982  0.9775  0.6510
19537TIP3    H280103   5.020   3.594   0.289  0.1302  0.2256 -0.3495
19538TIP3   OH280104   4.332   5.411   6.159 -0.1722 -0.3094 -0.7367
19538TIP3    H180105   4.292   5.489   6.195  0.7806  0.5718 -1.5157
19538TIP3    H280106   4.334   5.349   6.231  2.5680  1.7020  1.1253
19539TIP3   OH280107   0.755   5.455  14.900  0.1242 -0.6211  0.0897
19539TIP3    H180108   0.697   5.462  14.824 -0.2489 -1.9508  0.2336
19539TIP3    H280109   0.843   5.446  14.863  0.0830 -0.1039 -0.1482
19540TIP3   OH280110   3.425   3.834   0.702  0.0636  0.0922 -0.6593
19540TIP3    H180111   3.489   3.800   0.765  0.6286  1.9038 -0.1958
19540TIP3    H280112   3.451   3.795   0.619 -0.5846 -2.2095  0.1424
19541TIP3   OH280113   1.403   2.757   1.524  0.0152  0.0127 -0.0995
19541TIP3    H180114   1.322   2.712   1.500  0.8636 -1.5857 -0.0674
19541TIP3    H280115   1.395   2.771   1.618 -0.9074  1.3539 -0.3374
19542TIP3   OH280116   5.064   1.390  14.934  0.5974  0.2731 -0.3481
19542TIP3    H180117   5.059   1.312  14.989 -0.4297 -0.0105 -0.8144
19542TIP3    H280118   5.157   1.412  14.932  0.6619  0.2916  1.4719
19543TIP3   OH280119   1.981   4.541  11.789  0.5953 -0.5484 -0.3506
19543TIP3    H180120   2.035   4.573  11.716 -1.4244  2.5765 -0.6764
19543TIP3    H280121   2.031   4.562  11.867  0.5269  1.0819 -0.6964
19544TIP3   OH280122   3.749   4.737  11.654  0.1456  0.2159  0.4270
19544TIP3    H180123   3.700   4.784  11.587  1.5318 -0.0892 -0.8332
19544TIP3    H280124   3.748   4.646  11.625  1.4740  0.2132  0.3632
19545TIP3   OH280125   6.306   2.244  12.669 -0.4538  0.0032 -0.2042
19545TIP3    H180126   6.305   2.157  12.708  0.9766  0.3602  0.6790
19545TIP3    H280127   6.350   2.233  12.584  2.5560  0.3108  1.1920
19546TIP3   OH280128   0.643   2.282  16.593  0.0773 -0.3085  0.9894
19546TIP3    H180129   0.583   2.313  16.662 -0.5106 -0.1571  0.4169
19546TIP3    H280130   0.603   2.312  16.512  0.6295 -0.7221  0.5621
19547TIP3   OH280131   0.233   6.349  15.958 -0.0573  0.1501 -0.2594
19547TIP3    H180132   0.222   6.276  15.896 -1.0619  1.8764 -2.2377
19547TIP3    H280133   0.313   6.392  15.928 -0.1147  0.5371  0.1491
19548TIP3   OH280134   2.148   3.955  16.548 -0.3318  0.1618  0.4451
19548TIP3    H180135   2.129   3.955  16.642 -0.0198  1.0762  0.5234
19548TIP3    H280136   2.215   3.889  16.537  0.4231  0.8036  1.0532
19549TIP3   OH280137   4.871   0.475  14.259 -0.5570 -0.1056 -0.2174
19549TIP3    H180138   4.785   0.509  14.285  0.5394  2.3791  0.4826
19549TIP3    H280139   4.911   0.547  14.210  1.4473 -0.8504  0.2369
19550TIP3   OH280140   2.352   1.098   1.719 -0.4254  0.2384  0.5680
19550TIP3    H180141   2.352   1.117   1.813  1.3456 -1.3227  0.9628
19550TIP3    H280142   2.419   1.030   1.709 -0.1882  0.7397 -1.9095
19551TIP3   OH280143   3.037   0.339  12.843  0.0411 -0.0982  0.2514
19551TIP3    H180144   2.984   0.322  12.765  0.6885  0.8142 -0.4118
19551TIP3    H280145   3.114   0.284  12.832 -0.4527 -0.9401  0.8994
19552TIP3   OH280146   2.072   1.628  11.986 -0.2291  0.1164 -0.1915
19552TIP3    H180147   2.090   1.719  11.961  0.4778 -0.2137 -0.9024
19552TIP3    H280148   2.116   1.618  12.071  0.2065  0.2593 -0.3988
19553TIP3   OH280149   3.211   3.653   0.734  0.0996  0.0734  0.0165
19553TIP3    H180150   3.130   3.705   0.731 -0.7142 -1.1832 -0.6036
19553TIP3    H280151   3.280   3.718   0.743 -0.8131  1.3407 -1.4707
19554TIP3   OH280152   2.467   2.184  15.272  0.4274 -0.1581 -0.8508
19554TIP3    H180153   2.504   2.142  15.195 -0.7618  0.1180 -1.5983
19554TIP3    H280154   2.420   2.114  15.318  3.2472 -0.9491  1.0871
19555TIP3   OH280155   3.733   5.167  12.606  0.0935  0.1919  0.1477
19555TIP3    H180156   3.664   5.224  12.573  1.1642  0.4259 -1.8226
19555TIP3    H280157   3.687   5.101  12.658 -1.8150 -0.4527 -2.1661
19556TIP3   OH280158   2.603   5.405  15.320 -0.3596 -0.1163 -1.0112
19556TIP3    H180159   2.541   5.367  15.383  0.4643 -0.0867 -0.1610
19556TIP3    H280160   2.622   5.492  15.355  1.1841 -0.6274 -0.5174
19557TIP3   OH280161   4.795   5.027   0.069 -0.0892  0.2378  0.5964
19557TIP3    H180162   4.787   5.006   0.162  2.3770 -0.3460  0.7451
19557TIP3    H280163   4.865   4.969   0.038 -1.8121 -0.6024 -1.9784
19558TIP3   OH280164   0.018   2.274  11.517  0.9345 -0.2233  0.2932
19558TIP3    H180165   0.002   2.287  11.610 -3.0761 -1.3815 -0.0367
19558TIP3    H280166  -0.038   2.339  11.474  2.4462  0.0679 -1.3447
19559TIP3   OH280167   5.131   4.804  12.488 -0.4994 -0.2888  0.5478
19559TIP3    H180168   5.054   4.785  12.434  1.0795  2.4326 -3.0581
19559TIP3    H280169   5.205   4.769  12.439  0.9450  1.0928  1.6282
19560TIP3   OH280170   1.674   5.422  15.612 -0.3259 -0.0472  0.0578
19560TIP3    H180171   1.761   5.445  15.580 -0.1691  0.2077  0.6520
19560TIP3    H280172   1.621   5.501  15.597 -0.2854  0.0269  0.3018
19561TIP3   OH280173   6.363   2.395   0.588 -0.0560  0.5561  0.2494
19561TIP3    H180174   6.364   2.321   0.649  0.1432  0.3264 -0.0271
19561TIP3    H280175   6.422   2.459   0.627  1.6945 -0.4071 -0.6772
19562TIP3   OH280176   4.942   1.912   4.399  0.0540 -0.1377  0.0254
19562TIP3    H180177   4.868   1.950   4.446  0.2223  0.4444 -0.1742
19562TIP3    H280178   5.019   1.956   4.437  0.2094  0.1529 -0.6155
19563TIP3   OH280179   2.136   1.527   2.185 -0.8385 -0.1819 -0.0679
19563TIP3    H180180   2.056   1.564   2.146 -0.7885 -1.0410 -1.0373
19563TIP3    H280181   2.201   1.531   2.114 -0.3223 -0.4471  0.3843
19564TIP3   OH280182   3.870   0.453   4.286  0.2329  0.0113 -0.1736
19564TIP3    H180183   3.868   0.425   4.377 -1.0596  0.1345 -0.1512
19564TIP3    H280184   3.904   0.542   4.289  1.4461 -0.4335  0.0406
19565TIP3   OH280185   4.476   3.558  12.190  0.1563  0.3499  0.0121
19565TIP3    H180186   4.571   3.570  12.194  0.3691 -1.2520  2.6493
19565TIP3    H280187   4.462   3.497  12.118  1.1104  0.6616 -0.4478
19566TIP3   OH280188   6.031   0.951  16.205 -0.0364  0.4445 -0.1101
19566TIP3    H180189   6.098   0.939  16.138 -0.3319 -0.0961 -0.3148
19566TIP3    H280190   6.077   0.993  16.278  1.2329 -2.4580  0.8900
19567TIP3   OH280191   1.313   4.301   1.895 -0.5917 -0.2986 -0.4581
19567TIP3    H180192   1.327   4.240   1.823  0.8285  0.6501 -1.0323
19567TIP3    H280193   1.247   4.363   1.862  1.0197  0.9300 -1.5175
19568TIP3   OH280194   1.399   0.812  12.587 -0.3235 -0.1084  0.2072
19568TIP3    H180195   1.412   0.904  12.564  0.3835 -0.7129 -1.9945
19568TIP3    H280196   1.324   0.785  12.534  0.7681 -1.3295 -0.7419
19569TIP3   OH280197   2.140   3.353  13.209  0.3869 -0.4380 -0.8928
19569TIP3    H180198   2.085   3.391  13.278  1.1128 -0.7329 -0.1312
19569TIP3    H280199   2.156   3.426  13.149 -1.7674 -0.6167 -1.7670
19570TIP3   OH280200   5.031   4.014   5.372 -0.3811  0.0837 -0.9865
19570TIP3    H180201   4.988   3.939   5.330 -0.7192  0.4281 -1.2701
19570TIP3    H280202   5.114   4.024   5.326 -0.6643  0.3366 -1.4519
19571TIP3   OH280203   0.292   4.999  13.399 -0.1581  0.2049  0.0021
19571TIP3    H180204   0.240   5.065  13.443 -0.1616  0.9989 -1.1480
19571TIP3    H280205   0.263   4.916  13.436  1.0059  0.8986  2.6684
19572TIP3   OH280206   1.285   5.348   0.324 -0.0593  0.4455  0.1061
19572TIP3    H180207   1.320   5.433   0.351 -0.7854  0.5380  0.7776
19572TIP3    H280208   1.308   5.341   0.232  3.1049 -0.1668  0.8201
19573TIP3   OH280209   3.873   6.829   6.264  0.1764 -0.8943 -0.0309
19573TIP3    H180210   3.886   6.820   6.170  0.4301 -0.6927 -0.0167
19573TIP3    H280211   3.949   6.787   6.304  1.4168  1.2570  0.0328
19574TIP3   OH280212   5.520   6.603   1.410  0.6017  0.0667 -0.0650
19574TIP3    H180213   5.518   6.566   1.499  2.5532 -0.9100 -0.3727
19574TIP3    H280214   5.450   6.557   1.364  0.4414 -0.3904  0.6160
19575TIP3   OH280215   1.587   1.246   6.054  0.0080 -0.1633  0.0485
19575TIP3    H180216   1.541   1.164   6.038 -0.4745  0.0900  0.1013
19575TIP3    H280217   1.601   1.283   5.966 -1.5835  0.6573  0.0874
19576TIP3   OH280218   6.275   1.258   0.087 -0.0885 -0.4863  0.7827
19576TIP3    H180219   6.321   1.331   0.044 -1.4731  0.0937  0.2328
19576TIP3    H280220   6.219   1.300   0.152 -0.9352 -1.0485  0.4354
19577TIP3   OH280221   6.060   3.364  16.487 -0.0562  0.0097  0.4807
19577TIP3    H180222   6.151   3.369  16.517  0.7452 -0.3161 -1.6855
19577TIP3    H280223   6.040   3.452  16.455 -0.4441  0.0284  0.7630
19578TIP3   OH280224   2.217   5.605   2.774  0.2212 -0.1687 -0.1545
19578TIP3    H180225   2.214   5.700   2.767 -1.7243 -0.2876 -2.3685
19578TIP3    H280226   2.298   5.580   2.730  0.0228  0.4358 -0.8937
19579TIP3   OH280227   2.250   2.839   1.837 -0.0967 -1.0130 -0.3153
19579TIP3    H180228   2.204   2.770   1.789  3.0734 -3.4639 -0.1672
19579TIP3    H280229   2.326   2.860   1.782 -0.1409  1.3216  0.3992
19580TIP3   OH280230   3.381   5.038  10.606 -0.0159 -0.6334 -0.6295
19580TIP3    H180231   3.374   4.966  10.669  0.8815  0.0975  0.3404
19580TIP3    H280232   3.382   5.117  10.660  1.3115 -0.0163 -1.5170
19581TIP3   OH280233   2.733   1.765  15.856  0.0999 -0.1095  0.1433
19581TIP3    H180234   2.752   1.677  15.824  1.7695  0.5644 -0.8434
19581TIP3    H280235   2.638   1.767  15.867  0.1142 -2.3025  1.0605
19582TIP3   OH280236   2.115   2.788   5.791  0.0397  0.0881 -0.2175
19582TIP3    H180237   2.178   2.747   5.850 -2.0435 -2.1731  0.5743
19582TIP3    H280238   2.098   2.721   5.725 -1.6655  0.5597 -0.2857
19583TIP3   OH280239   1.439   1.748  13.120 -0.0474  0.3345 -0.0598
19583TIP3    H180240   1.457   1.745  13.026 -0.1402 -0.3983 -0.0573
19583TIP3    H280241   1.522   1.725  13.162 -0.2132 -0.1178  0.0196
19584TIP3   OH280242   1.039   4.731   0.185  0.0520 -0.0736  0.0679
19584TIP3    H180243   0.993   4.815   0.187 -0.7329 -0.4973  0.0809
19584TIP3    H280244   1.113   4.743   0.245 -0.0790  0.5896  0.1028
19585TIP3   OH280245   5.573   3.551  13.731 -0.0468 -0.1523  0.6850
19585TIP3    H180246   5.487   3.520  13.703 -1.0635  1.0528  2.2878
19585TIP3    H280247   5.558   3.591  13.816  2.2749 -0.6420  1.4192
19586TIP3   OH280248   0.556   1.646   0.023 -0.2889  0.1634  0.3524
19586TIP3    H180249   0.608   1.623   0.101  0.1141 -1.8234 -0.4376
19586TIP3    H280250   0.521   1.562  -0.008 -1.1892  1.0331 -1.0991
19587TIP3   OH280251   3.267   0.292   2.053 -0.2022 -0.2931 -0.3993
19587TIP3    H180252   3.190   0.247   2.018 -2.3070  2.2171  0.6381
19587TIP3    H280253   3.292   0.353   1.984 -1.6180  1.5692  0.6415
19588TIP3   OH280254   2.411   4.301   0.474  0.6607 -0.4630 -0.2711
19588TIP3    H180255   2.454   4.300   0.389 -1.0139  0.4740 -1.1832
19588TIP3    H280256   2.339   4.363   0.464  1.7002  1.3627  2.5028
19589TIP3   OH280257   1.311   1.844  14.195 -0.5031  0.0054 -0.3633
19589TIP3    H180258   1.240   1.783  14.218 -0.4686  0.1055  0.0205
19589TIP3    H280259   1.389   1.789  14.186 -0.7321 -0.1825 -1.3449
19590TIP3   OH280260   0.338   2.458  15.829 -0.0131  0.3003  0.0946
19590TIP3    H180261   0.264   2.494  15.876  0.2158 -0.7014  1.2667
19590TIP3    H280262   0.397   2.532  15.816 -0.8282  0.9244 -0.1061
19591TIP3   OH280263   0.930   6.417  13.341 -0.0588 -0.1149 -0.2303
19591TIP3    H180264   0.893   6.330  13.353  1.9213 -0.9762 -0.0199
19591TIP3    H280265   0.909   6.463  13.423 -1.4017 -0.2360 -0.4745
19592TIP3   OH280266   4.586   3.523  13.873  1.2278 -0.3420  0.3111
19592TIP3    H180267   4.644   3.577  13.819  0.1336 -0.5558 -1.1599
19592TIP3    H280268   4.499   3.561  13.859  0.8512 -0.7188  1.5579
19593TIP3   OH280269   3.362   2.333   4.023  0.1911 -0.0069  0.1057
19593TIP3    H180270   3.413   2.404   4.062  1.6010 -0.1839 -1.3439
19593TIP3    H280271   3.380   2.257   4.079  0.8609  0.1293  0.0785
19594TIP3   OH280272   0.391   3.219  12.096  0.1399 -0.3288  0.2982
19594TIP3    H180273   0.403   3.132  12.134 -1.0300  0.1508  1.9200
19594TIP3    H280274   0.475   3.263  12.108  0.5529 -1.0339  0.0137
19595TIP3   OH280275   3.530   5.322  12.479  0.3752 -0.2156  0.0428
19595TIP3    H180276   3.513   5.379  12.554  1.6071 -0.5423  0.5850
19595TIP3    H280277   3.503   5.374  12.403 -0.5891  0.2418  0.6663
19596TIP3   OH280278   0.102   0.148   5.872  0.3045 -0.0385 -0.0243
19596TIP3    H180279   0.182   0.192   5.841 -0.0374  1.2954  0.9076
19596TIP3    H280280   0.105   0.157   5.967 -0.9421 -0.0074  0.0233
19597TIP3   OH280281   2.777   2.833   3.358  0.5143  0.0999 -0.8434
19597TIP3    H180282   2.732   2.802   3.279 -0.4169  0.6160 -0.5349
19597TIP3    H280283   2.745   2.922   3.370  1.5947  0.4659 -0.5741
19598TIP3   OH280284   5.312   6.094   0.159 -0.3808  0.5230 -0.4777
19598TIP3    H180285   5.340   6.078   0.069 -0.4771 -1.4552 -0.2039
19598TIP3    H280286   5.380   6.153   0.195  1.2933 -0.9983 -1.0018
19599TIP3   OH280287   0.139   0.770   6.054 -0.3303 -0.1017 -0.4917
19599TIP3    H180288   0.220   0.724   6.076  0.0061  1.7849  2.8849
19599TIP3    H280289   0.075   0.700   6.038  1.0044 -1.7188  0.9194
19600TIP3   OH280290   6.695   2.480   4.506 -0.6361 -0.1963  0.5499
19600TIP3    H180291   6.688   2.491   4.600 -3.4871  0.3322  0.3547
19600TIP3    H280292   6.734   2.393   4.495 -0.4398 -0.3475  2.1918
19601TIP3   OH280293   0.008   3.670  15.166 -0.3601 -0.0350 -1.1283
19601TIP3    H180294  -0.087   3.683  15.167 -0.5410 -1.2870 -0.5782
19601TIP3    H280295   0.023   3.591  15.218  1.1810  1.2990  0.6254
19602TIP3   OH280296   0.596   3.363  16.159  0.0950  0.0832  0.6531
19602TIP3    H180297   0.607   3.284  16.212 -0.2322 -0.7405 -0.4799
19602TIP3    H280298   0.514   3.350  16.112  0.4522  0.7272 -0.1786
19603TIP3   OH280299   5.078   0.070  12.309 -0.4052  0.3194 -0.2263
19603TIP3    H180300   5.009   0.129  12.340  0.2499  1.1919 -0.3993
19603TIP3    H280301   5.092   0.095  12.218 -1.3363 -1.2918 -0.8626
19604TIP3   OH280302   0.583   4.727  16.857  0.3004  0.2727 -0.0822
19604TIP3    H180303   0.568   4.677  16.777 -0.0444  1.2978 -0.6769
19604TIP3    H280304   0.677   4.717  16.874 -0.2144 -3.3277  1.7273
19605TIP3   OH280305   6.473   4.017   5.467  0.4218  0.3154  0.2455
19605TIP3    H180306   6.465   4.056   5.380  1.9915 -0.7504 -0.4229
19605TIP3    H280307   6.511   4.087   5.521  0.8084  0.5375 -0.3041
19606TIP3   OH280308   3.728   1.795   2.340  0.3900  0.0362  0.5958
19606TIP3    H180309   3.752   1.870   2.286 -1.5224  0.2543 -0.0152
19606TIP3    H280310   3.812   1.756   2.366  1.3873  1.5711 -0.1922
19607TIP3   OH280311   3.343   1.198   2.324 -0.0437 -0.5138 -0.4213
19607TIP3    H180312   3.280   1.267   2.302 -1.9488 -2.0985 -0.2108
19607TIP3    H280313   3.343   1.140   2.249 -0.7007 -1.8317  0.5655
19608TIP3   OH280314   4.735   6.635  15.202  0.4749 -0.1896  0.3459
19608TIP3    H180315   4.778   6.710  15.243 -0.0689  1.6011 -2.1156
19608TIP3    H280316   4.647   6.666  15.180 -0.4324 -2.1954  0.9246
19609TIP3   OH280317   3.723   0.080   4.409 -0.4177  0.0123 -0.5411
19609TIP3    H180318   3.722   0.028   4.329 -0.9943  0.0280 -0.5465
19609TIP3    H280319   3.634   0.116   4.416  0.0608  1.2920 -0.7289
19610TIP3   OH280320   3.179   1.063  14.496  0.0084  0.0361  0.0555
19610TIP3    H180321   3.100   1.094  14.451 -0.4365 -1.7868 -0.5111
19610TIP3    H280322   3.189   0.973  14.466  2.0024  0.0513  0.5709
19611TIP3   OH280323   5.897   3.609  15.168 -0.1533  0.0411 -0.3461
19611TIP3    H180324   5.807   3.628  15.192  0.3507  1.0392  0.8771
19611TIP3    H280325   5.911   3.518  15.196 -0.5945  0.0914  0.0451
19612TIP3   OH280326   5.891   5.358   5.754 -0.3440 -0.0704 -0.2933
19612TIP3    H180327   5.854   5.271   5.763 -0.5540  0.1326  1.0240
19612TIP3    H280328   5.975   5.354   5.799 -0.6625  0.5708  0.3946
19613TIP3   OH280329   6.335   5.994   0.463  0.2544 -0.1926 -0.2434
19613TIP3    H180330   6.246   5.966   0.442  0.0237  0.6883 -0.4577
19613TIP3    H280331   6.370   6.026   0.381  1.0594 -1.2620 -0.3387
19614TIP3   OH280332   5.950   0.026  16.899 -0.0184 -0.1930 -0.9019
19614TIP3    H180333   6.046   0.023  16.898 -0.0242 -0.4170 -2.3219
19614TIP3    H280334   5.923  -0.065  16.891 -0.3294  0.0221 -2.5924
19615TIP3   OH280335   6.195   2.198  15.136 -0.0552 -0.7537 -0.0111
19615TIP3    H180336   6.239   2.132  15.083 -0.0540 -0.7661  0.0054
19615TIP3    H280337   6.116   2.220  15.087 -0.6599 -1.6219  0.5550
19616TIP3   OH280338   4.683   4.590  15.261 -0.0579 -0.3137 -0.4534
19616TIP3    H180339   4.673   4.682  15.286 -0.3406 -0.9665  2.2152
19616TIP3    H280340   4.608   4.546  15.302  0.2885 -1.7856 -1.3302
19617TIP3   OH280341   6.791   0.018   1.764  0.9200 -0.1356  0.3279
19617TIP3    H180342   6.822   0.094   1.715  1.3518  0.1447  1.0107
19617TIP3    H280343   6.703   0.002   1.731  1.2932 -0.1066 -0.6964
19618TIP3   OH280344   5.082   4.164  12.806 -0.0249  0.0224 -0.0601
19618TIP3    H180345   5.095   4.259  12.802  0.5780 -0.0363  0.3566
19618TIP3    H280346   5.135   4.130  12.734  0.4331 -0.0591  0.3130
19619TIP3   OH280347   1.404   6.327  17.148 -0.1315 -0.4813 -0.8882
19619TIP3    H180348   1.352   6.343  17.070 -0.8890  3.9288  0.2680
19619TIP3    H280349   1.348   6.275  17.205 -2.7600  2.5673 -0.4329
19620TIP3   OH280350   1.320   3.011   1.157 -0.2917  0.6521  0.2967
19620TIP3    H180351   1.362   3.035   1.075  2.3851 -1.2031  1.0170
19620TIP3    H280352   1.243   2.960   1.130  1.0745 -0.7739 -1.0979
19621TIP3   OH280353   1.434   3.428  13.670 -0.2955  0.8747  0.0517
19621TIP3    H180354   1.516   3.465  13.701  0.2166  0.1186 -0.3777
19621TIP3    H280355   1.430   3.452  13.577 -0.9172  1.5224  0.2331
19622TIP3   OH280356   0.543   2.583  14.989  0.0502 -0.1977  0.3186
19622TIP3    H180357   0.524   2.671  14.956  0.1844 -0.6323 -0.9735
19622TIP3    H280358   0.507   2.524  14.923 -1.5285 -1.1807  1.9791
19623TIP3   OH280359   1.961   4.024   4.071 -0.0109 -0.6478 -0.7039
19623TIP3    H180360   1.989   3.939   4.037 -0.4403 -0.6485 -1.0623
19623TIP3    H280361   1.871   4.034   4.039  0.5910  0.6790 -2.0720
19624TIP3   OH280362   1.083   3.919   1.163  0.6303 -0.0192 -0.2076
19624TIP3    H180363   1.083   4.011   1.138  2.4487  0.4730  1.3567
19624TIP3    H280364   1.164   3.884   1.126 -0.5930 -1.3520 -1.7956
19625TIP3   OH280365   3.656   1.407   1.528  0.2797  0.2050  0.2627
19625TIP3    H180366   3.582   1.391   1.586  0.7481 -1.2625  0.4910
19625TIP3    H280367   3.728   1.430   1.587  0.3682  0.2086  0.1541
19626TIP3   OH280368   0.610   1.339   5.561 -0.6821  0.4161  0.0939
19626TIP3    H180369   0.594   1.354   5.468  0.3938 -2.0073 -0.5480
19626TIP3    H280370   0.678   1.271   5.564  0.6446  1.6763  2.6524
19627TIP3   OH280371   5.341   2.128  13.830 -0.0474 -0.2394 -0.7223
19627TIP3    H180372   5.423   2.142  13.784  0.2641  1.2749  0.2055
19627TIP3    H280373   5.304   2.216  13.839 -0.0593 -0.4362  1.9283
19628TIP3   OH280374   0.260   6.605   2.142  0.5027 -0.5190 -0.5479
19628TIP3    H180375   0.181   6.653   2.117  0.9423  1.2648  1.2552
19628TIP3    H280376   0.323   6.673   2.165  0.8952 -1.8936  2.9870
19629TIP3   OH280377   5.670   2.982  12.870  0.3087  0.1284 -0.4587
19629TIP3    H180378   5.586   2.937  12.862  0.4306  0.0898 -1.7447
19629TIP3    H280379   5.648   3.069  12.905 -0.4208  0.5474 -1.8959
19630TIP3   OH280380   4.175   2.783   5.197  0.1853 -0.4950  0.0079
19630TIP3    H180381   4.224   2.811   5.274  0.0492 -0.0719 -0.0538
19630TIP3    H280382   4.127   2.861   5.170  3.0186  0.5231 -2.6702
19631TIP3   OH280383   2.965   0.232  12.383 -0.2491 -0.8062 -0.3506
19631TIP3    H180384   3.033   0.164  12.383 -0.7826 -1.3927 -1.8065
19631TIP3    H280385   2.906   0.206  12.312 -0.5814  1.0812 -0.8117
19632TIP3   OH280386   6.331   5.191  12.235 -0.2309  0.0285 -0.3320
19632TIP3    H180387   6.404   5.240  12.273 -0.6730 -0.2439  0.9214
19632TIP3    H280388   6.309   5.126  12.302 -2.8839  1.3485  0.2185
19633TIP3   OH280389   0.708   0.075   0.404  0.1815 -0.5203 -0.2367
19633TIP3    H180390   0.671   0.094   0.317  2.1044  3.5193 -0.3883
19633TIP3    H280391   0.634   0.040   0.453 -2.1270  0.9854 -2.3617
19634TIP3   OH280392   3.824   2.650   1.300  0.2261  0.0156 -0.1692
19634TIP3    H180393   3.764   2.707   1.348 -1.0682 -1.9681  0.6924
19634TIP3    H280394   3.815   2.677   1.209 -0.0045  1.4607  0.2527
19635TIP3   OH280395   5.746   2.356  15.680  0.5682 -0.0810  0.1035
19635TIP3    H180396   5.714   2.278  15.635 -0.7112  0.2507  0.4113
19635TIP3    H280397   5.677   2.379  15.742  0.5866  1.7122 -0.4748
19636TIP3   OH280398   1.761   4.546  15.151 -0.1453 -0.1810 -0.1358
19636TIP3    H180399   1.780   4.637  15.129 -1.1643 -0.1060 -0.8197
19636TIP3    H280400   1.667   4.537  15.136  0.1457 -1.6767 -1.3513
19637TIP3   OH280401   1.703   4.635   6.445  0.6278 -0.6851  0.0833
19637TIP3    H180402   1.623   4.599   6.485  1.0499  0.4855  2.1230
19637TIP3    H280403   1.672   4.709   6.393  0.3298 -0.3968  0.6546
19638TIP3   OH280404   0.089   1.243  10.813 -0.5159 -0.1949  0.1007
19638TIP3    H180405   0.110   1.263  10.721 -0.3477  0.4830  0.2867
19638TIP3    H280406  -0.006   1.237  10.815 -0.5789  0.6290  0.0430
19639TIP3   OH280407   4.020   1.847  13.674 -0.4494  0.4545 -0.4049
19639TIP3    H180408   4.062   1.855  13.588 -0.8720 -1.5985 -0.8426
19639TIP3    H280409   3.954   1.917  13.675 -0.2349  0.6934 -1.6306
19640TIP3   OH280410   0.540   2.823  14.215 -0.0773  0.0871  0.5665
19640TIP3    H180411   0.455   2.862  14.194 -0.5385 -0.0395  2.0692
19640TIP3    H280412   0.539   2.814  14.311  1.6157  0.0536  0.6058
19641TIP3   OH280413   2.521   4.703   4.363 -0.0771  0.1700  0.1121
19641TIP3    H180414   2.608   4.697   4.323  0.0102 -1.7876  0.4626
19641TIP3    H280415   2.460   4.698   4.289  0.1077 -0.0955 -0.0259
19642TIP3   OH280416   3.164   0.470  13.419  0.3975 -0.9071  0.0879
19642TIP3    H180417   3.121   0.493  13.337  1.7622  1.9853  0.0776
19642TIP3    H280418   3.092   0.461  13.482 -0.4570  0.7620 -0.5871
19643TIP3   OH280419   1.429   2.393  15.054 -0.4369  0.2810  0.2484
19643TIP3    H180420   1.471   2.370  15.137  0.5988  1.3307  0.0365
19643TIP3    H280421   1.335   2.378  15.070 -0.5444  2.6913  2.4253
19644TIP3   OH280422   1.642   2.313   4.302  0.1848  0.6381 -0.4379
19644TIP3    H180423   1.598   2.268   4.230  0.2319 -1.2714  0.6559
19644TIP3    H280424   1.684   2.243   4.352 -1.3473  1.6336  2.4744
19645TIP3   OH280425   6.668   1.249   5.863 -0.6259 -0.3760  0.2199
19645TIP3    H180426   6.606   1.297   5.808 -0.6843  0.4564  1.0012
19645TIP3    H280427   6.686   1.308   5.936  1.5364 -0.3511 -0.2695
19646TIP3   OH280428   6.412   3.939  14.790 -0.2037  0.0713  0.5614
19646TIP3    H180429   6.356   3.866  14.763  0.2951 -0.1598  0.1244
19646TIP3    H280430   6.500   3.914  14.762 -0.1916  1.3524 -0.6890
19647TIP3   OH280431   5.017   1.553   2.064  0.3775 -0.3694  0.0474
19647TIP3    H180432   5.020   1.478   2.124 -1.1987 -0.5637 -0.0750
19647TIP3    H280433   4.996   1.628   2.120  3.9557  0.4398  0.5073
19648TIP3   OH280434   2.455   2.557  11.759 -1.0762 -0.5532 -0.1478
19648TIP3    H180435   2.475   2.464  11.759 -0.6398 -0.4868 -1.5933
19648TIP3    H280436   2.374   2.565  11.709 -0.7665 -0.0999 -0.5838
19649TIP3   OH280437   1.509   6.476  14.485  0.3892  0.4748  0.0288
19649TIP3    H180438   1.546   6.430  14.410 -1.1963  0.3235 -0.7111
19649TIP3    H280439   1.505   6.409  14.554 -2.1047 -0.6728 -1.1093
19650TIP3   OH280440   5.833   0.854  11.464 -0.7645 -0.2971 -0.0467
19650TIP3    H180441   5.784   0.836  11.544 -2.3454  2.8793 -0.1162
19650TIP3    H280442   5.786   0.807  11.396 -0.0830 -2.0877  0.6546
19651TIP3   OH280443   4.219   3.751   1.718 -0.0507 -0.6450  0.4665
19651TIP3    H180444   4.150   3.774   1.780 -0.6629  0.8751 -0.7344
19651TIP3    H280445   4.275   3.829   1.715  0.8406 -1.2757  0.2430
19652TIP3   OH280446   6.647   5.820  16.448 -0.0576 -0.1160  0.0459
19652TIP3    H180447   6.679   5.734  16.421 -1.8362 -0.4565 -1.1698
19652TIP3    H280448   6.615   5.807  16.537 -0.9985 -0.9248 -0.3936
19653TIP3   OH280449   4.241   3.651  15.771  0.0990  0.3233  0.3568
19653TIP3    H180450   4.277   3.714  15.834  1.3379  0.8243 -0.8169
19653TIP3    H280451   4.242   3.567  15.817 -0.2886  0.9105  1.4639
19654TIP3   OH280452   1.487   3.079   4.219  0.4274 -0.4169 -0.1455
19654TIP3    H180453   1.511   3.017   4.288 -0.6869  0.9618  1.5479
19654TIP3    H280454   1.403   3.047   4.186 -0.5270  0.5328  1.2527
19655TIP3   OH280455   3.387   6.774  14.470  0.1259  0.0281  0.0898
19655TIP3    H180456   3.477   6.777  14.438 -0.1006  0.9524 -0.5068
19655TIP3    H280457   3.334   6.793  14.393 -0.6029 -0.7758  0.3808
19656TIP3   OH280458   0.325   0.675   3.149  1.2600  0.1055  0.0604
19656TIP3    H180459   0.341   0.590   3.189 -0.1001  0.1497  0.7685
19656TIP3    H280460   0.253   0.659   3.087  0.3776  0.8848  0.8488
19657TIP3   OH280461   4.057   1.323   3.547  0.3474 -0.0330 -0.4574
19657TIP3    H180462   4.133   1.380   3.536  1.0652 -0.9868 -0.5983
19657TIP3    H280463   4.018   1.351   3.630  1.8531 -0.6234  0.4988
19658TIP3   OH280464   0.815   1.043   0.870  0.7306  0.1711 -0.8529
19658TIP3    H180465   0.747   1.093   0.825 -0.0754 -0.8905 -0.8407
19658TIP3    H280466   0.818   0.959   0.824 -0.6171 -1.2489  1.4418
19659TIP3   OH280467   5.967   3.108  13.943  0.0675 -0.0731  0.1455
19659TIP3    H180468   5.994   3.021  13.913  0.1778  0.0970 -0.2520
19659TIP3    H280469   5.882   3.123  13.902 -1.2161 -1.0800  2.2869
19660TIP3   OH280470   6.330   4.587  11.312 -0.1667 -0.3801 -0.9160
19660TIP3    H180471   6.268   4.660  11.312 -0.0223 -0.2421 -1.8283
19660TIP3    H280472   6.415   4.627  11.329 -0.1311 -0.3738 -1.1052
19661TIP3   OH280473   2.734   4.768  17.059  0.3950  0.0938 -0.0728
19661TIP3    H180474   2.812   4.820  17.038  1.1261 -0.7524  0.4867
19661TIP3    H280475   2.767   4.681  17.077 -0.5424  0.0138  1.4488
19662TIP3   OH280476   5.020   5.461  10.738  0.0699 -0.7934 -0.9402
19662TIP3    H180477   5.099   5.421  10.773 -1.4563 -0.4600  3.5069
19662TIP3    H280478   4.950   5.400  10.760 -1.3209  0.5343 -1.4864
19663TIP3   OH280479   1.773   1.247   5.764 -0.2969  0.0309 -0.7598
19663TIP3    H180480   1.819   1.320   5.723  0.2882 -0.8674 -1.7417
19663TIP3    H280481   1.832   1.173   5.756 -1.1953 -0.7407 -0.4763
19664TIP3   OH280482   6.686   2.693   5.011  0.2962 -0.2571 -0.0819
19664TIP3    H180483   6.646   2.617   5.053 -1.1449 -0.1827 -1.2301
19664TIP3    H280484   6.776   2.694   5.043  0.3487 -2.4293 -0.0306
19665TIP3   OH280485   6.182   0.075  13.948  0.6750  0.3338  0.4102
19665TIP3    H180486   6.260   0.086  13.894  0.6406 -0.5196  0.1730
19665TIP3    H280487   6.177   0.155  14.001  2.7902 -0.3829  1.8238
19666TIP3   OH280488   4.111   3.665  11.683  0.9992  0.2234  0.0524
19666TIP3    H180489   4.024   3.639  11.714  0.8498  2.2341  1.4617
19666TIP3    H280490   4.158   3.582  11.673 -0.3646 -0.7869  1.4615
19667TIP3   OH280491   1.160   3.994  14.250 -0.5087  0.3452 -0.4067
19667TIP3    H180492   1.220   4.046  14.196 -1.5437  2.5573  0.4411
19667TIP3    H280493   1.073   4.024  14.224 -1.1975 -1.4434 -0.2705
19668TIP3   OH280494   1.138   0.539  15.495  0.1482  0.5741  0.4673
19668TIP3    H180495   1.163   0.547  15.586 -1.4228 -0.4372  1.0459
19668TIP3    H280496   1.139   0.444  15.478 -0.7962  0.6543 -0.1641
19669TIP3   OH280497   5.984   0.961  15.746 -0.2825 -0.1264  0.2344
19669TIP3    H180498   5.981   0.865  15.738 -0.9287 -0.0356 -0.7816
19669TIP3    H280499   5.950   0.993  15.663  0.1726  0.9996  0.4653
19670TIP3   OH280500   0.107   1.076   0.549  0.0774  0.4029 -0.0614
19670TIP3    H180501   0.099   0.997   0.602 -0.6262  1.1070  0.9383
19670TIP3    H280502   0.146   1.047   0.467  0.8675 -0.7926  0.7065
19671TIP3   OH280503   2.165   5.519   3.210  0.9903 -0.0319 -0.2132
19671TIP3    H180504   2.246   5.468   3.215  0.8455 -0.3447 -0.8162
19671TIP3    H280505   2.095   5.453   3.214  0.8069  0.0479 -1.4849
19672TIP3   OH280506   5.300   3.510   4.275 -0.2638 -0.2875 -0.1984
19672TIP3    H180507   5.224   3.554   4.314 -0.2146  0.1945 -0.6385
19672TIP3    H280508   5.335   3.456   4.346  1.0541  2.1222  1.1186
19673TIP3   OH280509   1.189   3.547  15.109 -0.3208  0.1235  0.2413
19673TIP3    H180510   1.095   3.544  15.090 -0.0401 -2.2213 -1.1780
19673TIP3    H280511   1.205   3.473  15.167  0.3757  1.7571  2.2297
19674TIP3   OH280512   6.153   6.456  16.807  0.5637 -0.3916 -0.4365
19674TIP3    H180513   6.239   6.487  16.779 -0.3767  0.4862 -2.5308
19674TIP3    H280514   6.132   6.384  16.748 -1.0247  0.8216 -1.4545
19675TIP3   OH280515   3.473   1.074   3.381 -0.1269  0.0679  0.1194
19675TIP3    H180516   3.446   1.095   3.292 -0.9923 -1.9783 -0.1576
19675TIP3    H280517   3.565   1.050   3.373 -0.3613 -0.7390 -0.3822
19676TIP3   OH280518   0.074   4.549   5.076  0.4458 -0.1885 -0.2641
19676TIP3    H180519   0.110   4.628   5.036 -0.5270  0.3670 -0.0657
19676TIP3    H280520  -0.020   4.567   5.084  0.2332 -1.3189 -0.1118
19677TIP3   OH280521   4.477   5.551   4.626 -0.0861 -0.2044 -0.0165
19677TIP3    H180522   4.387   5.540   4.658  0.0208 -1.7524 -0.1672
19677TIP3    H280523   4.466   5.587   4.538 -0.5600 -0.4970 -0.0803
19678TIP3   OH280524   4.335   4.806   0.104 -0.2394  0.3021  0.6463
19678TIP3    H180525   4.414   4.855   0.082 -1.4058  1.6150 -0.8953
19678TIP3    H280526   4.341   4.726   0.052  0.0690  0.3980  0.5323
19679TIP3   OH280527   6.529   1.453  12.018 -0.0506 -0.0663 -0.5316
19679TIP3    H180528   6.605   1.432  11.963  1.0737 -1.3602  1.3690
19679TIP3    H280529   6.547   1.540  12.052 -0.6968  0.6932 -2.0619
19680TIP3   OH280530   3.044   6.298  11.768  0.2903  0.0376 -0.3247
19680TIP3    H180531   3.057   6.338  11.854 -0.3510  1.1731 -0.7221
19680TIP3    H280532   2.990   6.221  11.785 -0.1937  0.4928  0.2549
19681TIP3   OH280533   4.337   4.820  11.019 -0.3707  0.3764 -0.1016
19681TIP3    H180534   4.393   4.896  11.037 -1.2051  1.0882 -0.4644
19681TIP3    H280535   4.329   4.818  10.923 -0.6709  0.0507 -0.0718
19682TIP3   OH280536   2.135   4.108   3.738 -0.2163  0.4441  0.6391
19682TIP3    H180537   2.221   4.117   3.779 -0.8405 -1.0258  2.4131
19682TIP3    H280538   2.080   4.173   3.782  0.1378  2.0332 -1.1372
19683TIP3   OH280539   1.310   3.120  13.604  0.3063 -0.7339 -0.3046
19683TIP3    H180540   1.239   3.107  13.667  0.5776 -0.8209 -0.0189
19683TIP3    H280541   1.316   3.216  13.594  1.6724 -0.6055  1.4136
19684TIP3   OH280542   6.526   1.288  13.380 -0.4260  0.1300  0.0426
19684TIP3    H180543   6.475   1.277  13.300  0.3377 -1.3567 -0.2848
19684TIP3    H280544   6.506   1.210  13.431 -1.3203  1.3079  1.5796
19685TIP3   OH280545   4.688   5.043   3.833  0.0709  0.1436 -0.1876
19685TIP3    H180546   4.727   4.966   3.874 -1.1291 -1.2550 -1.5659
19685TIP3    H280547   4.762   5.094   3.802  0.9551  0.4926  2.3045
19686TIP3   OH280548   1.372   0.156   3.343  0.2969 -0.4429 -0.5154
19686TIP3    H180549   1.381   0.183   3.434 -0.5735 -0.7621 -0.3143
19686TIP3    H280550   1.431   0.081   3.334 -0.9181 -1.5596  0.3152
19687TIP3   OH280551   4.127   2.974   3.968 -0.1123 -0.1619 -0.0519
19687TIP3    H180552   4.109   2.882   3.985 -0.5575 -0.3159 -1.2676
19687TIP3    H280553   4.095   2.989   3.879  1.7155  0.6934 -0.6034
19688TIP3   OH280554   3.322   2.909  13.823  0.7567  0.2484  0.7564
19688TIP3    H180555   3.235   2.875  13.841  0.7488  0.2702  0.7595
19688TIP3    H280556   3.344   2.961  13.900  0.5803  0.6264  0.5518
19689TIP3   OH280557   5.509   4.556  16.851  0.8156 -0.2091 -0.1398
19689TIP3    H180558   5.429   4.554  16.799 -1.0664 -2.3916  2.5413
19689TIP3    H280559   5.580   4.557  16.786 -1.3352  0.2476 -2.6485
19690TIP3   OH280560   2.950   6.706   0.970 -0.3274  0.4083 -0.1804
19690TIP3    H180561   2.891   6.780   0.989 -1.1695 -0.0726 -0.8465
19690TIP3    H280562   2.891   6.634   0.946  0.5133 -0.2878 -0.1883
19691TIP3   OH280563   0.314   4.203   3.889 -0.6050 -0.0655 -0.0707
19691TIP3    H180564   0.368   4.205   3.810 -0.9507 -0.5730 -0.3234
19691TIP3    H280565   0.368   4.159   3.955 -0.3729  0.2260 -0.0678
19692TIP3   OH280566   6.446   3.522   3.103  0.2680  0.2913 -0.4183
19692TIP3    H180567   6.497   3.444   3.080 -0.3437 -1.0362  2.3592
19692TIP3    H280568   6.357   3.502   3.072  0.4411  0.6587 -1.1945
19693TIP3   OH280569   1.855   0.628   0.409  0.6211 -0.8860  0.0844
19693TIP3    H180570   1.765   0.596   0.417  0.3872 -0.2546  0.0711
19693TIP3    H280571   1.886   0.632   0.500 -0.8267  2.9024  0.5922
19694TIP3   OH280572   2.912   4.055   2.310  0.3083 -0.9212 -0.0217
19694TIP3    H180573   2.830   4.007   2.318  2.0312 -4.1133  0.4491
19694TIP3    H280574   2.948   4.057   2.399  0.7022  0.5842 -0.1796
19695TIP3   OH280575   2.944   0.518  14.662 -0.2119  0.2382 -0.3227
19695TIP3    H180576   2.936   0.531  14.567  2.0443 -2.5989 -1.0354
19695TIP3    H280577   3.030   0.554  14.684 -0.4488  0.3009  0.5089
19696TIP3   OH280578   6.061   3.785  10.910  0.2985  0.4053  0.1300
19696TIP3    H180579   6.026   3.707  10.954 -1.0679  0.5656 -0.6143
19696TIP3    H280580   5.984   3.839  10.893  0.8037  0.5009 -2.1458
19697TIP3   OH280581   0.628   1.473   0.712  0.2049 -0.2915  0.0428
19697TIP3    H180582   0.629   1.527   0.791 -1.0739 -0.3207  0.0946
19697TIP3    H280583   0.626   1.383   0.744 -1.3197 -0.2864  0.0054
19698TIP3   OH280584   3.968   2.246  13.724  0.0128  0.4762  0.4222
19698TIP3    H180585   3.917   2.177  13.683  0.8497  0.1056 -0.0082
19698TIP3    H280586   4.003   2.297  13.651  2.4900 -0.8764  0.5464
19699TIP3   OH280587   6.370   4.894  16.591 -0.6543 -0.4516  0.0931
19699TIP3    H180588   6.336   4.869  16.677  0.0571 -1.3576  0.1283
19699TIP3    H280589   6.333   4.828  16.532 -0.7913 -0.0904 -0.2220
19700TIP3   OH280590   5.446   1.725  13.346  0.2833  0.1067  0.2743
19700TIP3    H180591   5.467   1.666  13.273 -0.6902  1.5238 -1.2484
19700TIP3    H280592   5.527   1.731  13.397  1.2066 -0.4342 -1.0664
19701TIP3   OH280593   2.555   0.711  14.992  0.0612  0.2073 -0.1475
19701TIP3    H180594   2.631   0.728  14.937  1.0687 -0.9861  0.8341
19701TIP3    H280595   2.591   0.674  15.072 -1.5795 -0.7518  0.1839
19702TIP3   OH280596   2.249   5.050  16.511 -0.1495  0.1349  0.3096
19702TIP3    H180597   2.162   5.068  16.474 -0.6646  0.1340  1.4679
19702TIP3    H280598   2.259   4.955  16.506  0.8878  0.3125 -2.1547
19703TIP3   OH280599   0.856   4.298  12.933  0.1455 -0.5035  0.8266
19703TIP3    H180600   0.878   4.366  12.998  2.9149 -1.0411  0.5742
19703TIP3    H280601   0.926   4.303  12.869 -0.9485 -1.9884 -0.5572
19704TIP3   OH280602   4.724   2.703  15.889 -0.6562  0.3104 -0.5812
19704TIP3    H180603   4.796   2.737  15.836 -0.5935  0.4248 -0.4232
19704TIP3    H280604   4.683   2.781  15.926  0.5552  0.1606  1.2046
19705TIP3   OH280605   5.998   3.573  11.041 -0.1035 -0.4444  0.7360
19705TIP3    H180606   6.023   3.520  11.117  1.4921 -1.7563 -0.5933
19705TIP3    H280607   6.018   3.517  10.966 -2.4063  0.4753 -0.6552
19706TIP3   OH280608   1.976   0.607  16.755 -0.0265  0.2500  0.2881
19706TIP3    H180609   2.054   0.577  16.710  0.3345 -0.0805  1.1204
19706TIP3    H280610   1.906   0.549  16.724  0.5441 -1.0799  1.4203
19707TIP3   OH280611   1.032   6.818  14.140 -0.1693  0.2806  0.0473
19707TIP3    H180612   1.006   6.908  14.121 -0.1384  0.2740 -0.0241
19707TIP3    H280613   1.027   6.811  14.235 -1.5424 -0.0462 -0.0188
19708TIP3   OH280614   2.702   2.267  14.005 -0.3816  0.5500 -0.2227
19708TIP3    H180615   2.724   2.345  13.955  1.0462 -1.3818 -2.8389
19708TIP3    H280616   2.631   2.226  13.956  0.1242 -0.7044  0.0389
19709TIP3   OH280617   2.729   6.352   4.820  0.0627 -0.4484  0.4287
19709TIP3    H180618   2.727   6.348   4.725 -0.2966 -1.8154  0.4758
19709TIP3    H280619   2.807   6.302   4.844  0.8961  0.9964  0.8200
19710TIP3   OH280620   0.557   2.243  14.509 -0.1661 -0.1891  0.3266
19710TIP3    H180621   0.520   2.242  14.597  2.4288  2.3065  1.6353
19710TIP3    H280622   0.646   2.209  14.520  0.1671  0.0539 -1.3375
19711TIP3   OH280623   0.729   1.783   3.297 -0.3112  0.6215 -0.1278
19711TIP3    H180624   0.701   1.692   3.308 -0.7400  0.8320  0.5335
19711TIP3    H280625   0.819   1.785   3.330 -1.2083  1.0143  2.5045
19712TIP3   OH280626   6.336   3.373  13.723  0.1479 -0.0067  0.0799
19712TIP3    H180627   6.303   3.298  13.772 -0.5767  0.0472 -0.3036
19712TIP3    H280628   6.295   3.364  13.637  0.1008  0.7927  0.0163
19713TIP3   OH280629   3.095   6.742  14.573 -0.0951 -0.1151 -0.1472
19713TIP3    H180630   3.105   6.834  14.594  3.0676 -0.8474  2.3120
19713TIP3    H280631   3.156   6.727  14.501  1.4554 -0.6933  1.2162
19714TIP3   OH280632   0.302   1.519   0.850 -0.1838  0.0100 -0.3873
19714TIP3    H180633   0.255   1.471   0.917  0.2817  0.4872  0.2896
19714TIP3    H280634   0.387   1.539   0.889  0.3102 -0.1826 -1.3152
19715TIP3   OH280635   5.462   1.151   2.604 -0.3500 -0.2291  0.2026
19715TIP3    H180636   5.402   1.094   2.556  0.5218  0.5872 -1.9963
19715TIP3    H280637   5.517   1.190   2.537  1.5168  0.3959  1.9752
19716TIP3   OH280638   3.415   2.580   2.571  0.0336 -0.4312 -0.0447
19716TIP3    H180639   3.463   2.568   2.653  1.8718  0.2351 -0.9678
19716TIP3    H280640   3.362   2.501   2.563 -1.1055  0.0137  2.3346
19717TIP3   OH280641   1.967   0.647   1.365  0.2756 -0.1397  0.6601
19717TIP3    H180642   2.013   0.727   1.343 -0.2128 -0.0640 -0.1181
19717TIP3    H280643   1.903   0.673   1.432 -1.0465  0.5017 -0.7812
19718TIP3   OH280644   5.627   2.064  15.081  0.3899 -0.6699  0.4365
19718TIP3    H180645   5.581   2.088  15.001  1.3371 -0.0086  0.0637
19718TIP3    H280646   5.627   2.144  15.134  1.8801 -0.3593  0.0250
19719TIP3   OH280647   5.496   1.415  11.859  0.0939  0.0382 -0.3671
19719TIP3    H180648   5.404   1.425  11.836 -0.0051 -2.5507 -1.4629
19719TIP3    H280649   5.505   1.323  11.885  2.4621  0.0562 -0.8450
19720TIP3   OH280650   2.574   0.024   3.884  0.1220  0.2982  0.0084
19720TIP3    H180651   2.655  -0.002   3.926 -0.0406  0.6861  0.5756
19720TIP3    H280652   2.600   0.091   3.821 -0.0847  2.8735  2.4592
19721TIP3   OH280653   2.681   6.631   4.846 -0.3650 -0.0180  0.4968
19721TIP3    H180654   2.727   6.551   4.818  1.8183  0.8302  1.4579
19721TIP3    H280655   2.680   6.625   4.942 -1.3868  0.4948  0.5261
19722TIP3   OH280656   5.131   1.132  13.227  0.1072 -0.2378  0.4056
19722TIP3    H180657   5.045   1.153  13.190  0.5978  0.3167 -0.4663
19722TIP3    H280658   5.112   1.094  13.313 -1.0368 -0.7565 -0.0557
19723TIP3   OH280659   5.190   5.177  11.170  0.5280 -0.0680  0.0657
19723TIP3    H180660   5.103   5.149  11.141  1.0417 -1.3285 -0.3228
19723TIP3    H280661   5.214   5.114  11.238  0.2099  1.6237  1.8321
19724TIP3   OH280662   4.447   0.910   4.030  0.4265  0.3419  0.2092
19724TIP3    H180663   4.502   0.943   3.958 -0.0264 -0.2438 -0.4268
19724TIP3    H280664   4.397   0.986   4.059 -0.7676  0.2112 -1.3785
19725TIP3   OH280665   2.014   3.987   2.967  0.3894  0.2930  0.5149
19725TIP3    H180666   2.025   4.064   2.910 -0.5607  0.3988  0.4559
19725TIP3    H280667   2.020   4.022   3.056 -0.1969  0.4775  0.4906
19726TIP3   OH280668   6.492   4.787   3.169  0.0574 -0.1536  0.9060
19726TIP3    H180669   6.499   4.691   3.162 -0.4984 -0.0642 -1.9361
19726TIP3    H280670   6.407   4.807   3.132  1.8206  1.6775 -2.6971
19727TIP3   OH280671   0.965   4.131   2.772  0.1912  0.3493  0.3028
19727TIP3    H180672   1.026   4.201   2.794  0.9183 -0.3561  0.5410
19727TIP3    H280673   0.898   4.174   2.718 -0.1818  1.5347  1.6434
19728TIP3   OH280674   1.617   2.221   3.688  0.2643 -0.1374 -0.3894
19728TIP3    H180675   1.636   2.162   3.615 -1.4749 -0.7196 -0.4261
19728TIP3    H280676   1.688   2.206   3.750  0.7476 -1.0528 -1.1365
19729TIP3   OH280677   6.457   0.201   4.868 -0.2243  0.0569 -0.1922
19729TIP3    H180678   6.376   0.223   4.821 -0.9488  0.5110  1.2011
19729TIP3    H280679   6.457   0.260   4.944  2.5303  1.6406 -1.2747
19730TIP3   OH280680   6.197   3.534   1.682  0.7891 -0.8531  0.5641
19730TIP3    H180681   6.281   3.543   1.727  1.0224 -1.0557  0.1726
19730TIP3    H280682   6.195   3.605   1.619  0.0495  0.0106  1.5179
19731TIP3   OH280683   2.017   6.189  14.191 -0.5695  0.0501 -0.0999
19731TIP3    H180684   2.025   6.103  14.149 -0.9590  0.1030 -0.2836
19731TIP3    H280685   2.079   6.185  14.264  0.7495  0.2618 -1.1696
19732TIP3   OH280686   0.009   1.137  15.930  0.0887 -0.6569 -0.5789
19732TIP3    H180687  -0.038   1.220  15.916 -0.4245 -0.4592  1.9236
19732TIP3    H280688   0.101   1.163  15.936  0.1323 -0.5319 -1.5952
19733TIP3   OH280689   2.835   0.017   4.875 -0.5536 -0.3996 -0.1233
19733TIP3    H180690   2.762  -0.044   4.866 -2.0389  1.2848  0.1019
19733TIP3    H280691   2.813   0.090   4.818  0.6026  0.4845  0.5253
19734TIP3   OH280692   3.239   4.199  15.492  0.0764  0.0527 -0.3002
19734TIP3    H180693   3.272   4.151  15.417 -1.2135 -1.1783 -0.1288
19734TIP3    H280694   3.283   4.284  15.488  2.5378 -1.1694 -0.5194
19735TIP3   OH280695   6.541   5.417  14.222 -0.6653  0.9588 -0.6952
19735TIP3    H180696   6.449   5.394  14.235 -0.9186  2.2593 -0.0466
19735TIP3    H280697   6.551   5.503  14.263  0.9143  0.7100 -0.4905
19736TIP3   OH280698   1.085   6.762  15.313  0.2159 -0.1151  0.0354
19736TIP3    H180699   1.103   6.845  15.359  0.5146  1.1975 -2.2638
19736TIP3    H280700   0.990   6.763  15.298  0.4732  0.9715 -1.8885
19737TIP3   OH280701   2.965   5.847   0.431  0.5107  0.3017  1.1795
19737TIP3    H180702   2.890   5.810   0.478  0.5239 -0.9323  0.2915
19737TIP3    H280703   3.041   5.820   0.481  0.5517 -1.3446  0.3074
19738TIP3   OH280704   6.206   0.970  16.687  0.3519 -0.0585  0.0147
19738TIP3    H180705   6.206   1.024  16.767  0.1474 -0.4823  0.3098
19738TIP3    H280706   6.124   0.993  16.644 -1.0914 -2.0433  1.4904
19739TIP3   OH280707   0.689   5.316  12.663  0.0309  0.1536 -0.1094
19739TIP3    H180708   0.744   5.309  12.741  1.5030 -1.3743 -1.2109
19739TIP3    H280709   0.653   5.405  12.668  0.3023  0.2165  2.1250
19740TIP3   OH280710   5.608   1.416   4.064 -0.8391  0.3539 -0.0205
19740TIP3    H180711   5.686   1.419   4.008 -1.5684 -2.1593 -1.3290
19740TIP3    H280712   5.633   1.360   4.137 -1.2460 -0.0216 -0.1669
19741TIP3   OH280713   4.408   5.042  15.494  0.2476 -0.5299  0.9210
19741TIP3    H180714   4.317   5.032  15.468  0.2080  0.5742  0.5719
19741TIP3    H280715   4.456   4.981  15.437 -0.1310 -0.0842  0.1045
19742TIP3   OH280716   0.901   1.285   4.531 -0.3331  0.2189 -0.1638
19742TIP3    H180717   0.831   1.229   4.497 -0.4409  1.2991 -1.8337
19742TIP3    H280718   0.879   1.297   4.623 -1.3083 -0.9663 -0.2130
19743TIP3   OH280719   1.145   6.229  16.418 -0.0698 -0.3229 -0.1410
19743TIP3    H180720   1.156   6.324  16.423  1.0427 -0.3970 -0.8574
19743TIP3    H280721   1.187   6.204  16.335 -0.0681 -1.4743  0.1894
19744TIP3   OH280722   1.590   5.432  12.990  0.2826  0.4771 -0.1647
19744TIP3    H180723   1.669   5.380  12.976  1.0221  2.0795 -2.6864
19744TIP3    H280724   1.621   5.520  13.008 -0.9489  0.6421  1.3375
19745TIP3   OH280725   1.828   6.734  14.591 -0.0278 -0.3790 -0.0834
19745TIP3    H180726   1.753   6.765  14.540 -1.0496 -0.9337  1.0385
19745TIP3    H280727   1.803   6.645  14.619 -0.1253  0.3965  2.5297
19746TIP3   OH280728   2.347   3.766   2.023 -0.2066  0.2428 -0.5472
19746TIP3    H180729   2.346   3.697   2.089 -1.3377  0.3635 -0.4228
19746TIP3    H280730   2.363   3.847   2.072 -2.9255  0.5934 -0.1134
19747TIP3   OH280731   3.286   5.371   1.572  0.4401  0.1324  0.4806
19747TIP3    H180732   3.307   5.381   1.665 -0.9180  1.7122  0.6715
19747TIP3    H280733   3.282   5.461   1.538  0.3268 -0.3877 -0.9694
19748TIP3   OH280734   2.687   1.006   2.845 -0.3339  0.4752  0.0594
19748TIP3    H180735   2.638   1.073   2.893 -0.8883 -0.4417  0.8220
19748TIP3    H280736   2.637   0.925   2.859  0.4947 -0.1636 -0.5538
19749TIP3   OH280737   1.785   5.465   2.513 -0.5299 -0.2316  0.0537
19749TIP3    H180738   1.849   5.476   2.584 -0.1997  1.2328 -0.4444
19749TIP3    H280739   1.838   5.464   2.433 -0.9549 -1.2434 -0.2296
19750TIP3   OH280740   3.484   3.233  15.904 -0.0185  0.2071  0.0605
19750TIP3    H180741   3.409   3.269  15.856 -0.8073 -1.0706  0.2815
19750TIP3    H280742   3.520   3.308  15.951 -1.9463  0.6457  0.9546
19751TIP3   OH280743   1.638   1.205   0.821  0.4717 -0.0897 -0.4617
19751TIP3    H180744   1.582   1.261   0.767 -0.8211 -0.0534  0.8527
19751TIP3    H280745   1.718   1.257   0.833 -0.2756  1.0428 -0.1651
19752TIP3   OH280746   6.148   3.009   1.526 -0.1890 -0.4786 -0.0249
19752TIP3    H180747   6.201   3.004   1.605  0.6463 -0.9230 -0.5903
19752TIP3    H280748   6.172   3.093   1.486 -3.5750  1.7460  2.1705
19753TIP3   OH280749   0.965   0.531   4.347  0.6163 -0.3111 -0.0047
19753TIP3    H180750   0.926   0.618   4.359  0.4640 -0.1576 -1.4788
19753TIP3    H280751   0.974   0.522   4.253 -1.4400 -2.8204 -0.0510
19754TIP3   OH280752   3.179   2.676  11.829  0.4569  0.6048  0.1229
19754TIP3    H180753   3.087   2.661  11.810  0.1209  3.9358 -1.6596
19754TIP3    H280754   3.179   2.723  11.912  0.4221  1.5134 -0.3795
19755TIP3   OH280755   1.878   5.485  14.668  0.4843  0.4827 -0.1863
19755TIP3    H180756   1.857   5.392  14.665  0.6147  0.4427  0.0621
19755TIP3    H280757   1.862   5.510  14.759 -0.4716  0.9277 -0.4596
19756TIP3   OH280758   0.313   5.307  15.596  0.1550 -0.3074 -0.1773
19756TIP3    H180759   0.251   5.354  15.540 -0.6152 -0.0289  0.8706
19756TIP3    H280760   0.320   5.220  15.557 -2.9899 -1.2912  1.0669
19757TIP3   OH280761   4.323   3.080  10.515 -0.4064 -0.5966 -0.3704
19757TIP3    H180762   4.408   3.067  10.472  0.3574  3.6712 -0.6311
19757TIP3    H280763   4.268   3.121  10.447 -1.9055 -1.1410  0.4763
19758TIP3   OH280764   5.919   2.105  14.878 -0.5024  0.0840 -0.0768
19758TIP3    H180765   5.920   2.160  14.957 -2.0476 -1.1908  0.8988
19758TIP3    H280766   5.828   2.079  14.867 -0.0426 -1.1996 -1.2600
19759TIP3   OH280767   4.917   0.062   0.308  0.3404 -0.0660 -0.3496
19759TIP3    H180768   4.958  -0.014   0.267  0.1581 -0.9365  1.0382
19759TIP3    H280769   4.974   0.135   0.284  0.3156 -0.5382 -2.0196
19760TIP3   OH280770   2.537   4.721  14.236  0.2761  0.9663 -0.1556
19760TIP3    H180771   2.575   4.683  14.156 -2.0724  0.0536 -0.9432
19760TIP3    H280772   2.486   4.796  14.204  0.4974  1.4883  0.7004
19761TIP3   OH280773   5.784   2.920  11.779 -0.2129 -0.3934  0.2094
19761TIP3    H180774   5.753   3.005  11.749  1.5447  0.8151  1.5483
19761TIP3    H280775   5.858   2.899  11.721 -1.5267 -1.7760 -1.0515
19762TIP3   OH280776   4.923   1.332   0.431 -0.9694  0.0144  0.0266
19762TIP3    H180777   4.914   1.390   0.356  0.6530 -2.4998 -2.3062
19762TIP3    H280778   4.851   1.269   0.423 -0.9429 -0.1226  0.7445
19763TIP3   OH280779   3.670   0.745   4.622 -0.0802  0.3223 -0.1298
19763TIP3    H180780   3.670   0.699   4.706 -2.0760 -0.9568 -0.7616
19763TIP3    H280781   3.672   0.675   4.557  2.3712  1.2901 -1.2446
19764TIP3   OH280782   1.932   3.694   1.669  0.5096 -0.4240  0.6697
19764TIP3    H180783   2.007   3.753   1.656  0.0901  0.1114  0.6343
19764TIP3    H280784   1.885   3.731   1.743 -0.3434 -0.0981 -0.0211
19765TIP3   OH280785   0.423   4.624   6.183  0.7655  0.4967  0.2754
19765TIP3    H180786   0.482   4.654   6.252 -0.5006  0.3157  1.4894
19765TIP3    H280787   0.345   4.594   6.230 -0.2714  0.6694 -1.2634
19766TIP3   OH280788   2.801   1.271   3.992 -0.0994 -0.2998 -0.3329
19766TIP3    H180789   2.775   1.202   4.053  1.3548  0.1429  0.8265
19766TIP3    H280790   2.896   1.265   3.987 -0.0027  1.1996 -0.7155
19767TIP3   OH280791   2.468   3.004   4.212 -0.0946  0.1905 -0.0592
19767TIP3    H180792   2.553   2.962   4.227 -0.3436 -1.1559 -1.9921
19767TIP3    H280793   2.465   3.018   4.117 -1.4145  1.6338  0.1537
19768TIP3   OH280794   3.638   6.263   4.013  0.1641 -0.3881  0.2260
19768TIP3    H180795   3.576   6.200   3.976  0.2746 -0.2207 -0.2603
19768TIP3    H280796   3.628   6.341   3.957 -1.1732  0.6467  1.8011
19769TIP3   OH280797   0.911   5.792  15.767 -0.2769 -0.5252  0.4079
19769TIP3    H180798   0.855   5.753  15.701 -1.0508 -0.9118  1.2634
19769TIP3    H280799   0.929   5.880  15.735 -0.1546 -0.8997 -0.5854
19770TIP3   OH280800   3.054   6.017   2.649 -0.1754  0.1169  0.3873
19770TIP3    H180801   3.054   6.112   2.658  1.6452  0.2500 -0.4057
19770TIP3    H280802   2.971   5.997   2.607 -0.6980  1.3237  0.8014
19771TIP3   OH280803   4.207   2.134  15.270  0.4345  0.1922  0.0804
19771TIP3    H180804   4.229   2.042  15.264 -0.4330 -0.0104 -0.1920
19771TIP3    H280805   4.113   2.135  15.290  0.1525  1.0073 -1.1264
19772TIP3   OH280806   3.188   2.359   0.723  0.3546 -0.3351  0.3245
19772TIP3    H180807   3.147   2.273   0.717  1.4991 -1.0686  2.1929
19772TIP3    H280808   3.153   2.407   0.649 -2.1827 -1.6184  0.5717
19773TIP3   OH280809   2.355   5.383  13.663  0.3202 -0.0148  0.1970
19773TIP3    H180810   2.292   5.424  13.604  1.0000 -0.3344 -0.7741
19773TIP3    H280811   2.351   5.436  13.743 -2.3679 -1.0025  0.8045
19774TIP3   OH280812   5.174   1.833   0.060 -0.3074  0.0969  0.2100
19774TIP3    H180813   5.252   1.880   0.032  0.7849 -1.3460  0.7266
19774TIP3    H280814   5.102   1.874   0.010  0.1473  3.8129  2.2541
19775TIP3   OH280815   3.838   2.292   1.478 -0.3634  0.1786  0.3277
19775TIP3    H180816   3.763   2.352   1.483  1.2707  2.2662  1.4474
19775TIP3    H280817   3.829   2.235   1.554 -1.2581 -0.1871 -0.0402
19776TIP3   OH280818   5.952   3.549  14.196  0.0429 -0.3460 -0.1207
19776TIP3    H180819   5.888   3.513  14.134 -1.3887 -0.3462  1.2905
19776TIP3    H280820   6.004   3.473  14.223  0.7996 -0.3165 -1.4206
19777TIP3   OH280821   0.654   2.941   4.193  0.5308 -0.3815  0.0146
19777TIP3    H180822   0.569   2.942   4.237 -0.3261 -0.9251 -1.5579
19777TIP3    H280823   0.711   2.891   4.252 -0.8815 -2.0502  0.0419
19778TIP3   OH280824   1.151   6.326   2.199  0.2186  0.1817  0.2998
19778TIP3    H180825   1.236   6.367   2.218  0.2542 -0.9100  2.8695
19778TIP3    H280826   1.173   6.236   2.176 -0.1670  0.3347 -0.7096
19779TIP3   OH280827   2.891   0.163   2.869  0.6345  0.5099 -0.5802
19779TIP3    H180828   2.961   0.145   2.932 -0.2134 -0.0547  0.2295
19779TIP3    H280829   2.813   0.126   2.909 -0.1683  1.2772 -1.3881
19780TIP3   OH280830   3.253   2.933   5.165 -0.5119 -0.5862 -0.0515
19780TIP3    H180831   3.336   2.942   5.213 -1.7533 -2.2345  2.6521
19780TIP3    H280832   3.278   2.930   5.073  2.0171  3.4941  0.2614
19781TIP3   OH280833   5.279   0.560  15.226  0.2771 -0.4956 -0.5910
19781TIP3    H180834   5.374   0.547  15.229  0.2720 -0.6312 -1.0531
19781TIP3    H280835   5.251   0.513  15.149 -0.2173 -0.7480 -0.2580
19782TIP3   OH280836   0.225   0.687  16.468 -0.0564 -0.0964  0.2746
19782TIP3    H180837   0.144   0.646  16.499 -0.2208 -1.2804 -1.5579
19782TIP3    H280838   0.265   0.725  16.546 -1.9210 -0.2823  1.3690
19783TIP3   OH280839   4.656   4.230   6.370  0.1316  0.1020 -0.4370
19783TIP3    H180840   4.642   4.221   6.276  0.8921 -0.0159 -0.5459
19783TIP3    H280841   4.589   4.175   6.410  0.1728 -0.3073 -0.9245
19784TIP3   OH280842   0.636   4.660   2.955 -0.1479 -0.0069  0.0119
19784TIP3    H180843   0.649   4.667   3.049 -1.0303 -2.5715  0.3987
19784TIP3    H280844   0.620   4.750   2.926  1.8150  1.0924  1.9923
19785TIP3   OH280845   5.495   5.147  11.995  0.3859 -0.1300 -0.3326
19785TIP3    H180846   5.567   5.198  11.960  1.3960 -1.0519  0.3453
19785TIP3    H280847   5.520   5.128  12.085 -0.6429 -0.5823 -0.1228
19786TIP3   OH280848   5.423   5.537  10.399 -0.2717  0.2197  0.3849
19786TIP3    H180849   5.333   5.526  10.430 -0.7330 -1.3012 -1.3134
19786TIP3    H280850   5.418   5.521  10.305  1.9950 -1.3224  0.4498
19787TIP3   OH280851   0.211   3.078   3.219 -0.1347 -0.0263  0.2199
19787TIP3    H180852   0.234   3.104   3.308 -0.6027 -0.1090  0.3687
19787TIP3    H280853   0.209   2.982   3.221  0.1908 -0.0377  0.0336
19788TIP3   OH280854   4.762   5.369  11.331  0.5508 -0.0593 -0.0082
19788TIP3    H180855   4.843   5.374  11.279 -0.3422  1.4178 -1.3767
19788TIP3    H280856   4.781   5.418  11.411  1.4759 -1.0594  0.4023
19789TIP3   OH280857   5.650   3.168  11.307  0.4512 -0.3915 -0.4227
19789TIP3    H180858   5.613   3.083  11.281  0.7991 -0.2787 -1.3129
19789TIP3    H280859   5.720   3.146  11.367 -0.1895 -0.6727  0.2416
19790TIP3   OH280860   2.367   4.702  15.464 -0.5967 -0.5467 -0.0325
19790TIP3    H180861   2.298   4.699  15.397  1.1316  0.3177 -1.9439
19790TIP3    H280862   2.437   4.647  15.429  0.3085 -0.1672  1.1297
19791TIP3   OH280863   4.719   0.496   1.739 -0.4819  0.0815 -0.1750
19791TIP3    H180864   4.764   0.550   1.674 -2.1754  0.5165 -1.0536
19791TIP3    H280865   4.788   0.443   1.778  0.7034  0.3481 -1.8018
19792TIP3   OH280866   6.631   6.741  10.626 -0.1287  0.4936  0.2610
19792TIP3    H180867   6.553   6.742  10.570 -0.6239  1.3759  0.9284
19792TIP3    H280868   6.698   6.698  10.574 -1.5661 -2.0597  0.3863
19793TIP3   OH280869   1.794   3.384  14.877  0.0797 -1.0530 -0.0052
19793TIP3    H180870   1.746   3.436  14.941 -1.5063 -1.7760 -0.5495
19793TIP3    H280871   1.763   3.294  14.892  0.3131 -1.3509 -1.2254
19794TIP3   OH280872   4.241   5.884  14.310 -0.2646  1.1455  0.0525
19794TIP3    H180873   4.225   5.895  14.216 -1.3991  1.2214  0.2347
19794TIP3    H280874   4.230   5.971  14.346  1.2420  1.3204  0.1281
19795TIP3   OH280875   3.757   4.095   5.337  0.2100  0.2118  0.1087
19795TIP3    H180876   3.714   4.180   5.350  0.5271  0.4754 -0.5212
19795TIP3    H280877   3.710   4.055   5.264 -0.9675 -0.8622  1.4087
19796TIP3   OH280878   5.173   5.357   0.170  0.6867  0.3782 -0.0047
19796TIP3    H180879   5.208   5.272   0.143  1.5743  0.9547 -0.7062
19796TIP3    H280880   5.078   5.348   0.158  0.8400 -0.2555 -0.8368
19797TIP3   OH280881   1.912   4.789  15.902 -0.3068 -0.1564 -0.0167
19797TIP3    H180882   1.874   4.869  15.938  1.1562  0.7350 -0.3823
19797TIP3    H280883   1.839   4.746  15.857 -1.3678  0.3938  1.1162
19798TIP3   OH280884   5.354   5.988  17.043  0.6244 -0.5369  0.2130
19798TIP3    H180885   5.314   6.052  16.984  0.4352  0.4635  1.3621
19798TIP3    H280886   5.443   6.019  17.056 -0.0148  0.6496  2.2582
19799TIP3   OH280887   4.883   1.167   0.801 -0.4047 -0.8130 -0.0641
19799TIP3    H180888   4.838   1.114   0.868 -2.0244  2.4122  1.6265
19799TIP3    H280889   4.814   1.189   0.738  0.5347 -1.6701 -1.4296
19800TIP3   OH280890   5.523   2.392  12.803 -0.2760  0.0127  0.1212
19800TIP3    H180891   5.467   2.333  12.753  0.4933  0.7502 -1.7274
19800TIP3    H280892   5.612   2.361  12.784  0.0289 -0.7223  2.4547
19801TIP3   OH280893   4.358   0.854  11.897 -0.6449 -0.3758  0.3311
19801TIP3    H180894   4.424   0.890  11.838  0.8528 -0.7562  1.6933
19801TIP3    H280895   4.367   0.905  11.978 -3.5908  1.0801 -0.1079
19802TIP3   OH280896   6.053   1.642   5.582  0.6768 -0.8614 -0.5240
19802TIP3    H180897   6.102   1.671   5.659 -0.7471 -1.8160  0.8095
19802TIP3    H280898   6.113   1.655   5.509  1.8808  0.6176  0.6541
19803TIP3   OH280899   1.216   2.985   0.124 -0.0997  0.3818 -0.0769
19803TIP3    H180900   1.165   3.061   0.152  0.6467  0.5294  0.9375
19803TIP3    H280901   1.256   2.952   0.205  0.1844 -0.6434 -0.6163
19804TIP3   OH280902   5.309   4.365   2.691 -0.1814  0.1175  0.6233
19804TIP3    H180903   5.351   4.296   2.639  0.4699  0.2267  0.9852
19804TIP3    H280904   5.223   4.377   2.651  0.5564  0.6768 -0.8498
19805TIP3   OH280905   5.829   1.540   0.980  0.0090 -0.3012  0.5324
19805TIP3    H180906   5.775   1.618   0.976  1.6853  1.1463  3.1922
19805TIP3    H280907   5.779   1.473   0.933 -3.2301  1.3550  1.3555
19806TIP3   OH280908   2.168   1.127   1.322 -0.5857  0.3840  0.2306
19806TIP3    H180909   2.132   1.178   1.394 -0.2101 -0.1535  0.8094
19806TIP3    H280910   2.261   1.150   1.321  0.2057 -2.2360  2.2469
19807TIP3   OH280911   5.067   4.759  14.360  0.0578 -0.3689 -0.8403
19807TIP3    H180912   5.128   4.775  14.288  0.2341 -1.5397 -0.9691
19807TIP3    H280913   4.981   4.777  14.322  0.2780  1.1388 -0.7018
19808TIP3   OH280914   0.952   2.728   4.270  0.0934 -0.2282 -0.5034
19808TIP3    H180915   0.916   2.733   4.359 -1.4067  0.0483 -1.0873
19808TIP3    H280916   0.913   2.649   4.233 -0.2855  0.3211 -1.3071
19809TIP3   OH280917   4.604   6.523   1.566  0.3490 -0.4067 -0.0699
19809TIP3    H180918   4.656   6.602   1.562  1.0793 -0.8766 -0.0319
19809TIP3    H280919   4.541   6.539   1.637  1.3657 -0.3786  0.8412
19810TIP3   OH280920   2.262   1.552   1.649  0.0645  0.4295  0.4077
19810TIP3    H180921   2.194   1.603   1.693  0.8758  0.3717  1.7714
19810TIP3    H280922   2.338   1.610   1.647  0.2594  0.1641 -0.2869
19811TIP3   OH280923   1.532   0.618   2.468 -0.2553  0.2922 -0.0497
19811TIP3    H180924   1.438   0.630   2.455 -0.1374  3.0677  1.0223
19811TIP3    H280925   1.546   0.637   2.561  0.9532 -3.8071  0.8212
19812TIP3   OH280926   3.725   2.236  12.628  0.2986 -0.4204  0.3473
19812TIP3    H180927   3.718   2.256  12.535  0.6306 -2.6551 -0.2201
19812TIP3    H280928   3.805   2.183  12.635 -1.1772 -2.6876  1.3758
19813TIP3   OH280929   3.901   2.179  13.193 -0.3183  0.1200 -0.1038
19813TIP3    H180930   3.857   2.263  13.204  1.3000  0.8913  0.7400
19813TIP3    H280931   3.891   2.159  13.099  0.1671  1.7566 -0.5361
19814TIP3   OH280932   3.887   2.836  13.462  0.2046  0.3580 -0.0098
19814TIP3    H180933   3.937   2.755  13.450 -1.1528 -0.4352 -0.5208
19814TIP3    H280934   3.857   2.832  13.553  0.0007  0.1815 -0.0811
19815TIP3   OH280935   0.874   5.184   0.019 -0.2477  0.3665 -0.0486
19815TIP3    H180936   0.901   5.146   0.102 -0.5168 -0.2279 -0.2328
19815TIP3    H280937   0.929   5.262   0.009  0.4282 -0.0722  0.2404
19816TIP3   OH280938   6.069   1.091   0.024  0.3613 -0.2306  0.6461
19816TIP3    H180939   6.125   1.159   0.061  0.5519 -0.0048 -0.0430
19816TIP3    H280940   5.981   1.129   0.026  0.5734  0.3470 -0.4376
19817TIP3   OH280941   5.849   3.827   1.272  0.3973 -0.3947 -0.2081
19817TIP3    H180942   5.901   3.801   1.196 -0.2752  3.2666 -2.1627
19817TIP3    H280943   5.760   3.837   1.238 -0.7848 -2.1828  2.0341
19818TIP3   OH280944   6.685   6.125  15.700 -0.3315 -0.2101 -0.5253
19818TIP3    H180945   6.692   6.208  15.747  3.8009 -0.6254 -0.0464
19818TIP3    H280946   6.715   6.145  15.611  0.2054 -1.0975 -0.5491
19819TIP3   OH280947   1.042   0.419  12.896  0.2043  0.1257  0.2576
19819TIP3    H180948   0.952   0.400  12.920  0.1442  2.0344  1.7715
19819TIP3    H280949   1.041   0.422  12.800 -0.9045 -1.6286  0.1623
19820TIP3   OH280950   3.395   6.272  16.329 -0.0720  0.3131 -0.4827
19820TIP3    H180951   3.364   6.342  16.386 -0.8744  0.2688 -0.8447
19820TIP3    H280952   3.320   6.254  16.271 -0.0110 -1.0780 -0.1640
19821TIP3   OH280953   5.906   5.295  15.815  0.2763 -0.2939 -0.4070
19821TIP3    H180954   5.920   5.201  15.821  1.5477 -0.0728  0.4927
19821TIP3    H280955   5.821   5.310  15.857  1.4060 -0.7350  2.2156
19822TIP3   OH280956   2.195   4.060  13.378  0.1408 -0.0296  0.1795
19822TIP3    H180957   2.186   4.154  13.364  1.2692  0.1841  0.7226
19822TIP3    H280958   2.140   4.041  13.454  2.8964  0.9787  2.6160
19823TIP3   OH280959   2.838   5.585   0.574 -0.1562 -0.5359 -0.2543
19823TIP3    H180960   2.898   5.511   0.557  0.8322  0.0644  0.5242
19823TIP3    H280961   2.761   5.565   0.521  0.1215 -2.0920 -0.1214
19824TIP3   OH280962   3.576   5.978   1.380  0.0950 -0.4640 -0.0689
19824TIP3    H180963   3.565   5.988   1.475 -1.4251 -1.5941 -0.0836
19824TIP3    H280964   3.526   5.899   1.359 -0.5060  0.3656 -1.9658
19825TIP3   OH280965   2.538   5.903   6.540  0.3599 -0.1610  0.4568
19825TIP3    H180966   2.523   5.898   6.446  0.3496  0.2659  0.4327
19825TIP3    H280967   2.615   5.848   6.555  0.6719  0.1738  0.1209
19826TIP3   OH280968   5.406   4.394   3.444 -0.0569  0.1100 -0.2112
19826TIP3    H180969   5.324   4.443   3.450  0.4391  0.8315  1.2029
19826TIP3    H280970   5.380   4.302   3.440 -0.9781  0.4208 -1.9274
19827TIP3   OH280971   6.275   2.509  15.165  0.5088 -0.4183 -0.0313
19827TIP3    H180972   6.242   2.560  15.092 -0.6147 -1.2543 -0.1347
19827TIP3    H280973   6.281   2.419  15.131 -0.6415 -0.9400  1.0532
19828TIP3   OH280974   4.888   4.848  14.149 -0.0314  0.2982  0.3628
19828TIP3    H180975   4.861   4.759  14.123 -0.3508  0.2861  0.7235
19828TIP3    H280976   4.813   4.903  14.127 -0.3312  0.2794  1.2872
19829TIP3   OH280977   4.638   0.791  10.549  0.1262 -0.7125  0.2908
19829TIP3    H180978   4.727   0.816  10.573  0.6342 -2.0579 -0.1362
19829TIP3    H280979   4.633   0.697  10.564 -0.9647 -0.8088 -0.4806
19830TIP3   OH280980   3.837   4.001   4.197  0.4321  0.2128 -0.3275
19830TIP3    H180981   3.747   3.977   4.173  0.5094  0.7136 -1.1581
19830TIP3    H280982   3.878   3.918   4.223 -0.5612  0.1358  1.1169
19831TIP3   OH280983   0.677   2.203  16.976  0.1757 -0.2301 -0.3711
19831TIP3    H180984   0.599   2.148  16.964  0.1648 -0.4169  0.4842
19831TIP3    H280985   0.642   2.292  16.982 -0.2922 -0.4927  2.4410
19832TIP3   OH280986   1.278   5.223   5.028  0.4316 -0.4149  0.7198
19832TIP3    H180987   1.339   5.281   5.074 -0.0872  0.7667 -0.0222
19832TIP3    H280988   1.223   5.186   5.096 -0.4794  1.4759  1.0636
19833TIP3   OH280989   5.650   4.427  15.655  0.0425  0.6094 -0.4329
19833TIP3    H180990   5.556   4.412  15.650 -0.0516  0.5393  1.1856
19833TIP3    H280991   5.665   4.505  15.602 -0.7990  0.2047 -1.3006
19834TIP3   OH280992   2.799   4.331  13.612  0.2495  0.5776  0.3875
19834TIP3    H180993   2.853   4.313  13.688 -0.8367 -3.3173  0.4840
19834TIP3    H280994   2.709   4.323  13.644 -0.2310 -0.7068 -1.1228
19835TIP3   OH280995   2.594   2.085  12.320  0.4437 -0.7163 -0.1266
19835TIP3    H180996   2.584   1.999  12.359 -1.2685 -0.3707  0.3095
19835TIP3    H280997   2.667   2.125  12.367  1.9291 -2.2373 -1.0140
19836TIP3   OH280998   5.353   4.061   1.326 -0.5806 -0.3285  0.0039
19836TIP3    H180999   5.439   4.021   1.323  0.5861  2.0554 -1.0579
19836TIP3    H281000   5.293   3.989   1.347  1.3423 -2.5391 -1.6082
19837TIP3   OH281001   4.498   5.804  16.011  0.0590 -0.2287  0.2554
19837TIP3    H181002   4.478   5.730  16.069 -1.4754 -0.7899 -0.9029
19837TIP3    H281003   4.575   5.775  15.961  0.0290 -0.6616  0.4555
19838TIP3   OH281004   5.561   1.702  12.407  0.0036  0.1308  0.0209
19838TIP3    H181005   5.523   1.660  12.484  0.9729  0.3584  0.6404
19838TIP3    H281006   5.656   1.696  12.420  0.2351 -1.2042 -1.9124
19839TIP3   OH281007   3.278   4.480  17.067 -0.0785  0.2722 -0.2387
19839TIP3    H181008   3.366   4.511  17.047  0.6839 -1.8183 -0.4634
19839TIP3    H281009   3.290   4.422  17.143 -1.1350 -0.5502 -0.6712
19840TIP3   OH281010   1.383   0.528  14.484 -0.0304  0.3209 -0.3846
19840TIP3    H181011   1.308   0.471  14.469  0.2383 -0.4696  1.0817
19840TIP3    H281012   1.346   0.616  14.489 -0.7602  0.0184 -0.4171
19841TIP3   OH281013   6.270   1.326  13.208  1.1295  0.0042  0.0584
19841TIP3    H181014   6.211   1.374  13.149  1.7123 -1.0239 -1.4500
19841TIP3    H281015   6.211   1.285  13.272  0.4133  0.7500 -0.1054
19842TIP3   OH281016   4.567   1.368  15.029 -0.0833 -0.4173 -0.0403
19842TIP3    H181017   4.570   1.443  15.089 -0.7298  0.9106 -1.5951
19842TIP3    H281018   4.622   1.394  14.955 -0.1418 -1.5791 -0.5080
19843TIP3   OH281019   3.123   2.841   1.704  0.0572 -0.1944  0.1391
19843TIP3    H181020   3.029   2.826   1.691 -0.8847  3.2918  1.6101
19843TIP3    H281021   3.149   2.774   1.768 -0.8934 -2.3894 -1.6570
19844TIP3   OH281022   4.660   5.318   4.626 -0.0371  0.0684  0.4606
19844TIP3    H181023   4.591   5.383   4.642  0.0742  0.3113 -0.0168
19844TIP3    H281024   4.646   5.251   4.693 -0.5983  0.2294  0.5132
19845TIP3   OH281025   5.507   0.583   3.261  0.5370 -0.3285 -0.4724
19845TIP3    H181026   5.485   0.671   3.233  1.0964 -0.2245 -0.5944
19845TIP3    H281027   5.503   0.530   3.182 -0.1435 -0.4817 -0.3369
19846TIP3   OH281028   2.902   5.765   3.644 -0.1184  0.1134  0.3360
19846TIP3    H181029   2.917   5.756   3.550  0.5659  1.3098  0.3211
19846TIP3    H281030   2.811   5.795   3.651  0.1140  0.9030  0.0074
19847TIP3   OH281031   2.790   2.953  11.436  0.1249 -0.1000  0.5128
19847TIP3    H181032   2.748   2.870  11.454  0.1300 -0.1480  0.3076
19847TIP3    H281033   2.812   2.950  11.342  0.1655  0.1115  0.5130
19848TIP3   OH281034   5.905   6.088   1.180  0.6021  0.3786 -0.1611
19848TIP3    H181035   5.888   6.049   1.094 -1.2361 -0.5993  0.5788
19848TIP3    H281036   5.864   6.027   1.242  1.9369  1.0255  1.4350
19849TIP3   OH281037   5.922   4.704   3.904 -0.5008  0.6854 -0.0282
19849TIP3    H181038   5.903   4.640   3.973 -1.7084  1.5117  0.4396
19849TIP3    H281039   5.844   4.704   3.850 -0.2965  1.3963 -0.3269
19850TIP3   OH281040   2.798   6.761  13.099  1.2260 -0.1515  0.6543
19850TIP3    H181041   2.762   6.775  13.186 -1.0850 -0.3077 -0.1885
19850TIP3    H281042   2.784   6.667  13.082 -1.8256  0.5022 -1.1946
19851TIP3   OH281043   1.240   5.465   4.505  0.1498 -0.4488 -0.0994
19851TIP3    H181044   1.236   5.372   4.526 -1.4693 -0.3147  0.3225
19851TIP3    H281045   1.195   5.508   4.578 -0.4152  0.5288 -0.9879
19852TIP3   OH281046   2.662   2.030   3.642 -0.4883 -0.1116 -0.4803
19852TIP3    H181047   2.672   1.941   3.608 -0.7075 -0.2773 -0.1066
19852TIP3    H281048   2.730   2.038   3.709  0.7988  0.6426 -1.7985
19853TIP3   OH281049   4.354   5.532  14.080 -0.5232  0.3942  0.2789
19853TIP3    H181050   4.351   5.473  14.155 -2.1454  1.5211  1.1520
19853TIP3    H281051   4.448   5.548  14.066 -0.0452 -2.0089  0.2589
19854TIP3   OH281052   5.218   6.084   4.187  0.3673  0.2012  0.2444
19854TIP3    H181053   5.190   5.994   4.201  2.5991 -0.3846  1.3975
19854TIP3    H281054   5.274   6.080   4.109  2.6282  0.0069  1.7865
19855TIP3   OH281055   4.622   2.432   3.037 -0.2126  0.3751 -0.2168
19855TIP3    H181056   4.661   2.344   3.036  0.3644  0.5896  1.3097
19855TIP3    H281057   4.638   2.466   2.949 -0.0603 -0.8718 -0.6943
19856TIP3   OH281058   2.017   4.045  14.666  0.3168 -0.2276  0.3142
19856TIP3    H181059   2.055   4.130  14.691  1.1482  0.5724 -3.1130
19856TIP3    H281060   2.091   3.996  14.631 -0.3610 -2.0408  1.3044
19857TIP3   OH281061   5.477   5.937  14.802 -0.4878 -0.1742  0.0960
19857TIP3    H181062   5.465   5.976  14.715 -0.2893 -0.1563  0.0763
19857TIP3    H281063   5.570   5.950  14.821 -0.6221  0.2315  0.5037
19858TIP3   OH281064   6.456   3.526   5.451  0.0696 -0.3228  0.1535
19858TIP3    H181065   6.404   3.572   5.385 -1.4105 -0.3062  1.2734
19858TIP3    H281066   6.504   3.459   5.403 -1.1268 -0.4397 -0.9160
19859TIP3   OH281067   2.787   1.972  14.003 -0.6066  0.4036 -0.0976
19859TIP3    H181068   2.872   1.935  14.028  0.2706 -0.7010 -3.9143
19859TIP3    H281069   2.786   2.059  14.043  1.8452  0.0461  0.9391
19860TIP3   OH281070   2.639   5.820   3.618  0.2342 -0.2525  0.0299
19860TIP3    H181071   2.588   5.899   3.600  0.9974 -0.3202 -2.9604
19860TIP3    H281072   2.616   5.760   3.547  1.4004 -1.8787  0.9510
19861TIP3   OH281073   3.619   0.460   1.030  0.3723 -0.1486  0.1564
19861TIP3    H181074   3.637   0.372   1.064  0.3101 -0.0002  0.5702
19861TIP3    H281075   3.642   0.519   1.101 -2.2796  0.0335  0.9659
19862TIP3   OH281076   6.233   3.843  15.837  0.1891 -0.2427  0.7643
19862TIP3    H181077   6.166   3.856  15.905 -1.2576 -2.4736 -0.1436
19862TIP3    H281078   6.184   3.821  15.759  1.9720 -0.5654 -0.3151
19863TIP3   OH281079   3.076   5.273  11.401 -0.3488 -0.6782 -0.1214
19863TIP3    H181080   3.112   5.335  11.337 -0.5031 -0.0036  0.4358
19863TIP3    H281081   3.052   5.196  11.348 -1.2406  0.1835 -1.0099
19864TIP3   OH281082   1.423   4.930   0.753  0.4870 -0.3539  0.3046
19864TIP3    H181083   1.511   4.893   0.756  0.9313  0.5199 -0.9327
19864TIP3    H281084   1.390   4.907   0.666  0.4203  1.2751 -0.1421
19865TIP3   OH281085   5.340   0.339  11.483  0.1940  0.1135  0.3512
19865TIP3    H181086   5.313   0.358  11.393  0.0908 -0.5160  0.2455
19865TIP3    H281087   5.314   0.417  11.532  2.0203  1.3485 -0.4973
19866TIP3   OH281088   6.826   2.039  12.071  0.0951 -0.2491 -0.4883
19866TIP3    H181089   6.824   2.112  12.132 -0.7484 -1.4334  0.9717
19866TIP3    H281090   6.800   2.078  11.987 -0.4620  1.0943  0.2698
19867TIP3   OH281091   3.047   5.385  16.989  0.3093 -0.2685  0.3050
19867TIP3    H181092   3.036   5.440  16.912  2.0267 -0.0260  0.1870
19867TIP3    H281093   3.020   5.298  16.961  0.2911 -0.0545 -0.3634
19868TIP3   OH281094   2.861   2.736  15.818 -0.1244 -0.0358 -0.4984
19868TIP3    H181095   2.858   2.823  15.777 -0.1902 -0.5428 -1.6220
19868TIP3    H281096   2.771   2.703  15.809 -0.2166 -0.0364  0.3577
19869TIP3   OH281097   6.146   5.503   3.843  0.2222  0.2101  0.1900
19869TIP3    H181098   6.132   5.425   3.897 -0.7801 -0.3770 -0.8635
19869TIP3    H281099   6.235   5.532   3.865 -0.0457 -0.1585  1.9186
19870TIP3   OH281100   1.266   2.670   2.094 -1.0332 -0.1428  0.3669
19870TIP3    H181101   1.353   2.711   2.098 -1.1176 -0.0097  1.0264
19870TIP3    H281102   1.242   2.673   2.002 -1.5508  2.3846  0.5214
19871TIP3   OH281103   3.160   0.188  15.471 -0.0415  0.3471  0.4067
19871TIP3    H181104   3.123   0.273  15.493  1.0350  1.0752 -0.4652
19871TIP3    H281105   3.131   0.171  15.381  0.4868  0.2367  0.2488
19872TIP3   OH281106   3.746   3.157  15.815  0.2427 -0.1809 -0.1336
19872TIP3    H181107   3.771   3.125  15.902 -0.4737  1.7367  0.8270
19872TIP3    H281108   3.656   3.188  15.827  0.4532  0.9313 -1.3475
19873TIP3   OH281109   6.216   0.761  13.015 -0.2312  0.2578  0.0527
19873TIP3    H181110   6.304   0.789  12.990  0.1854  0.9080  2.1140
19873TIP3    H281111   6.230   0.677  13.060 -0.5211  0.8409  1.2664
19874TIP3   OH281112   3.903   2.159  12.920 -0.2859 -0.6706  0.2076
19874TIP3    H181113   3.873   2.240  12.878  0.8390  0.2681  1.1457
19874TIP3    H281114   3.920   2.099  12.847  1.7206  0.9412 -0.7595
19875TIP3   OH281115   2.972   6.334   3.555 -0.0572  0.2552  0.6960
19875TIP3    H181116   2.910   6.274   3.597 -0.2830  0.3241  0.4668
19875TIP3    H281117   3.007   6.284   3.481 -0.0903  0.3300  0.6286
19876TIP3   OH281118   6.107   0.304  12.662  0.1329  0.0618 -0.2679
19876TIP3    H181119   6.031   0.346  12.622  0.6091 -0.0833 -1.3732
19876TIP3    H281120   6.108   0.337  12.752  0.7792  2.8607 -1.2019
19877TIP3   OH281121   1.130   0.981   4.102 -0.3675  0.7641  0.3316
19877TIP3    H181122   1.213   0.997   4.148  0.8493 -2.2614 -0.5858
19877TIP3    H281123   1.156   0.954   4.014 -2.1874 -1.6846  0.4538
19878TIP3   OH281124   1.118   3.541  11.971 -0.0785  0.5014 -0.5931
19878TIP3    H181125   1.087   3.468  12.024 -1.0191  1.1692 -0.1909
19878TIP3    H281126   1.051   3.552  11.904  1.5963 -0.9956 -2.6282
19879TIP3   OH281127   3.135   4.692   2.358  0.2284  0.4195 -0.1660
19879TIP3    H181128   3.167   4.615   2.311  0.1119 -0.4994  1.2066
19879TIP3    H281129   3.212   4.747   2.370  0.7322 -0.4387  0.6049
19880TIP3   OH281130   2.683   3.534   5.039 -0.2102 -0.5857 -0.0891
19880TIP3    H181131   2.703   3.561   4.950  0.9908 -1.0357  0.0181
19880TIP3    H281132   2.613   3.592   5.067  1.2018  1.3670 -0.4134
19881TIP3   OH281133   3.074   2.012   2.759  0.6147  0.2043 -0.6130
19881TIP3    H181134   3.162   2.027   2.725  0.4790  1.1856 -0.5616
19881TIP3    H281135   3.037   1.947   2.700  2.0586 -1.7754  0.5480
19882TIP3   OH281136   1.817   2.804   3.069 -0.3408 -0.4452 -0.2749
19882TIP3    H181137   1.848   2.782   2.981 -1.8888  1.8290 -1.4748
19882TIP3    H281138   1.726   2.774   3.070 -0.2723 -0.6583  0.6532
19883TIP3   OH281139   2.224   2.975   1.134 -0.0860 -0.8727  0.2120
19883TIP3    H181140   2.242   2.885   1.158  0.9347 -0.4994  0.9378
19883TIP3    H281141   2.254   2.983   1.044  0.1829 -1.1621  0.2758
19884TIP3   OH281142   1.078   0.741   2.240 -0.1943  0.4512 -0.2978
19884TIP3    H181143   1.042   0.826   2.217 -0.9949  0.3009  0.3407
19884TIP3    H281144   1.050   0.683   2.170  0.8375  0.8028 -1.0393
19885TIP3   OH281145   5.645   5.443   0.744  0.4586 -0.3710  0.1283
19885TIP3    H181146   5.701   5.378   0.700 -1.3008 -1.1314 -1.1002
19885TIP3    H281147   5.606   5.493   0.672 -0.8383 -0.2170  0.9269
19886TIP3   OH281148   3.655   2.951   0.877 -0.0080  0.8474  0.2762
19886TIP3    H181149   3.688   2.925   0.963 -0.8347  0.7079  0.5556
19886TIP3    H281150   3.622   3.040   0.890  0.1368  0.9373  0.0284
19887TIP3   OH281151   0.224   0.386   1.212 -0.0429  0.4523  0.3456
19887TIP3    H181152   0.177   0.398   1.129 -0.5485  2.5480  0.8611
19887TIP3    H281153   0.296   0.449   1.208  1.1355 -0.8110  0.7178
19888TIP3   OH281154   4.489   4.402   0.296 -0.5491  0.0728  0.1465
19888TIP3    H181155   4.567   4.453   0.276 -1.2088  0.4214 -1.7826
19888TIP3    H281156   4.437   4.458   0.353 -0.9163  1.2874 -1.3322
19889TIP3   OH281157   3.071   6.483  16.716 -0.0015 -0.2179 -0.3511
19889TIP3    H181158   3.021   6.559  16.688  1.3274  1.1717  0.8307
19889TIP3    H281159   3.134   6.518  16.779  1.1805 -2.1874 -0.3558
19890TIP3   OH281160   5.064   2.592   1.403  0.1563  0.5078 -0.9240
19890TIP3    H181161   5.116   2.587   1.483 -0.6725 -1.0432 -0.4354
19890TIP3    H281162   5.094   2.518   1.350 -1.8988 -0.8427 -0.3495
19891TIP3   OH281163   6.818   2.050   3.905  0.0135  0.1909 -0.0035
19891TIP3    H181164   6.847   2.007   3.824 -0.9573 -2.4577  0.9627
19891TIP3    H281165   6.879   2.019   3.972 -1.4360 -0.6827  0.9456
19892TIP3   OH281166   3.005   6.540   2.298 -0.2041  0.3611  0.2153
19892TIP3    H181167   3.003   6.580   2.386 -0.5212 -0.5818  0.6525
19892TIP3    H281168   3.030   6.449   2.314 -0.6478  0.0798 -0.6363
19893TIP3   OH281169   4.341   5.106   3.412 -0.5378 -0.1985  0.5209
19893TIP3    H181170   4.356   5.022   3.368 -1.5931  0.4996 -1.2726
19893TIP3    H281171   4.390   5.099   3.494 -0.1463 -2.3459  0.1665
19894TIP3   OH281172   5.437   0.373   2.487  0.1705 -0.4404 -0.0819
19894TIP3    H181173   5.388   0.387   2.568  2.2498  0.3932  1.1064
19894TIP3    H281174   5.372   0.387   2.418 -1.4007  0.0247  1.3948
19895TIP3   OH281175   0.949   0.936  11.145  0.2878 -0.2079 -0.0379
19895TIP3    H181176   0.907   0.977  11.220 -1.2721 -0.6270 -0.6386
19895TIP3    H281177   1.008   0.871  11.183 -0.8130 -0.7326  0.8557
19896TIP3   OH281178   1.212   2.225  12.071 -0.0568 -0.2025 -0.3772
19896TIP3    H181179   1.211   2.302  12.128 -0.6559 -0.9462  0.6672
19896TIP3    H281180   1.303   2.195  12.071 -0.0626 -0.2241  0.2375
19897TIP3   OH281181   3.498   6.824  14.938 -0.5908  0.3659 -0.2299
19897TIP3    H181182   3.408   6.800  14.915  0.2021 -3.2357 -0.2244
19897TIP3    H281183   3.527   6.754  14.997  1.9294  1.9466  0.5758
19898TIP3   OH281184   1.035   2.228  13.870 -0.1497  0.0617 -0.7626
19898TIP3    H181185   1.080   2.302  13.910  1.4831 -0.3193 -1.7845
19898TIP3    H281186   1.070   2.151  13.915 -1.5749 -0.1388  0.0527
19899TIP3   OH281187   2.522   6.531  11.344 -0.1997  0.2207  0.0512
19899TIP3    H181188   2.511   6.609  11.290  0.6163  0.5347  0.3349
19899TIP3    H281189   2.534   6.564  11.433 -0.9890 -0.2762  0.3515
19900TIP3   OH281190   5.489   3.674   3.569 -0.2629 -0.4694  0.2363
19900TIP3    H181191   5.580   3.696   3.553 -0.5544 -0.3421 -1.3694
19900TIP3    H281192   5.487   3.643   3.660  1.1971  0.4062  0.5827
19901TIP3   OH281193   3.949   6.598  12.848  0.2952  0.2801  0.1965
19901TIP3    H181194   3.922   6.681  12.887  0.9989  1.5623 -1.8970
19901TIP3    H281195   4.026   6.572  12.898  0.1110  0.9250  0.8307
19902TIP3   OH281196   0.492   1.639  11.436 -0.4021 -0.7901 -0.1695
19902TIP3    H181197   0.467   1.557  11.478 -3.3477 -0.0963 -0.3540
19902TIP3    H281198   0.479   1.623  11.343 -0.5719 -0.2501 -0.2436
19903TIP3   OH281199   3.612   6.719   4.242 -0.5348 -0.0023 -0.7357
19903TIP3    H181200   3.607   6.624   4.253 -1.9466 -0.2526 -2.8823
19903TIP3    H281201   3.521   6.746   4.233 -0.0582  1.3229 -1.7875
19904TIP3   OH281202   3.785   3.321   0.730 -0.4333 -0.3796  0.0713
19904TIP3    H181203   3.735   3.285   0.803 -0.8932 -0.9681 -0.5186
19904TIP3    H281204   3.876   3.314   0.757 -0.5501 -1.4295  0.2211
19905TIP3   OH281205   6.241   0.994   4.084  0.2394 -0.4315 -0.1179
19905TIP3    H181206   6.235   1.074   4.136 -0.4924 -0.1256 -0.6541
19905TIP3    H281207   6.203   1.018   3.999  0.6311 -1.1608 -0.5042
19906TIP3   OH281208   2.501   3.767   4.434 -0.1157  0.2687  0.1414
19906TIP3    H181209   2.478   3.810   4.351  1.0658  1.2583  0.3031
19906TIP3    H281210   2.421   3.722   4.460 -0.9387  1.1118 -0.8183
19907TIP3   OH281211   1.301   3.383   0.792  0.4607  0.0127 -0.0773
19907TIP3    H181212   1.284   3.459   0.737 -0.3763 -0.1926 -0.1229
19907TIP3    H281213   1.214   3.350   0.815  0.8059 -0.5898  0.4143
19908TIP3   OH281214   3.636   6.289   1.123  0.0123 -0.1967  0.3526
19908TIP3    H181215   3.586   6.258   1.048  0.8405  0.3956 -0.4724
19908TIP3    H281216   3.574   6.288   1.195 -0.5215 -1.7547 -0.1048
19909TIP3   OH281217   6.128   2.759  16.183  0.1768 -0.3324 -0.4504
19909TIP3    H181218   6.085   2.707  16.251  0.1306  0.5570  0.2324
19909TIP3    H281219   6.140   2.699  16.110  1.4599 -1.7066  0.8374
19910TIP3   OH281220   4.004   6.654   3.236 -0.3625  0.0683 -0.4003
19910TIP3    H181221   4.024   6.573   3.189  1.4334 -0.5377  1.2741
19910TIP3    H281222   4.030   6.724   3.176  2.3183 -0.6812 -0.2597
19911TIP3   OH281223   3.586   5.578   2.056 -0.0611  0.1850 -0.7678
19911TIP3    H181224   3.648   5.632   2.105 -0.7898  0.6120 -0.2882
19911TIP3    H281225   3.614   5.488   2.073 -0.3234  0.3217  0.4987
19912TIP3   OH281226   3.857   2.182   3.118 -0.3451  0.1295  0.4062
19912TIP3    H181227   3.941   2.141   3.140  0.8409  1.4988 -1.3936
19912TIP3    H281228   3.809   2.114   3.071 -0.1415 -0.5418  1.1318
19913TIP3   OH281229   5.628   2.065  16.383 -0.2647 -0.0046 -0.1582
19913TIP3    H181230   5.706   2.120  16.388  1.2474 -1.5586 -3.4146
19913TIP3    H281231   5.649   1.987  16.435 -0.2913  0.2515  0.2365
19914TIP3   OH281232   4.111   0.518   5.025 -0.4602 -0.1296  1.1726
19914TIP3    H181233   4.133   0.501   5.116 -0.8815  1.1403  1.5365
19914TIP3    H281234   4.164   0.594   5.001 -0.6639 -0.1958  0.4913
19915TIP3   OH281235   4.262   1.141   3.655  0.1634 -0.2010 -0.6311
19915TIP3    H181236   4.200   1.189   3.600  1.5876  1.2815 -0.9976
19915TIP3    H281237   4.210   1.116   3.732 -1.3117 -0.4977 -1.6573
19916TIP3   OH281238   5.623   0.860  13.566 -0.0376  0.1422 -0.2306
19916TIP3    H181239   5.538   0.854  13.522 -0.3442  0.2807  0.3456
19916TIP3    H281240   5.678   0.795  13.520 -1.0963 -1.5842  0.8348
19917TIP3   OH281241   5.354   0.596  16.986  0.3433 -0.4836  0.1677
19917TIP3    H181242   5.369   0.507  16.955 -0.0455  0.2522 -2.4080
19917TIP3    H281243   5.442   0.629  17.007  0.7468 -0.7971 -0.9516
19918TIP3   OH281244   3.606   4.743  15.222 -0.3574  0.5982  0.1909
19918TIP3    H181245   3.656   4.821  15.196 -0.8071  0.9738  0.4456
19918TIP3    H281246   3.635   4.724  15.311  1.4798 -0.9266 -0.6486
19919TIP3   OH281247   3.119   3.543  17.060  0.1588 -0.8419  1.3478
19919TIP3    H181248   3.030   3.568  17.088 -0.5526 -0.2899 -1.1813
19919TIP3    H281249   3.172   3.620  17.081 -0.2375 -0.6348  1.6146
19920TIP3   OH281250   3.081   5.597   2.260 -0.4634 -0.6255 -0.0075
19920TIP3    H181251   3.146   5.573   2.193 -1.3671 -0.0624 -1.1290
19920TIP3    H281252   3.109   5.682   2.292 -0.9540 -0.0879 -0.9470
19921TIP3   OH281253   1.707   1.703   3.389  0.3876  0.0366 -0.1391
19921TIP3    H181254   1.696   1.705   3.484  0.5382 -2.2531 -0.0143
19921TIP3    H281255   1.626   1.741   3.355  0.6392  1.5861  0.8727
19922TIP3   OH281256   5.008   4.272   0.327  0.3917  0.1389  0.1326
19922TIP3    H181257   5.080   4.305   0.381  0.4507 -1.1456  0.8718
19922TIP3    H281258   4.929   4.295   0.375  0.3249  1.0816 -0.4169
19923TIP3   OH281259   2.083   3.967   1.597  0.2218 -0.1843  0.0980
19923TIP3    H181260   2.122   3.972   1.684 -0.3388 -2.4556  0.5366
19923TIP3    H281261   2.013   4.033   1.599  2.1644  2.0211  0.2130
19924TIP3   OH281262   6.752   5.945  14.787  0.3244  0.3830  0.3289
19924TIP3    H181263   6.829   5.972  14.736 -0.0134  1.6846  0.4836
19924TIP3    H281264   6.731   6.020  14.842  0.2546 -0.7306  1.9188
19925TIP3   OH281265   2.872   6.798  12.605 -0.0127  0.3043 -0.2088
19925TIP3    H181266   2.832   6.772  12.688  1.1349 -0.3308  0.1614
19925TIP3    H281267   2.966   6.783  12.617  0.2254  0.6362 -1.4664
19926TIP3   OH281268   0.114   1.513   4.766  0.2238 -0.6529 -0.2219
19926TIP3    H181269   0.161   1.447   4.714  0.4486 -0.8099  0.1662
19926TIP3    H281270   0.109   1.590   4.710  1.3390 -0.4873 -0.1201
19927TIP3   OH281271   2.824   3.662  15.847  0.1006 -0.2804 -0.1363
19927TIP3    H181272   2.757   3.729  15.859  0.6879  0.0664  1.5747
19927TIP3    H281273   2.798   3.592  15.906  0.7744 -0.5134 -0.1126
19928TIP3   OH281274   5.105   2.492  17.081 -0.0398 -0.3822  0.3400
19928TIP3    H181275   5.136   2.559  17.020 -0.6774  0.0949  0.5303
19928TIP3    H281276   5.115   2.410  17.033 -0.7431  0.0074 -0.4927
19929TIP3   OH281277   2.480   6.446   4.534 -0.3412  0.3117  0.1260
19929TIP3    H181278   2.454   6.444   4.626 -0.0297  0.5900  0.2225
19929TIP3    H281279   2.527   6.529   4.524  0.8744 -0.3767  0.0488
19930TIP3   OH281280   3.042   4.984  11.496 -0.5451  0.0678  0.7747
19930TIP3    H181281   3.061   4.963  11.404 -1.9089 -1.2113  0.7313
19930TIP3    H281282   3.077   4.909  11.545  1.2734  1.3093  1.4699
19931TIP3   OH281283   4.077   5.752   2.359  0.2953 -0.5036 -0.2702
19931TIP3    H181284   4.044   5.694   2.428 -1.0338  1.0299  0.4670
19931TIP3    H281285   3.998   5.775   2.309  0.8623  0.3198 -0.7961
19932TIP3   OH281286   1.459   2.062   1.158  0.0263 -0.0453 -0.0042
19932TIP3    H181287   1.540   2.024   1.125  0.1062 -0.1798  0.3393
19932TIP3    H281288   1.399   1.987   1.166 -0.2608  0.1115 -0.6307
19933TIP3   OH281289   4.619   4.685   0.001 -0.2894 -0.0683 -0.4028
19933TIP3    H181290   4.531   4.649  -0.016 -0.8971  0.6243  1.1222
19933TIP3    H281291   4.606   4.780   0.005  0.1407 -0.0554  1.7611
19934TIP3   OH281292   1.805   6.461   2.441 -0.2708 -0.2576  0.2062
19934TIP3    H181293   1.744   6.400   2.399  1.8136 -2.5622  0.3118
19934TIP3    H281294   1.816   6.427   2.529 -0.1420  1.1669  0.7679
19935TIP3   OH281295   5.567   1.854  16.658  0.3004 -0.6860 -0.6909
19935TIP3    H181296   5.472   1.849  16.658  0.2446  0.2703 -0.9749
19935TIP3    H281297   5.593   1.811  16.577  0.0792 -0.4633 -0.8798
19936TIP3   OH281298   2.397   0.721   1.684  0.3768  0.3452  0.1836
19936TIP3    H181299   2.304   0.739   1.677  0.1450 -0.6257  0.5976
19936TIP3    H281300   2.411   0.641   1.634  0.9140  0.2441  0.4812
19937TIP3   OH281301   3.578   4.410   3.617  0.0676  0.0649  0.2351
19937TIP3    H181302   3.572   4.352   3.693 -0.0033 -0.8843 -0.4743
19937TIP3    H281303   3.489   4.417   3.584 -0.2066  1.8916  1.2346
19938TIP3   OH281304   1.497   0.125  12.988  0.6731  0.9591  0.5511
19938TIP3    H181305   1.450   0.085  13.062 -0.5296 -1.5167 -1.4124
19938TIP3    H281306   1.438   0.194  12.956  0.2334  0.6073  0.5982
19939TIP3   OH281307   4.199   2.497   2.392 -0.5305 -0.3786 -0.8528
19939TIP3    H181308   4.272   2.524   2.337  0.8829 -0.0655  1.0713
19939TIP3    H281309   4.125   2.550   2.363 -0.4261 -1.6131 -3.7213
19940TIP3   OH281310   1.903   4.716   4.183  0.2324  0.1495  0.6887
19940TIP3    H181311   1.853   4.713   4.265 -0.1942  2.1561  0.5494
19940TIP3    H281312   1.986   4.674   4.204 -0.0702  0.1652  2.0194
19941TIP3   OH281313   1.181   4.717  16.698 -0.8328 -0.1151  0.8258
19941TIP3    H181314   1.250   4.725  16.632  0.6775  1.1903  2.4800
19941TIP3    H281315   1.101   4.701  16.647  0.2521  0.8852 -1.3115
19942TIP3   OH281316   3.895   3.566  14.833 -0.1002  0.2629  0.7132
19942TIP3    H181317   3.943   3.521  14.902 -0.3917  1.4758  1.7381
19942TIP3    H281318   3.902   3.659  14.854  1.0004  0.8128 -1.6790
19943TIP3   OH281319   4.213   4.670  16.735 -0.5483  0.5590  0.4346
19943TIP3    H181320   4.260   4.651  16.654  0.6015  0.1110  1.1842
19943TIP3    H281321   4.132   4.619  16.728 -2.1466  3.1276 -1.9057
19944TIP3   OH281322   0.148   0.571   6.308 -0.1976 -0.2448 -0.5004
19944TIP3    H181323   0.057   0.599   6.308  0.0902  0.7944  0.4415
19944TIP3    H281324   0.144   0.476   6.310 -1.2746 -0.2055 -0.0712
19945TIP3   OH281325   6.153   5.680  11.210  0.1010 -0.0555 -0.0378
19945TIP3    H181326   6.203   5.675  11.129  2.2904  0.4551  1.1937
19945TIP3    H281327   6.108   5.765  11.206 -0.6285 -0.4692 -1.1113
19946TIP3   OH281328   0.639   0.644   0.745  0.5964  0.0199 -0.3182
19946TIP3    H181329   0.657   0.553   0.771  1.2983  0.1747 -0.2504
19946TIP3    H281330   0.616   0.688   0.826 -1.9529 -0.5870 -0.6358
19947TIP3   OH281331   6.012   2.904  15.815 -0.2817  0.3704  0.0946
19947TIP3    H181332   6.018   2.831  15.753  0.9873  0.0762  0.5212
19947TIP3    H281333   6.054   2.977  15.769 -0.6403  0.5474  0.0513
19948TIP3   OH281334   4.686   0.057   4.953  0.1607  0.0355 -0.1675
19948TIP3    H181335   4.703   0.105   5.034 -1.0659 -0.7242  0.5736
19948TIP3    H281336   4.618   0.108   4.909  1.6952  1.1168 -1.3527
19949TIP3   OH281337   1.108   5.783   3.588 -0.1942  0.9801 -0.2953
19949TIP3    H181338   1.040   5.841   3.624 -1.7555 -1.8289  1.6129
19949TIP3    H281339   1.132   5.825   3.505 -2.7125  3.2309 -0.0540
19950TIP3   OH281340   1.515   3.401   4.484 -0.5756 -0.1731  0.4100
19950TIP3    H181341   1.425   3.379   4.509 -0.9433 -0.8744 -1.3944
19950TIP3    H281342   1.508   3.436   4.395  0.9578 -0.5584  0.1029
19951TIP3   OH281343   0.420   4.571   1.329  0.0244 -0.0825  0.4672
19951TIP3    H181344   0.509   4.550   1.301  0.2692 -1.2768  1.9867
19951TIP3    H281345   0.396   4.649   1.279  1.0380 -1.0888 -1.7147
19952TIP3   OH281346   5.653   1.265  15.665  0.2270  0.0046 -0.2287
19952TIP3    H181347   5.631   1.179  15.701  1.2498 -0.0206  0.3645
19952TIP3    H281348   5.583   1.323  15.695 -0.9942 -0.7825 -1.4089
19953TIP3   OH281349   1.549   6.467   2.607  0.3159 -0.0071  0.6129
19953TIP3    H181350   1.621   6.463   2.670 -0.8965  0.6280  2.1381
19953TIP3    H281351   1.543   6.559   2.583 -2.0181  0.6763  3.1716
19954TIP3   OH281352   2.527   5.098  15.929  0.3944  0.1508  0.4304
19954TIP3    H181353   2.568   5.055  15.854  0.9802  0.3455  0.6325
19954TIP3    H281354   2.513   5.028  15.993  1.9088  0.3394  1.0023
19955TIP3   OH281355   5.197   1.481  11.851  0.5652  0.6594  0.0624
19955TIP3    H181356   5.148   1.487  11.932 -0.0087 -0.9997 -0.1365
19955TIP3    H281357   5.176   1.395  11.815  0.8638  1.3090 -1.8123
19956TIP3   OH281358   2.149   1.022   2.151  0.1250  0.0955 -0.1431
19956TIP3    H181359   2.143   0.999   2.244  1.1908 -0.5344 -0.2126
19956TIP3    H281360   2.064   1.059   2.130 -0.8709 -1.6873  0.5626
19957TIP3   OH281361   6.416   5.421   3.145 -0.1032  0.2855 -0.3820
19957TIP3    H181362   6.455   5.334   3.137 -1.0521 -0.0461 -1.7741
19957TIP3    H281363   6.428   5.445   3.237 -1.4084 -2.0871  0.4903
19958TIP3   OH281364   1.228   0.429  11.501  0.4069 -0.2229  0.3535
19958TIP3    H181365   1.200   0.519  11.515  0.8960 -0.1014  0.5523
19958TIP3    H281366   1.238   0.421  11.406  0.0957 -0.1502  0.3141
19959TIP3   OH281367   3.823   3.471   2.815 -0.0067 -0.6404  0.0709
19959TIP3    H181368   3.791   3.526   2.886  1.1682 -0.0184  0.1337
19959TIP3    H281369   3.745   3.453   2.762 -0.8170 -0.7920  1.2872
19960TIP3   OH281370   2.631   5.133   4.979  0.2808 -0.3428  0.9312
19960TIP3    H181371   2.600   5.090   5.058 -3.4905  1.1639  0.4710
19960TIP3    H281372   2.577   5.212   4.972  0.2978 -0.5016 -3.2134
19961TIP3   OH281373   1.186   1.511   4.479 -0.1991 -0.5124  0.5014
19961TIP3    H181374   1.276   1.519   4.511 -0.6627 -2.3049  2.4847
19961TIP3    H281375   1.195   1.500   4.384  1.4262  2.3741  0.2052
19962TIP3   OH281376   4.936   4.288   1.255  0.2093  0.3357  0.3495
19962TIP3    H181377   4.899   4.358   1.308 -1.1453 -0.0373 -0.0632
19962TIP3    H281378   5.027   4.314   1.241 -0.3032  2.1100  0.0313
19963TIP3   OH281379   3.494   1.882   2.451  0.0304 -0.2437  0.9700
19963TIP3    H181380   3.515   1.972   2.428 -1.1002 -0.3039 -0.4611
19963TIP3    H281381   3.570   1.831   2.424 -0.6768 -0.1222 -1.5063
19964TIP3   OH281382   4.952   6.389   3.591 -0.5937  0.6813 -0.1436
19964TIP3    H181383   5.036   6.413   3.631  0.2283  0.8975 -1.9100
19964TIP3    H281384   4.971   6.309   3.542 -1.2791  1.0455 -1.0208
19965TIP3   OH281385   5.170   0.985   1.642  0.3700 -0.4182  0.7751
19965TIP3    H181386   5.132   0.926   1.707  0.9544 -1.5894  0.0675
19965TIP3    H281387   5.240   1.031   1.689  1.2056 -1.7125  0.8342
19966TIP3   OH281388   5.137   5.644   4.124 -0.2122 -0.2259  0.3839
19966TIP3    H181389   5.194   5.611   4.054 -0.7809 -0.6546  0.1113
19966TIP3    H281390   5.141   5.576   4.191 -1.9838 -1.2839 -0.4981
19967TIP3   OH281391   4.503   2.491   5.005 -0.0217 -0.3528 -0.2012
19967TIP3    H181392   4.434   2.551   5.034  0.5558 -0.0531  0.6097
19967TIP3    H281393   4.463   2.440   4.935 -2.3135 -2.6913  2.5431
19968TIP3   OH281394   2.703   2.729  14.057 -0.4504 -0.3276  0.0426
19968TIP3    H181395   2.663   2.816  14.054 -1.7484 -0.8751  1.0766
19968TIP3    H281396   2.795   2.746  14.081 -0.6642  0.7576  0.1249
19969TIP3   OH281397   3.572   2.630  15.644  0.3239  0.0439 -0.1284
19969TIP3    H181398   3.655   2.666  15.677  0.3587 -0.5370  0.4262
19969TIP3    H281399   3.544   2.569  15.712  0.0009 -0.5944 -0.8293
19970TIP3   OH281400   3.437   0.574  11.247 -0.6142  0.1822 -0.0306
19970TIP3    H181401   3.470   0.565  11.336  0.5878 -0.7065 -0.5374
19970TIP3    H281402   3.347   0.606  11.258 -0.3695  0.4468  1.4728
19971TIP3   OH281403   6.061   1.269  15.804 -0.1616  0.3954  0.4149
19971TIP3    H181404   6.011   1.215  15.743  0.3576  0.7835 -0.3694
19971TIP3    H281405   6.135   1.301  15.753  0.8199 -0.0478  1.5140
19972TIP3   OH281406   4.581   1.132  15.823 -0.2621 -0.3716 -0.4006
19972TIP3    H181407   4.558   1.215  15.866 -2.0032  0.1350 -2.1517
19972TIP3    H281408   4.671   1.144  15.795  0.0017  0.3282  0.6669
19973TIP3   OH281409   4.243   6.580   3.503 -0.5662  0.0038 -0.3896
19973TIP3    H181410   4.158   6.603   3.464  0.2897 -0.3235 -2.5996
19973TIP3    H281411   4.273   6.506   3.450 -0.3818 -2.1372  2.5019
19974TIP3   OH281412   0.296   2.687  13.769 -0.3616 -0.5760  0.3534
19974TIP3    H181413   0.226   2.714  13.708  0.8403 -0.1402 -0.8938
19974TIP3    H281414   0.356   2.637  13.714  0.9721  0.1771  1.1016
19975TIP3   OH281415   2.319   5.739  14.145 -0.4359  0.3072  0.1553
19975TIP3    H181416   2.314   5.801  14.217  1.0017  0.9963 -0.2871
19975TIP3    H281417   2.311   5.794  14.066 -1.5735 -0.3776 -0.2152
19976TIP3   OH281418   2.373   1.612  13.503 -0.2471  0.0677 -0.2315
19976TIP3    H181419   2.395   1.539  13.445 -1.7411 -0.2093 -0.5068
19976TIP3    H281420   2.440   1.677  13.487  0.5226 -0.8351 -0.7562
19977TIP3   OH281421   5.755   2.894  12.634 -0.7956  0.0257 -0.0274
19977TIP3    H181422   5.724   2.899  12.725  1.8472  0.9606  0.8959
19977TIP3    H281423   5.791   2.806  12.626  0.1288  0.3655  0.2669
19978TIP3   OH281424   4.585   4.493  16.428  0.0993  0.1641  0.1483
19978TIP3    H181425   4.624   4.566  16.476 -1.3368  0.1364  1.4406
19978TIP3    H281426   4.624   4.497  16.341  1.2901  1.4453  0.7071
19979TIP3   OH281427   1.145   3.996   4.362 -0.2253 -0.1091  0.6385
19979TIP3    H181428   1.174   3.939   4.434  1.2922  0.6269  0.6667
19979TIP3    H281429   1.113   4.075   4.406 -2.2651 -0.8546  0.5966
19980TIP3   OH281430   4.519   1.623   0.128  0.4817  0.8090 -0.2494
19980TIP3    H181431   4.602   1.671   0.129  0.5493  0.6929  0.8207
19980TIP3    H281432   4.524   1.569   0.049  1.6178  0.4886  0.0164
19981TIP3   OH281433   0.648   2.438  12.864  0.1265 -0.1186 -0.0652
19981TIP3    H181434   0.563   2.468  12.834  0.2875 -0.8321 -1.3172
19981TIP3    H281435   0.705   2.514  12.857 -0.5133  0.5265  1.3494
19982TIP3   OH281436   2.759   4.532   3.925  0.2640 -0.0582 -0.0981
19982TIP3    H181437   2.778   4.444   3.892 -0.3344  0.2213 -1.2279
19982TIP3    H281438   2.805   4.536   4.009  0.9909 -1.1508 -0.4192
19983TIP3   OH281439   6.495   3.155   2.675  0.4032  0.2611 -0.7511
19983TIP3    H181440   6.493   3.146   2.770 -0.5383 -2.4638 -0.9443
19983TIP3    H281441   6.587   3.149   2.652  0.5817  0.1982 -0.0428
19984TIP3   OH281442   0.247   1.260   5.441  0.1125  0.1577 -0.3852
19984TIP3    H181443   0.325   1.206   5.448  0.5585  0.8105 -0.2222
19984TIP3    H281444   0.174   1.197   5.440  0.6759 -0.4999 -1.3728
19985TIP3   OH281445   1.333   0.376  12.900 -0.0712 -0.0468 -0.2051
19985TIP3    H181446   1.239   0.385  12.880 -0.0751 -0.6943 -0.5017
19985TIP3    H281447   1.377   0.414  12.824 -0.0931 -1.6098 -1.0454
19986TIP3   OH281448   1.496   4.167  12.733  0.0017 -0.2887 -0.7122
19986TIP3    H181449   1.458   4.133  12.814 -1.8291  1.3671 -0.7955
19986TIP3    H281450   1.486   4.262  12.740  0.3298 -0.0676 -2.6247
19987TIP3   OH281451   5.187   3.053   0.225  0.5557  0.1677  0.1555
19987TIP3    H181452   5.132   3.011   0.292 -1.1271 -0.8043 -1.7545
19987TIP3    H281453   5.180   3.147   0.244  0.4770 -0.0997  1.5814
19988TIP3   OH281454   2.391   3.580  15.965  0.3988  0.1294  0.1925
19988TIP3    H181455   2.408   3.665  15.925  1.4977  0.3588  1.0953
19988TIP3    H281456   2.459   3.522  15.932  0.2298 -0.1533  0.3250
19989TIP3   OH281457   4.669   3.601  16.916 -0.0570 -0.2898  0.1925
19989TIP3    H181458   4.666   3.578  17.008  1.4661 -0.5711  0.1956
19989TIP3    H281459   4.753   3.566  16.885 -0.5993 -0.3161 -1.3229
19990TIP3   OH281460   0.266   3.587  13.911  0.2402 -0.4359  0.0713
19990TIP3    H181461   0.259   3.675  13.947 -1.5386 -0.7541  0.6182
19990TIP3    H281462   0.357   3.579  13.881  0.0833  2.0851 -1.3145
19991TIP3   OH281463   5.219   2.055   1.468 -0.0048  0.1131 -0.6281
19991TIP3    H181464   5.284   2.125   1.471  0.1169 -0.0254  0.4754
19991TIP3    H281465   5.237   2.008   1.386  0.1678  1.1209 -1.1768
19992TIP3   OH281466   6.587   1.207  14.625  0.0140 -0.6337 -0.3549
19992TIP3    H181467   6.561   1.299  14.626  0.2228 -0.5361  2.5456
19992TIP3    H281468   6.682   1.209  14.615 -0.1209 -0.6683 -2.0233
19993TIP3   OH281469   0.380   3.095   0.858  0.2564  0.0307 -0.2159
19993TIP3    H181470   0.305   3.127   0.809  1.1516  1.6918 -0.5798
19993TIP3    H281471   0.378   3.000   0.846 -1.6137  0.0640 -0.4226
19994TIP3   OH281472   3.362   2.619  11.105 -0.2223 -0.1913 -0.2109
19994TIP3    H181473   3.356   2.599  11.199  0.6124 -0.0521 -0.1201
19994TIP3    H281474   3.388   2.535  11.066  3.1428  0.5350  0.1522
19995TIP3   OH281475   0.912   5.844   3.246  0.0753  0.3104  0.6410
19995TIP3    H181476   0.965   5.786   3.301 -1.1454  0.2795  1.8453
19995TIP3    H281477   0.957   5.844   3.161  1.5844 -0.2678  1.3886
19996TIP3   OH281478   6.301   3.857   4.619  0.2415 -0.2967  0.0846
19996TIP3    H181479   6.363   3.824   4.554  0.1540 -0.7550  0.2303
19996TIP3    H281480   6.292   3.951   4.598  1.1908 -0.1612  0.2339
19997TIP3   OH281481   1.302   5.694  14.559 -0.2404 -0.5037  0.0525
19997TIP3    H181482   1.226   5.641  14.532 -0.6550  0.3554 -0.5359
19997TIP3    H281483   1.273   5.784  14.547  0.3574 -0.1258  1.3000
19998TIP3   OH281484   5.540   0.039  15.504 -0.4507  0.2517  0.7375
19998TIP3    H181485   5.502  -0.037  15.459  1.5448 -0.8094  0.7013
19998TIP3    H281486   5.474   0.063  15.569 -2.1367 -0.0191 -0.7785
19999TIP3   OH281487   0.614   4.096   6.487 -0.0752 -0.1740 -0.4765
19999TIP3    H181488   0.632   4.190   6.491  1.5227 -0.4907  0.1851
19999TIP3    H281489   0.585   4.073   6.575 -1.4418 -0.1414 -0.8923
20000TIP3   OH281490   0.509   6.251   1.219  0.4322 -0.0194 -0.2111
20000TIP3    H181491   0.545   6.201   1.146  1.1556 -0.0170  0.1282
20000TIP3    H281492   0.562   6.224   1.294 -0.4063 -0.1499  0.3452
20001TIP3   OH281493   2.549   2.603  14.910  0.3962 -0.3361  0.5032
20001TIP3    H181494   2.503   2.569  14.833  0.5054 -0.8162  0.6480
20001TIP3    H281495   2.558   2.528  14.968  0.1215  0.0664  1.0822
20002TIP3   OH281496   3.330   4.386   0.753 -0.7701 -0.3600 -0.4819
20002TIP3    H181497   3.281   4.444   0.812 -2.7331 -2.2567 -0.1565
20002TIP3    H281498   3.415   4.430   0.742 -1.0071  0.9976  2.2744
20003TIP3   OH281499   5.131   6.352  10.438 -0.0649 -0.7150 -0.1083
20003TIP3    H181500   5.043   6.322  10.462 -0.2609 -1.3053 -1.4708
20003TIP3    H281501   5.123   6.381  10.347  0.3898  2.4669  0.7600
20004TIP3   OH281502   3.413   1.948  16.305 -0.3007 -0.8596 -0.1019
20004TIP3    H181503   3.441   1.983  16.390 -3.3134  0.2540  0.5366
20004TIP3    H281504   3.342   1.888  16.325 -2.1272  0.5716 -1.8261
20005TIP3   OH281505   6.328   0.692   5.518 -0.2520 -0.3261 -0.2120
20005TIP3    H181506   6.394   0.743   5.470 -1.0405 -0.9609 -2.0695
20005TIP3    H281507   6.247   0.742   5.507 -0.5693 -0.8076 -0.0799
20006TIP3   OH281508   0.449   1.248   4.382  0.0226 -0.4444  0.2992
20006TIP3    H181509   0.385   1.206   4.325  0.2601 -0.6906  0.2079
20006TIP3    H281510   0.397   1.284   4.454 -0.3447  0.3897 -0.3655
20007TIP3   OH281511   3.619   4.091  13.582  0.2830 -0.1411 -0.3311
20007TIP3    H181512   3.549   4.130  13.529  1.1309 -0.7801 -2.0031
20007TIP3    H281513   3.699   4.131  13.549  0.8302 -0.3939  0.6536
20008TIP3   OH281514   4.065   0.926  15.346  0.7482 -0.3572  0.0196
20008TIP3    H181515   4.088   0.989  15.277  0.1534  0.0749  0.2119
20008TIP3    H281516   4.078   0.974  15.428  1.0326 -0.7334  0.1981
20009TIP3   OH281517   5.049   1.639  16.521 -0.0318 -0.7658 -0.3604
20009TIP3    H181518   5.139   1.607  16.533  0.5787  0.6561 -0.9434
20009TIP3    H281519   5.030   1.623  16.429  0.8571  1.8366 -1.0627
20010TIP3   OH281520   0.981   5.152  14.999 -0.4509 -0.3675  0.4986
20010TIP3    H181521   1.006   5.070  14.958 -0.6180 -0.7799  1.1974
20010TIP3    H281522   0.970   5.213  14.927 -0.0305 -0.8774 -0.0086
20011TIP3   OH281523   6.125   2.999   1.974  0.5149  0.3306 -0.2429
20011TIP3    H181524   6.036   3.032   1.958  0.5770  0.6007 -0.0568
20011TIP3    H281525   6.165   2.996   1.888  0.6164  1.0812 -0.2320
20012TIP3   OH281526   5.807   0.515  14.092 -0.1878  0.8188 -0.1498
20012TIP3    H181527   5.792   0.508  14.186 -0.1447  0.6723 -0.1537
20012TIP3    H281528   5.720   0.525  14.054 -0.4900 -1.9581 -0.3444
20013TIP3   OH281529   3.335   0.840  16.097  0.3733  0.0905  0.0240
20013TIP3    H181530   3.334   0.745  16.083  1.9650  0.3092 -1.9146
20013TIP3    H281531   3.245   0.867  16.083  0.1603 -0.9718 -0.7595
20014TIP3   OH281532   3.337   4.319   4.726  0.2746  0.3843  0.0148
20014TIP3    H181533   3.357   4.244   4.670  1.8173  0.6994  0.1009
20014TIP3    H281534   3.323   4.391   4.665 -1.1749  0.0679 -0.0664
20015TIP3   OH281535   3.400   5.916  17.075  0.1023  0.1919  0.0518
20015TIP3    H181536   3.474   5.859  17.054 -0.2125 -0.1668 -0.0881
20015TIP3    H281537   3.327   5.880  17.025 -0.6612 -0.6714  1.7164
20016TIP3   OH281538   1.346   0.641   4.780 -0.0944 -0.0177 -0.6229
20016TIP3    H181539   1.371   0.579   4.849 -2.0857 -0.7248 -0.4573
20016TIP3    H281540   1.377   0.602   4.699  0.9070  0.0520 -0.2805
20017TIP3   OH281541   6.063   1.353  14.338  0.2599 -0.0423  0.0326
20017TIP3    H181542   6.029   1.265  14.323  1.4192 -0.1966 -1.9611
20017TIP3    H281543   6.134   1.340  14.401  1.3842 -0.7979 -1.3284
20018TIP3   OH281544   5.507   2.849  15.908 -0.0183  0.4511 -0.3699
20018TIP3    H181545   5.594   2.889  15.916  0.7892 -1.0008 -1.3954
20018TIP3    H281546   5.501   2.790  15.983  0.2571 -0.0902 -0.7659
20019TIP3   OH281547   5.429   2.068  10.507 -0.2707 -0.1533  0.0415
20019TIP3    H181548   5.356   2.096  10.452  1.2362  0.8298 -1.5655
20019TIP3    H281549   5.434   1.973  10.495 -3.4972 -0.9032  3.0960
20020TIP3   OH281550   1.404   5.080   4.319 -0.5888  0.0237 -0.0461
20020TIP3    H181551   1.473   5.112   4.262 -0.3283 -1.3654 -0.5571
20020TIP3    H281552   1.448   5.019   4.378 -1.1736  0.0774  0.4547
20021TIP3   OH281553   3.258   4.702   1.201  0.1485 -0.6436  0.3326
20021TIP3    H181554   3.271   4.792   1.169 -0.9319 -0.8828 -0.8459
20021TIP3    H281555   3.202   4.712   1.278 -1.5179 -0.4054 -0.8562
20022TIP3   OH281556   4.793   1.740  16.575  0.1814 -0.1564  0.1892
20022TIP3    H181557   4.882   1.707  16.576  0.0609 -0.5720 -1.0874
20022TIP3    H281558   4.786   1.788  16.493  0.1816  2.6679  1.7236
20023TIP3   OH281559   2.568   4.045  13.684 -0.3736  0.4761 -0.3214
20023TIP3    H181560   2.492   3.987  13.679  0.6120 -0.7915 -1.5668
20023TIP3    H281561   2.573   4.085  13.597  1.3778 -0.8619 -0.9014
20024TIP3   OH281562   6.471   2.162  10.890  0.3212  0.1642  0.1541
20024TIP3    H181563   6.563   2.179  10.910  0.6499  2.0131 -2.4426
20024TIP3    H281564   6.471   2.073  10.855  1.1896  0.2632 -0.1259
20025TIP3   OH281565   0.496   1.231   5.039  0.2417  0.0809 -0.6615
20025TIP3    H181566   0.459   1.204   4.955 -0.1962  0.3262 -0.5522
20025TIP3    H281567   0.420   1.256   5.092  0.6268  1.8139 -0.8645
20026TIP3   OH281568   5.871   3.376  11.631  0.1507  0.4375 -0.3682
20026TIP3    H181569   5.905   3.331  11.709 -0.6144 -1.9438 -1.3257
20026TIP3    H281570   5.895   3.468  11.645  1.4867 -0.1547  1.8822
20027TIP3   OH281571   1.055   3.775   2.089  0.1520  0.0290  0.0016
20027TIP3    H181572   1.140   3.731   2.102 -0.0235 -0.5423 -0.7302
20027TIP3    H281573   0.991   3.705   2.100 -0.2766  0.5968  1.2437
20028TIP3   OH281574   2.095   3.491   4.543  0.3831  0.2035 -0.0233
20028TIP3    H181575   2.097   3.395   4.543 -1.3895  0.1185  0.5188
20028TIP3    H281576   2.004   3.513   4.523  1.0996  1.8287 -1.8132
20029TIP3   OH281577   1.143   1.440  16.363 -0.5854 -0.4545 -0.2189
20029TIP3    H181578   1.070   1.382  16.384 -0.3296 -0.4292  0.8253
20029TIP3    H281579   1.202   1.432  16.438 -1.7723  3.1652  1.3528
20030TIP3   OH281580   0.878   3.339  16.770 -0.4002  0.0648  0.2170
20030TIP3    H181581   0.912   3.419  16.811  0.4938  0.7446 -1.7238
20030TIP3    H281582   0.829   3.370  16.695  0.5273 -1.2233 -0.9742
20031TIP3   OH281583   4.812   1.234   3.548  0.1311  0.0435 -0.4427
20031TIP3    H181584   4.784   1.146   3.572  0.4266 -0.5818 -2.1966
20031TIP3    H281585   4.887   1.252   3.605 -0.8375 -0.2001  0.9646
20032TIP3   OH281586   2.756   2.651   6.156 -0.2526 -0.3471 -0.1716
20032TIP3    H181587   2.751   2.568   6.108 -0.0576  0.1058 -0.9881
20032TIP3    H281588   2.842   2.649   6.198  0.0912 -0.2004 -0.8618
20033TIP3   OH281589   2.163   5.237   1.932 -0.3372 -0.1491  0.0949
20033TIP3    H181590   2.227   5.302   1.907 -0.1562 -0.3046  0.1497
20033TIP3    H281591   2.118   5.275   2.008 -0.0615 -0.1928  0.2828
20034TIP3   OH281592   2.765   4.360  15.693 -0.4989 -0.3842  0.2644
20034TIP3    H181593   2.849   4.318  15.708  0.2876  1.1133  0.2128
20034TIP3    H281594   2.769   4.440  15.745 -0.5700  1.3498 -2.2540
20035TIP3   OH281595   2.372   2.847   0.418 -0.1102  0.3062  0.1501
20035TIP3    H181596   2.350   2.802   0.337 -0.5853  0.3244  0.2618
20035TIP3    H281597   2.350   2.784   0.487  0.7309  0.1127  0.2542
20036TIP3   OH281598   5.358   4.526   3.995  0.1801  0.7582 -0.1043
20036TIP3    H181599   5.392   4.503   4.081  1.0821  0.8195 -0.4370
20036TIP3    H281600   5.299   4.600   4.010  0.7703  1.1306  0.3856
20037TIP3   OH281601   4.822   0.009  15.408  0.2820  0.3028  0.1667
20037TIP3    H181602   4.910   0.010  15.446 -0.2097  0.9279  1.3413
20037TIP3    H281603   4.796   0.101  15.405  0.1154  0.2314 -1.2868
20038TIP3   OH281604   3.577   3.764  14.826 -0.1817  0.3846  0.2158
20038TIP3    H181605   3.588   3.770  14.921  0.3609  0.8083  0.1343
20038TIP3    H281606   3.666   3.755  14.792 -0.3090  1.0385 -0.3069
20039TIP3   OH281607   1.265   1.411  11.548 -0.5597 -0.3984 -0.1110
20039TIP3    H181608   1.245   1.374  11.462 -1.7597 -1.7581  0.7094
20039TIP3    H281609   1.269   1.335  11.606  0.6903  0.4583  0.9777
20040TIP3   OH281610   6.014   1.859  12.233 -0.6024  0.2002  0.3606
20040TIP3    H181611   6.002   1.766  12.254 -1.5807 -0.0969 -1.2780
20040TIP3    H281612   5.934   1.882  12.185  0.8806  1.1040 -1.7995
20041TIP3   OH281613   1.825   0.577   5.910  0.5847  0.6369  0.4306
20041TIP3    H181614   1.732   0.592   5.896  0.0602  0.3503  3.1211
20041TIP3    H281615   1.832   0.553   6.002  2.9586 -2.3704 -0.3584
20042TIP3   OH281616   5.508   5.485   2.671  0.3787 -0.2095  0.1333
20042TIP3    H181617   5.561   5.437   2.607 -0.0627 -0.7266  0.1468
20042TIP3    H281618   5.544   5.460   2.756 -0.6507 -1.5285  0.2069
20043TIP3   OH281619   3.801   2.869   3.112 -0.2162  0.1975  0.5029
20043TIP3    H181620   3.735   2.901   3.175  0.4565  2.1063  0.3056
20043TIP3    H281621   3.809   2.940   3.048 -0.9558 -1.7388 -1.8578
20044TIP3   OH281622   0.292   6.398  13.531  0.0057 -0.3098 -0.3304
20044TIP3    H181623   0.346   6.384  13.453 -0.0320  1.6963 -0.7660
20044TIP3    H281624   0.202   6.391  13.499 -0.0105 -0.8994 -0.1655
20045TIP3   OH281625   4.659   2.040  12.414  0.2418 -0.2043  0.1997
20045TIP3    H181626   4.721   2.037  12.341 -0.4856 -2.1023 -0.4129
20045TIP3    H281627   4.631   1.949  12.425 -1.3061  0.3731  1.4372
20046TIP3   OH281628   3.640   5.472  10.644 -0.0373 -0.6190  0.4521
20046TIP3    H181629   3.734   5.465  10.628 -0.1050 -1.8390  0.4774
20046TIP3    H281630   3.604   5.507  10.563  0.4463 -0.0282  0.4873
20047TIP3   OH281631   1.331   2.741   3.766 -0.4831  0.0909  0.8825
20047TIP3    H181632   1.289   2.774   3.845 -2.0433  5.3399 -1.6993
20047TIP3    H281633   1.260   2.729   3.704  0.9903  0.2075 -0.9206
20048TIP3   OH281634   5.653   5.059   1.883 -0.3686  0.2501  0.1440
20048TIP3    H181635   5.745   5.076   1.864 -0.7819 -0.0031 -2.5257
20048TIP3    H281636   5.628   5.128   1.945  1.9402 -0.6454  2.2683
20049TIP3   OH281637   3.816   6.652   2.840  0.2679 -0.4592  0.4199
20049TIP3    H181638   3.767   6.628   2.762  0.2482 -0.1072  0.3204
20049TIP3    H281639   3.752   6.652   2.911 -0.2743  1.6452  0.0073
20050TIP3   OH281640   2.262   6.095   0.426  0.2984  0.7649  0.2669
20050TIP3    H181641   2.348   6.128   0.400  0.8055 -0.2682  0.5863
20050TIP3    H281642   2.219   6.170   0.467  0.6352  1.5792 -0.8091
20051TIP3   OH281643   4.270   6.305  14.967 -0.0829 -0.2358  0.2050
20051TIP3    H181644   4.298   6.310  15.058 -3.4759  0.2212  1.3776
20051TIP3    H281645   4.222   6.223  14.961  0.9083 -0.7437 -1.4916
20052TIP3   OH281646   3.196   0.539  11.458 -0.1143  0.2346 -0.1209
20052TIP3    H181647   3.124   0.586  11.499  1.3138  2.1274  0.3547
20052TIP3    H281648   3.159   0.505  11.376 -2.0535 -0.6253  1.0414
20053TIP3   OH281649   2.424   6.343  17.146 -0.2298  0.4136  0.1215
20053TIP3    H181650   2.435   6.418  17.087  1.4610  2.0144  2.2900
20053TIP3    H281651   2.484   6.277  17.113 -0.7916  0.4670 -1.0755
20054TIP3   OH281652   6.563   2.680  14.587  0.9714  0.2437 -1.5227
20054TIP3    H181653   6.488   2.688  14.529  0.5536  1.4497 -0.8602
20054TIP3    H281654   6.593   2.770  14.600 -1.2349  0.6460  2.9743
20055TIP3   OH281655   6.485   2.919   3.669 -0.2543  0.0391  0.3393
20055TIP3    H181656   6.546   2.991   3.682  4.6446 -3.1905 -1.5829
20055TIP3    H281657   6.480   2.909   3.574  0.7020 -2.9632  0.4763
20056TIP3   OH281658   0.653   3.131  12.083  0.3176  0.3015 -0.0969
20056TIP3    H181659   0.696   3.088  12.157 -0.8063 -1.1853 -0.2433
20056TIP3    H281660   0.667   3.071  12.009 -1.0688  0.2838 -0.3764
20057TIP3   OH281661   2.203   2.831   4.032 -0.0081 -0.3163  0.6178
20057TIP3    H181662   2.230   2.876   3.952 -1.0770 -1.5591 -0.5002
20057TIP3    H281663   2.173   2.901   4.090 -0.4431  0.5216 -0.5778
20058TIP3   OH281664   6.496   2.719  14.894 -0.1093 -0.2927  0.1810
20058TIP3    H181665   6.504   2.795  14.952  1.0877 -0.8858  0.8154
20058TIP3    H281666   6.556   2.738  14.822  2.7857 -2.0254  1.9438
20059TIP3   OH281667   4.044   5.829   1.975  0.3914  0.3785 -0.2162
20059TIP3    H181668   3.999   5.769   2.035  1.5189 -0.8577 -0.5625
20059TIP3    H281669   4.029   5.792   1.888 -0.7712  1.8578 -0.6892
20060TIP3   OH281670   6.788   2.347  10.797 -0.2485  0.4792 -0.1449
20060TIP3    H181671   6.804   2.280  10.731 -2.4198 -1.2007  0.8982
20060TIP3    H281672   6.869   2.350  10.849  0.2488 -0.5849 -0.8332
20061TIP3   OH281673   5.948   3.285   1.741  0.0117 -0.1780  0.2631
20061TIP3    H181674   5.942   3.259   1.833 -1.4948 -0.3826  0.1311
20061TIP3    H281675   6.034   3.327   1.733  0.5775 -1.0494  1.5198
20062TIP3   OH281676   3.054   0.928  11.773  0.1161  0.5006  0.1861
20062TIP3    H181677   3.005   1.010  11.760  2.6651  2.0885 -0.0275
20062TIP3    H281678   3.104   0.942  11.853  0.0762 -1.1525  0.5261
20063TIP3   OH281679   5.999   4.567   3.348 -0.5300  0.0701 -0.0637
20063TIP3    H181680   5.967   4.578   3.438 -1.3117 -0.0458 -0.3229
20063TIP3    H281681   5.997   4.473   3.333  0.0720  0.0512 -0.0373
20064TIP3   OH281682   6.034   6.213   4.380  0.1539 -0.2150  0.5087
20064TIP3    H181683   6.035   6.184   4.289  1.3773 -0.6946  0.6631
20064TIP3    H281684   5.943   6.199   4.408 -0.3255  0.2454 -0.7110
20065TIP3   OH281685   0.006   1.026  16.340 -0.0012  0.0952 -0.2413
20065TIP3    H181686  -0.064   0.964  16.356 -0.2020  0.7148  1.4794
20065TIP3    H281687  -0.036   1.099  16.294 -0.2237 -0.0706 -0.2986
20066TIP3   OH281688   6.105   6.589   5.086 -0.3317  0.2578  0.5118
20066TIP3    H181689   6.077   6.638   5.008 -1.8214 -0.2975  0.6854
20066TIP3    H281690   6.175   6.532   5.054 -0.1099  0.8844 -0.1618
20067TIP3   OH281691   6.571   2.821   5.604  0.8928  0.0998 -0.0231
20067TIP3    H181692   6.624   2.821   5.683  2.4230 -0.4915 -1.0008
20067TIP3    H281693   6.507   2.890   5.618  0.0607 -1.0548  2.3895
20068TIP3   OH281694   4.999   0.205   0.035 -0.2590  0.0231 -0.6220
20068TIP3    H181695   5.093   0.187   0.043 -0.0498  1.1877 -0.1511
20068TIP3    H281696   4.956   0.124   0.063  0.6075 -0.1951  0.1083
20069TIP3   OH281697   6.507   1.551  13.454 -0.6533 -0.2010  0.4091
20069TIP3    H181698   6.537   1.465  13.422 -0.3951 -0.0024  0.1174
20069TIP3    H281699   6.575   1.577  13.517 -1.0033 -0.4502  0.8976
20070TIP3   OH281700   6.457   6.456   3.656  0.4674 -0.0072  0.3135
20070TIP3    H181701   6.472   6.528   3.716  0.3177  0.1972  0.1083
20070TIP3    H281702   6.362   6.453   3.645  0.5417  0.4916 -0.5561
20071TIP3   OH281703   6.669   6.713   4.243  0.3822 -0.2141 -0.4984
20071TIP3    H181704   6.743   6.738   4.187  0.5869  2.4063  0.7826
20071TIP3    H281705   6.591   6.733   4.191  0.5845  1.3691 -0.2513
20072TIP3   OH281706   2.125   6.542   2.391  0.1982 -0.0368  0.2281
20072TIP3    H181707   2.105   6.457   2.353 -1.6801  0.2253  0.5686
20072TIP3    H281708   2.057   6.601   2.358 -0.4940  0.5798  2.5804
20073TIP3   OH281709   5.450   2.054   1.286  0.7124 -0.1051 -0.1588
20073TIP3    H181710   5.509   2.089   1.353  0.4197  0.0279  0.0303
20073TIP3    H281711   5.448   2.121   1.218  1.4243 -0.4692 -0.5533
20074TIP3   OH281712   5.049   4.400   2.587 -0.1378  0.5859  0.4847
20074TIP3    H181713   4.963   4.362   2.571  0.2050  0.2445 -0.7086
20074TIP3    H281714   5.049   4.482   2.537  1.2662 -0.9139 -2.2625
20075TIP3   OH281715   2.358   5.351   3.254 -0.2754  0.0188  0.0843
20075TIP3    H181716   2.334   5.324   3.343  1.3341  0.3929  0.6772
20075TIP3    H281717   2.452   5.334   3.249 -0.2193  0.6236 -1.3273
20076TIP3   OH281718   6.406   0.892   3.681 -0.6409  0.1206  0.1869
20076TIP3    H181719   6.371   0.807   3.658 -0.0016 -0.6077  1.7507
20076TIP3    H281720   6.339   0.955   3.655 -0.9331 -0.8008 -1.3807
20077TIP3   OH281721   6.056   6.111  11.362 -0.4162 -0.0392  0.0684
20077TIP3    H181722   6.053   6.016  11.347 -2.4286  0.2256 -1.5739
20077TIP3    H281723   5.980   6.145  11.315  1.0911  2.5821 -0.6535
20078TIP3   OH281724   5.774   5.157  14.923 -0.0924 -0.0640  0.5212
20078TIP3    H181725   5.733   5.234  14.963 -1.1534 -0.2244 -0.2273
20078TIP3    H281726   5.784   5.095  14.995  0.2444  0.5482  1.0134
20079TIP3   OH281727   1.555   3.750   2.271 -0.4050  0.3279 -0.0831
20079TIP3    H181728   1.596   3.836   2.254 -1.3815  0.9628  0.6681
20079TIP3    H281729   1.629   3.690   2.281  0.2957  1.0784 -0.6355
20080TIP3   OH281730   6.375   3.018   5.657 -0.4328 -0.0332 -0.6010
20080TIP3    H181731   6.299   3.034   5.601 -1.0472 -0.4142  0.0963
20080TIP3    H281732   6.412   3.105   5.672 -1.9977  0.4653  0.7523
20081TIP3   OH281733   5.201   0.052  13.063 -0.6863  0.3931  0.3637
20081TIP3    H181734   5.167   0.134  13.099  1.0508  1.7317 -0.9052
20081TIP3    H281735   5.125   0.010  13.024 -1.2500  2.4885 -0.9278
20082TIP3   OH281736   4.851   5.205   1.740 -0.0042  0.2178 -0.6760
20082TIP3    H181737   4.860   5.175   1.830 -0.5038  2.2583  0.1039
20082TIP3    H281738   4.758   5.197   1.720  0.0393  0.1537 -0.8534
20083TIP3   OH281739   4.202   1.770   1.778 -0.6173  0.0273 -0.3239
20083TIP3    H181740   4.191   1.681   1.811 -1.5667  0.3404  0.2398
20083TIP3    H281741   4.181   1.826   1.852 -2.5598  0.7491 -1.3589
20084TIP3   OH281742   3.265   1.579   3.070 -0.1870 -0.0331 -0.0767
20084TIP3    H181743   3.311   1.530   3.139  2.5817 -0.2031 -1.8845
20084TIP3    H281744   3.242   1.512   3.005 -0.8176  0.4313 -0.3449
20085TIP3   OH281745   5.868   5.469   4.534 -0.9103  0.2478 -0.2375
20085TIP3    H181746   5.891   5.476   4.626 -1.1767  0.0818 -0.1548
20085TIP3    H281747   5.825   5.384   4.526  1.4009 -0.9299 -1.0261
20086TIP3   OH281748   0.922   3.137  11.125  0.2221  0.2304  1.1199
20086TIP3    H181749   0.839   3.139  11.174 -0.0594 -0.1311  0.6617
20086TIP3    H281750   0.939   3.044  11.109 -1.8618  0.3419 -3.0493
20087TIP3   OH281751   0.296   0.742   6.521 -0.3599 -0.3736  0.1847
20087TIP3    H181752   0.285   0.678   6.450  0.7979  0.8026 -1.1169
20087TIP3    H281753   0.390   0.749   6.532 -0.3304  2.5638 -1.1391
20088TIP3   OH281754   4.691   5.971   1.998 -0.3458  0.6250  0.9829
20088TIP3    H181755   4.726   6.047   1.953  2.3074 -0.1279  1.5937
20088TIP3    H281756   4.640   5.925   1.932  0.3245  1.4935 -0.1724
20089TIP3   OH281757   2.650   3.915  15.832  0.1080 -0.1157 -0.2604
20089TIP3    H181758   2.678   4.001  15.862 -0.0139  0.5449 -1.9348
20089TIP3    H281759   2.555   3.920  15.829  0.0881 -0.3949 -0.1365
20090TIP3   OH281760   4.850   1.705   4.045 -0.1859 -0.0205 -0.1620
20090TIP3    H181761   4.876   1.780   3.991  1.7034 -2.2687 -2.6392
20090TIP3    H281762   4.930   1.680   4.091 -0.0750 -1.9505 -1.3000
20091TIP3   OH281763   4.995   3.007   0.664  0.5129 -0.0431  0.3346
20091TIP3    H181764   5.066   2.943   0.667  0.4815 -0.1299 -0.5164
20091TIP3    H281765   5.000   3.052   0.748  1.8062  0.2079  0.1429
20092TIP3   OH281766   0.859   5.949   5.117 -0.1711 -0.1350 -0.7992
20092TIP3    H181767   0.815   6.007   5.055 -2.0944  1.0786  1.4925
20092TIP3    H281768   0.794   5.881   5.137  0.2211 -0.2546  0.1410
20093TIP3   OH281769   5.129   5.634   4.922  0.1651  0.5173  0.2247
20093TIP3    H181770   5.088   5.608   5.005  1.4428  0.4359  0.8717
20093TIP3    H281771   5.057   5.639   4.860 -0.8129  0.4150  1.3047
20094TIP3   OH281772   2.546   0.960  13.778 -0.2539  0.3217  0.5479
20094TIP3    H181773   2.603   0.926  13.847  0.0496 -0.2865  0.0104
20094TIP3    H281774   2.478   1.009  13.824 -1.4861 -2.0916  1.4535
20095TIP3   OH281775   2.914   0.656  15.666 -0.0956 -0.1846  0.2378
20095TIP3    H181776   3.001   0.631  15.697 -0.7412 -1.6875  0.9677
20095TIP3    H281777   2.878   0.710  15.736 -0.3018 -0.8337  0.6477
20096TIP3   OH281778   2.507   2.948  10.572 -0.5629 -0.0235 -0.2785
20096TIP3    H181779   2.599   2.937  10.549 -0.1867  1.5616  0.3403
20096TIP3    H281780   2.462   2.878  10.525  1.0302 -1.3219  0.0393
20097TIP3   OH281781   0.758   6.079   1.769 -0.1795 -0.0062  0.3087
20097TIP3    H181782   0.666   6.058   1.782 -0.0750  0.1656  1.4267
20097TIP3    H281783   0.789   6.014   1.706  0.0761 -3.1979  3.4141
20098TIP3   OH281784   4.347   5.463  13.070 -0.0847  0.8061 -0.4028
20098TIP3    H181785   4.399   5.399  13.021 -0.1603  0.0292  0.4946
20098TIP3    H281786   4.391   5.470  13.154 -1.9632 -0.6904  0.8024
20099TIP3   OH281787   2.022   0.456   6.611  0.4562 -0.2764 -0.5843
20099TIP3    H181788   1.937   0.488   6.584  0.4535  0.3480  0.1486
20099TIP3    H281789   2.037   0.379   6.556 -1.0036 -0.9769 -0.0512
20100TIP3   OH281790   3.853   6.166  13.860 -0.1868  0.2874 -0.1764
20100TIP3    H181791   3.910   6.102  13.817 -0.2765 -0.6910  1.1174
20100TIP3    H281792   3.895   6.251  13.843  0.0131 -0.1095 -1.7849
20101TIP3   OH281793   1.336   0.427  16.759 -0.2640  0.1237  0.7907
20101TIP3    H181794   1.370   0.414  16.848  0.2224 -1.0534  0.4440
20101TIP3    H281795   1.414   0.435  16.704 -0.5620  0.1941  0.3731
20102TIP3   OH281796   0.154   4.531   3.859 -0.3953  0.5260  0.3276
20102TIP3    H181797   0.149   4.564   3.949 -0.1753  0.2095  0.4560
20102TIP3    H281798   0.063   4.520   3.833 -0.4645 -1.2432  1.1982
20103TIP3   OH281799   3.290   0.116  15.847  0.0903  0.1860  0.2167
20103TIP3    H181800   3.348   0.092  15.775  0.6072  0.3375  0.5788
20103TIP3    H281801   3.283   0.211  15.842 -0.2463  0.1593  0.0933
20104TIP3   OH281802   3.474   5.911   2.287 -0.0561 -0.7715  0.3919
20104TIP3    H181803   3.527   5.843   2.328 -0.8086 -1.3642  0.3911
20104TIP3    H281804   3.504   5.993   2.328 -0.3203 -1.2778  1.6101
20105TIP3   OH281805   4.003   3.366   3.454  0.3947  0.1030 -0.3116
20105TIP3    H181806   3.949   3.298   3.495 -1.9112 -0.2236 -3.4710
20105TIP3    H281807   4.062   3.317   3.396  0.4907  0.6580 -0.6899
20106TIP3   OH281808   1.660   0.937  13.169 -0.1171 -0.0073 -0.3244
20106TIP3    H181809   1.723   1.005  13.195 -1.8891  2.0512 -1.0908
20106TIP3    H281810   1.677   0.924  13.075 -0.2652 -0.0753 -0.3411
20107TIP3   OH281811   6.020   5.633  16.410  0.4731  0.6463  0.3016
20107TIP3    H181812   6.095   5.690  16.391  0.0088  1.1089 -0.1588
20107TIP3    H281813   5.956   5.652  16.341 -0.2479  0.5669  0.9345
20108TIP3   OH281814   3.521   2.273   5.980 -0.2185 -0.0706 -0.7277
20108TIP3    H181815   3.498   2.205   6.044  1.7684 -0.4560 -0.3512
20108TIP3    H281816   3.529   2.226   5.897  1.0340 -0.2878 -0.4911
20109TIP3   OH281817   2.465   0.469   0.071  0.2841  0.4232 -0.2393
20109TIP3    H181818   2.411   0.483   0.149 -0.1282  0.9351 -0.6023
20109TIP3    H281819   2.404   0.476  -0.002  0.4189 -1.4428 -0.5614
20110TIP3   OH281820   2.781   1.419   3.057  0.2708 -0.5455 -0.4088
20110TIP3    H181821   2.714   1.391   3.119  0.1114  0.1862 -0.2407
20110TIP3    H281822   2.802   1.508   3.084 -0.3975  0.0955 -1.9233
20111TIP3   OH281823   5.311   2.396  12.320  0.0649 -0.2615  0.1005
20111TIP3    H181824   5.244   2.356  12.376 -0.2463  0.9120  0.5968
20111TIP3    H281825   5.333   2.327  12.257 -2.1185 -0.4975 -0.5191
20112TIP3   OH281826   3.853   5.063  16.196 -0.0328 -0.1440 -0.2714
20112TIP3    H181827   3.870   5.156  16.181 -2.0519 -0.0461 -2.6635
20112TIP3    H281828   3.939   5.021  16.192  0.7187  1.3966 -0.9942
20113TIP3   OH281829   1.825   0.014   2.683  0.1129  0.1810 -0.1376
20113TIP3    H181830   1.769   0.086   2.712 -0.0886 -0.4581  1.1438
20113TIP3    H281831   1.891   0.006   2.751  0.9094 -0.0159 -0.9183
20114TIP3   OH281832   3.412   2.174  15.396 -0.2930  0.0088  0.0694
20114TIP3    H181833   3.477   2.106  15.417  1.7485  0.7041 -3.1774
20114TIP3    H281834   3.462   2.255  15.397 -1.5497  0.8276 -0.7163
20115TIP3   OH281835   4.041   2.727  16.544  0.2691  0.4550  0.1429
20115TIP3    H181836   4.113   2.664  16.549  1.3123  1.4823 -1.2132
20115TIP3    H281837   3.976   2.683  16.489  0.6241  0.2169 -0.0938
20116TIP3   OH281838   6.019   2.147   3.671 -0.1723  0.8760  0.2489
20116TIP3    H181839   6.029   2.070   3.728 -0.2163  1.5616  1.2134
20116TIP3    H281840   6.070   2.215   3.714  0.9199  1.0638 -1.2698
20117TIP3   OH281841   5.646   5.439  14.618  0.5575  0.3650  0.6920
20117TIP3    H181842   5.605   5.434  14.532  0.4564  0.6871  0.7212
20117TIP3    H281843   5.654   5.532  14.636 -0.1155  0.2968  1.3614
20118TIP3   OH281844   4.097   0.528   0.992 -0.3386  0.3527  0.1073
20118TIP3    H181845   4.025   0.476   1.029 -0.3170  0.6290  0.5275
20118TIP3    H281846   4.088   0.515   0.897 -1.8957  1.6177  0.0320
20119TIP3   OH281847   1.988   4.716   6.705  0.4323 -0.0565  0.0398
20119TIP3    H181848   2.056   4.670   6.655  0.7979 -0.9045  1.2578
20119TIP3    H281849   1.909   4.663   6.692  0.1175  0.6431 -0.9595
20120TIP3   OH281850   4.856   2.047   0.753 -0.1681  0.4008  0.5554
20120TIP3    H181851   4.897   2.065   0.669  0.3286 -0.2990  0.6434
20120TIP3    H281852   4.850   1.952   0.758  0.2378  0.4116  1.5124
20121TIP3   OH281853   1.517   3.933  11.687  0.2985  0.1379 -0.2945
20121TIP3    H181854   1.431   3.893  11.687  0.7714 -0.9259  0.6249
20121TIP3    H281855   1.550   3.920  11.598 -0.7005  1.0615 -0.8143
20122TIP3   OH281856   4.376   1.827   3.323  0.6668  0.0032 -0.1796
20122TIP3    H181857   4.314   1.863   3.387  0.4631 -0.9977  0.1981
20122TIP3    H281858   4.443   1.783   3.376 -0.1880 -1.9581 -0.6415
20123TIP3   OH281859   0.052   5.272   1.021  0.0387  0.2114 -0.4028
20123TIP3    H181860  -0.040   5.299   1.013  0.2564  0.9363 -0.5310
20123TIP3    H281861   0.083   5.315   1.101  0.7042  1.2762 -1.2102
20124TIP3   OH281862   5.977   2.198  15.757 -0.5281  0.0842  0.5568
20124TIP3    H181863   6.069   2.223  15.750 -0.7488  0.9365  0.6005
20124TIP3    H281864   5.929   2.272  15.719 -1.1584 -0.7421 -0.2775
20125TIP3   OH281865   1.275   0.398  15.128 -0.2005  0.2161 -0.4011
20125TIP3    H181866   1.236   0.321  15.088 -0.6231 -0.5140  1.3543
20125TIP3    H281867   1.286   0.460  15.055 -1.9355 -0.6402 -1.4481
20126TIP3   OH281868   5.351   2.272   2.483 -0.3792 -0.2874  0.0884
20126TIP3    H181869   5.411   2.275   2.408 -0.0414  1.7855  0.3913
20126TIP3    H281870   5.403   2.303   2.557 -1.3908  0.0337  0.6873
20127TIP3   OH281871   2.233   6.749  13.980 -0.2918  0.3643 -0.0611
20127TIP3    H181872   2.138   6.751  13.977 -0.3052  1.0473  0.4888
20127TIP3    H281873   2.261   6.782  13.894 -0.5411 -0.1468 -0.3433
20128TIP3   OH281874   2.692   1.921  13.190 -0.0655 -0.1184  0.1840
20128TIP3    H181875   2.630   1.991  13.207 -2.6428 -2.0606 -0.5331
20128TIP3    H281876   2.725   1.938  13.102 -1.6065 -0.3662 -0.4796
20129TIP3   OH281877   0.096   1.751   5.471  0.0336 -0.1569  0.2101
20129TIP3    H181878   0.023   1.696   5.499  1.2123 -1.4581  0.8909
20129TIP3    H281879   0.169   1.690   5.460  1.0777  1.1222 -0.2507
20130TIP3   OH281880   1.060   5.617   1.210 -0.2816 -0.3599 -0.2741
20130TIP3    H181881   1.133   5.679   1.216 -0.1403 -0.5153 -0.3832
20130TIP3    H281882   1.027   5.627   1.121 -2.6775  2.2745  0.7424
20131TIP3   OH281883   3.543   1.219   0.342 -0.0536  0.1055 -1.0402
20131TIP3    H181884   3.604   1.283   0.307  0.4217  0.1426 -0.1789
20131TIP3    H281885   3.491   1.268   0.406 -1.3676  0.2054 -2.1288
20132TIP3   OH281886   0.767   2.877  14.064  0.2194  0.2322  0.7834
20132TIP3    H181887   0.687   2.845  14.104  0.8602 -1.9298  0.4945
20132TIP3    H281888   0.743   2.896  13.973 -0.1463  0.3826  0.9120
20133TIP3   OH281889   0.081   0.632  12.148 -0.6287 -0.1087  0.5063
20133TIP3    H181890   0.051   0.718  12.120 -2.4013 -0.6614  0.5744
20133TIP3    H281891   0.175   0.642  12.161 -0.5075  1.3532 -1.1496
20134TIP3   OH281892   3.277   3.939  11.046 -0.0778 -0.6682 -0.4269
20134TIP3    H181893   3.229   3.991  10.981  0.5853  2.4510  1.3835
20134TIP3    H281894   3.364   3.926  11.007 -0.2553 -0.3983 -0.9157
20135TIP3   OH281895   3.860   2.787  16.083  0.2767 -0.6666 -0.3670
20135TIP3    H181896   3.767   2.775  16.063  0.1333  0.0581 -0.1765
20135TIP3    H281897   3.876   2.730  16.158 -0.0645 -0.6516 -0.2802
20136TIP3   OH281898   1.361   3.356  12.832  0.0677 -0.2276 -0.5211
20136TIP3    H181899   1.369   3.423  12.900  0.9765 -1.4840  0.6700
20136TIP3    H281900   1.418   3.387  12.762 -0.3928  0.7766 -0.4795
20137TIP3   OH281901   5.945   3.948  11.883 -0.5304 -0.2699  0.3580
20137TIP3    H181902   5.942   4.025  11.826 -0.0412 -0.4681  0.0527
20137TIP3    H281903   6.009   3.971  11.951  0.7656 -0.9450 -0.5745
20138TIP3   OH281904   2.201   0.237  15.652  0.6411  0.4272  0.2461
20138TIP3    H181905   2.291   0.228  15.621  0.3830 -0.0835 -0.3842
20138TIP3    H281906   2.197   0.324  15.691  1.2888  0.6292 -0.1321
20139TIP3   OH281907   2.943   6.463   2.774  0.4950  0.4550 -0.1592
20139TIP3    H181908   2.868   6.410   2.802  1.3570 -0.6908  0.0885
20139TIP3    H281909   2.943   6.538   2.834 -1.0444  1.0476 -0.8326
20140TIP3   OH281910   0.748   5.953  15.053  0.0590 -0.6364 -0.0130
20140TIP3    H181911   0.834   5.982  15.084 -0.2186  1.1955 -0.8612
20140TIP3    H281912   0.746   5.860  15.074  2.0178 -0.6028  0.5409
20141TIP3   OH281913   0.127   5.903   2.222 -0.7026 -0.4860  0.1042
20141TIP3    H181914   0.189   5.911   2.294 -1.5714 -1.1761  0.9573
20141TIP3    H281915   0.053   5.957   2.249 -0.7946 -0.2844 -0.5471
20142TIP3   OH281916   6.487   6.571   4.533  0.7226 -0.4705  0.1684
20142TIP3    H181917   6.473   6.584   4.627  0.1642 -0.2280  0.0513
20142TIP3    H281918   6.521   6.482   4.526 -0.2426 -0.8743  0.5016
20143TIP3   OH281919   1.503   3.524  12.126  0.3209 -0.6687  0.2399
20143TIP3    H181920   1.520   3.609  12.086 -0.9969 -1.1822 -1.5113
20143TIP3    H281921   1.445   3.542  12.199  1.7505  0.1410  1.2261
20144TIP3   OH281922   3.783   1.679   1.483  0.0798 -0.3101 -0.6048
20144TIP3    H181923   3.747   1.619   1.548 -3.2817  2.0078 -0.0105
20144TIP3    H281924   3.824   1.748   1.534  0.1231  0.0041 -1.0598
20145TIP3   OH281925   4.174   3.095   2.766  0.5593  0.1338 -0.2549
20145TIP3    H181926   4.268   3.117   2.766  0.5744  0.0724 -0.1813
20145TIP3    H281927   4.130   3.177   2.742  0.6399  0.1250 -0.4301
20146TIP3   OH281928   6.015   4.939   2.029 -0.1346  0.1258  0.1066
20146TIP3    H181929   6.069   4.891   2.092 -3.8556 -1.7957  2.2278
20146TIP3    H281930   5.978   5.011   2.080 -3.0036 -1.3015  0.2643
20147TIP3   OH281931   6.696   1.158   4.192  0.0351  0.0434 -0.4105
20147TIP3    H181932   6.738   1.085   4.238 -2.6810 -0.3159  1.8119
20147TIP3    H281933   6.656   1.117   4.115 -0.8198 -0.7295  0.4110
20148TIP3   OH281934   0.836   6.280  12.780  0.1388 -0.3368 -0.0540
20148TIP3    H181935   0.884   6.304  12.701 -0.5358 -1.6217 -0.9049
20148TIP3    H281936   0.852   6.351  12.841  1.4102  0.2559 -1.0373
20149TIP3   OH281937   3.017   1.118   4.099  0.5856 -0.1113  0.1203
20149TIP3    H181938   3.067   1.196   4.076 -1.1377  0.6581 -1.2586
20149TIP3    H281939   2.968   1.144   4.177  0.5147 -0.0274  0.0487
20150TIP3   OH281940   0.591   4.116   6.037  0.4493 -0.5180 -0.4674
20150TIP3    H181941   0.613   4.171   5.962  0.2113 -0.8126 -0.7560
20150TIP3    H281942   0.520   4.060   6.006 -1.4150  1.0611  0.7211
20151TIP3   OH281943   3.345   4.445   1.187 -0.0759 -0.0874 -0.0349
20151TIP3    H181944   3.309   4.532   1.174 -2.0958 -1.1549 -2.4168
20151TIP3    H281945   3.436   4.452   1.160 -0.0570  1.3601  0.3137
20152TIP3   OH281946   6.179   1.388   2.531 -0.2274 -0.3602 -0.3424
20152TIP3    H181947   6.232   1.323   2.577  0.1104 -0.3069 -0.6432
20152TIP3    H281948   6.197   1.470   2.577  1.4027  0.0104 -1.5430
20153TIP3   OH281949   2.485   1.438  12.313 -0.2144 -0.1313 -0.2714
20153TIP3    H181950   2.462   1.345  12.303 -2.3591  0.4540 -1.2666
20153TIP3    H281951   2.485   1.452  12.407  2.6220 -1.6534  0.0815
20154TIP3   OH281952   0.079   2.422   5.432 -0.2951 -0.5024  0.1855
20154TIP3    H181953   0.115   2.489   5.490 -0.9278 -0.9032  1.0630
20154TIP3    H281954   0.129   2.431   5.351  0.6800  0.0019  0.8239
20155TIP3   OH281955   1.596   0.767  14.190 -0.0299  0.1029 -0.3472
20155TIP3    H181956   1.653   0.697  14.221 -1.1031 -0.6612 -0.0335
20155TIP3    H281957   1.650   0.846  14.194  0.6573 -0.4037  1.0282
20156TIP3   OH281958   5.935   0.086  12.407 -0.2891 -0.6780  0.1047
20156TIP3    H181959   5.842   0.062  12.403 -0.6200  0.3839  0.8627
20156TIP3    H281960   5.973   0.048  12.328 -1.3767 -1.0977 -0.2369
20157TIP3   OH281961   3.252   0.525   0.888 -0.0856 -0.3997 -0.1238
20157TIP3    H181962   3.335   0.572   0.891 -0.0790 -0.4149 -0.0685
20157TIP3    H281963   3.276   0.436   0.861 -0.0266 -0.5313  0.3413
20158TIP3   OH281964   3.596   6.559   1.714  0.2111 -0.3877 -0.3571
20158TIP3    H181965   3.626   6.644   1.748 -1.8159  0.5508 -0.7614
20158TIP3    H281966   3.501   6.564   1.719 -0.0582 -1.6495 -2.7806
20159TIP3   OH281967   4.052   5.784  11.842 -0.1367 -0.4965 -0.1995
20159TIP3    H181968   4.092   5.738  11.915  0.6979 -1.2820 -1.1225
20159TIP3    H281969   3.958   5.782  11.861  0.0729 -0.5502  0.9076
20160TIP3   OH281970   1.508   3.018   4.974  0.2560  0.3317 -0.0668
20160TIP3    H181971   1.452   3.003   5.050 -0.8303  1.0353 -0.7014
20160TIP3    H281972   1.539   2.931   4.948  0.8680  0.1065  1.3271
20161TIP3   OH281973   5.482   4.262  13.356 -0.0068  0.1651  0.4666
20161TIP3    H181974   5.552   4.215  13.401 -0.5688  1.5059  2.9355
20161TIP3    H281975   5.525   4.303  13.281  1.1490 -1.5278  0.1412
20162TIP3   OH281976   2.180   4.132   4.158 -0.8225  0.2783 -0.3938
20162TIP3    H181977   2.187   4.216   4.112 -1.4701 -0.2197 -1.4315
20162TIP3    H281978   2.093   4.100   4.137 -0.7560 -0.4532  0.3716
20163TIP3   OH281979   0.485   4.101   1.612 -0.8118  0.1204 -0.0662
20163TIP3    H181980   0.468   4.105   1.706 -0.4899 -2.2558  0.1598
20163TIP3    H281981   0.465   4.189   1.580 -2.8260  0.4702  1.8940
20164TIP3   OH281982   3.106   2.147   4.855  0.6390 -0.2888  0.5349
20164TIP3    H181983   3.105   2.115   4.945  1.4213  0.6361  0.8900
20164TIP3    H281984   3.072   2.236   4.861  1.4765  0.0788  0.0429
20165TIP3   OH281985   6.794   3.164   1.105 -0.1335 -0.0838  0.1953
20165TIP3    H181986   6.850   3.121   1.170  0.1417  1.5676  1.1076
20165TIP3    H281987   6.751   3.234   1.153 -1.2413  0.1219 -1.0377
20166TIP3   OH281988   3.238   6.559  13.010  0.3209 -0.0212  0.0726
20166TIP3    H181989   3.311   6.616  12.987 -0.1575  0.2604 -0.8236
20166TIP3    H281990   3.169   6.618  13.039  0.0683 -0.1882 -0.1726
20167TIP3   OH281991   3.420   2.601  12.995 -0.8982 -0.3482  0.1544
20167TIP3    H181992   3.392   2.692  13.009 -0.4529  0.5471 -3.7110
20167TIP3    H281993   3.378   2.575  12.913 -0.9349 -3.6855  1.0826
20168TIP3   OH281994   2.868   1.354  10.897 -0.1272 -0.2253  0.4392
20168TIP3    H181995   2.792   1.299  10.912 -0.3404 -0.3112 -0.8839
20168TIP3    H281996   2.832   1.443  10.890 -0.0761 -0.2281  0.1217
20169TIP3   OH281997   5.753   5.237   4.404  0.1061 -0.7981 -0.2477
20169TIP3    H181998   5.772   5.167   4.467 -2.0756  0.3920  1.8826
20169TIP3    H281999   5.738   5.191   4.321 -1.3425 -2.8938  1.0975
20170TIP3   OH282000   6.296   3.002  10.853 -0.2149  0.1835  0.5834
20170TIP3    H182001   6.293   3.001  10.949 -0.6645  0.4796  0.5755
20170TIP3    H282002   6.382   3.037  10.831 -0.9898  2.4272  0.8875
20171TIP3   OH282003   4.106   2.115  16.352  0.1180 -0.1582  0.3366
20171TIP3    H182004   4.050   2.176  16.400 -0.9370 -0.7167 -0.1464
20171TIP3    H282005   4.053   2.087  16.278  1.8245  0.9572 -1.4105
20172TIP3   OH282006   5.673   3.946   0.681  0.0455  0.5197  0.3119
20172TIP3    H182007   5.700   4.024   0.729  0.6008  0.7201 -0.3182
20172TIP3    H282008   5.659   3.976   0.591  1.1992 -0.2716 -0.1633
20173TIP3   OH282009   4.182   4.824  16.959  0.1741  0.4757  0.0300
20173TIP3    H182010   4.192   4.768  16.881 -2.0006  1.1147 -0.7613
20173TIP3    H282011   4.234   4.779  17.026 -0.7085 -2.0095 -0.8228
20174TIP3   OH282012   0.136   0.095  12.790 -0.2889 -0.1018  0.0655
20174TIP3    H182013   0.217   0.135  12.757 -0.0945 -0.3655  0.2178
20174TIP3    H282014   0.109   0.153  12.862 -0.8586  0.6228 -0.7087
20175TIP3   OH282015   1.247   3.857  15.821 -0.1669 -0.0192 -0.0214
20175TIP3    H182016   1.302   3.780  15.810  0.0506 -0.2312  2.0917
20175TIP3    H282017   1.166   3.824  15.861  0.4187  0.9281  2.0974
20176TIP3   OH282018   2.614   3.194  12.927 -0.0541 -0.2103 -0.0636
20176TIP3    H182019   2.685   3.131  12.939 -1.4128 -1.7336  0.3701
20176TIP3    H282020   2.566   3.162  12.850  0.2714  1.3797 -0.9905
20177TIP3   OH282021   5.832   2.426   0.678 -0.2541 -0.2425  0.5638
20177TIP3    H182022   5.802   2.472   0.600  0.4745 -0.7455 -0.0233
20177TIP3    H282023   5.886   2.489   0.725 -1.4091  0.3558  1.1393
20178TIP3   OH282024   3.424   1.941  17.046 -0.0707  0.0944 -0.1425
20178TIP3    H182025   3.364   1.872  17.018  1.0577 -1.2844  0.7146
20178TIP3    H282026   3.497   1.936  16.984 -0.2590  0.9573 -0.4519
20179TIP3   OH282027   0.002   3.496  11.838  0.0926  0.1409 -0.3181
20179TIP3    H182028   0.063   3.433  11.876 -1.1952 -1.1955 -0.3740
20179TIP3    H282029  -0.008   3.564  11.905  0.7576 -0.2016  0.1389
20180TIP3   OH282030   0.679   0.434   1.703 -0.6763  0.5536 -0.0077
20180TIP3    H182031   0.679   0.343   1.673  1.0064  1.6637 -3.9674
20180TIP3    H282032   0.770   0.461   1.697 -1.3441  2.8986 -0.2961
20181TIP3   OH282033   0.290   0.320   2.176 -0.4828 -0.1921 -0.5400
20181TIP3    H182034   0.196   0.336   2.171 -0.8119 -2.0981 -1.3308
20181TIP3    H282035   0.320   0.327   2.085 -0.1091 -0.8575 -0.4734
20182TIP3   OH282036   0.038   0.104  15.642 -0.1532 -0.7282  0.4650
20182TIP3    H182037   0.005   0.017  15.620 -1.9840  0.5067 -2.2498
20182TIP3    H282038  -0.031   0.144  15.694  1.6930 -1.5730  3.8495
20183TIP3   OH282039   6.757   6.203   3.388  0.7037 -0.3938  0.4324
20183TIP3    H182040   6.714   6.278   3.347  2.8953  1.8429  1.8931
20183TIP3    H282041   6.749   6.132   3.324 -2.0334  0.8479 -0.7513
20184TIP3   OH282042   1.098   3.317  12.155 -0.0301  0.7196  0.5030
20184TIP3    H182043   1.065   3.304  12.243 -0.4679  2.9288  0.7266
20184TIP3    H282044   1.186   3.353  12.167  0.4908 -0.3053 -0.0199
20185TIP3   OH282045   6.040   2.106   3.990 -0.2956 -0.4976 -0.3314
20185TIP3    H182046   6.089   2.116   4.072 -2.6044 -0.9404  1.2135
20185TIP3    H282047   6.037   2.194   3.953  0.9300 -0.3216 -0.0451
20186TIP3   OH282048   3.360   3.609   1.068 -0.2730  0.5152 -0.0162
20186TIP3    H182049   3.308   3.537   1.104 -0.4660  0.0582 -1.1595
20186TIP3    H282050   3.435   3.566   1.027 -0.8900  0.8526 -1.5788
20187TIP3   OH282051   3.428   5.260  11.188 -0.0079 -0.8896  0.1398
20187TIP3    H182052   3.363   5.329  11.188  0.6749 -0.2168  1.3616
20187TIP3    H282053   3.378   5.179  11.198 -0.5992 -0.2212  4.4606
20188TIP3   OH282054   6.441   5.854  10.912  0.3805 -0.0476  0.2332
20188TIP3    H182055   6.365   5.797  10.925  1.1362 -1.2599 -0.4019
20188TIP3    H282056   6.413   5.917  10.846  0.1882 -1.0707 -0.6951
20189TIP3   OH282057   4.197   3.561   3.051  0.2801  0.1387  0.1964
20189TIP3    H182058   4.172   3.542   3.141 -0.1478  0.2334  0.0963
20189TIP3    H282059   4.205   3.475   3.010  0.9091  0.0761  0.4386
20190TIP3   OH282060   4.507   6.526  14.413  0.4851  0.1318  0.1021
20190TIP3    H182061   4.446   6.593  14.444  1.3543  1.0968 -0.2148
20190TIP3    H282062   4.585   6.536  14.468  0.4649 -0.9098  0.3348
20191TIP3   OH282063   0.144   6.831  13.066 -0.0937  0.2492 -0.8835
20191TIP3    H182064   0.240   6.832  13.061 -0.1314 -1.1968 -2.8581
20191TIP3    H282065   0.120   6.738  13.060 -1.6785  0.7172 -3.4312
20192TIP3   OH282066   1.967   2.254   1.849 -0.5610 -0.6095 -0.0646
20192TIP3    H182067   2.008   2.232   1.766  0.1682 -2.7497  0.8087
20192TIP3    H282068   2.032   2.309   1.894 -0.5610 -0.2449 -0.5040
20193TIP3   OH282069   4.490   6.442   5.938  0.4917  0.1338 -0.0438
20193TIP3    H182070   4.556   6.494   5.891 -0.1213  1.1500  0.1926
20193TIP3    H282071   4.408   6.464   5.895 -0.0337  0.8011  1.2473
20194TIP3   OH282072   6.496   4.177   5.229 -0.0945 -0.0888  0.2368
20194TIP3    H182073   6.510   4.153   5.137  0.7038  1.4467 -0.0794
20194TIP3    H282074   6.566   4.240   5.248  0.6736 -1.5189  2.3756
20195TIP3   OH282075   6.260   3.223   2.550  0.2724 -0.3739 -0.0539
20195TIP3    H182076   6.343   3.194   2.587  0.4091  1.2489  0.9849
20195TIP3    H282077   6.193   3.187   2.608  0.3192 -0.4598 -0.0534
20196TIP3   OH282078   0.148   1.546  14.181  0.1007 -0.0117  0.0115
20196TIP3    H182079   0.127   1.615  14.117  0.1395  2.7308  2.7002
20196TIP3    H282080   0.097   1.570  14.259  0.4167 -2.8978  1.2312
20197TIP3   OH282081   4.325   6.583  13.206  0.3174 -0.4713  0.3858
20197TIP3    H182082   4.409   6.611  13.243  0.7166 -2.6939  1.3826
20197TIP3    H282083   4.270   6.566  13.283 -1.0130  0.7600 -0.2520
20198TIP3   OH282084   5.687   2.305   4.068  0.2554 -0.6058  0.0018
20198TIP3    H182085   5.756   2.277   4.006  0.7304  2.2503 -0.9088
20198TIP3    H282086   5.733   2.313   4.152  0.8190  0.1782 -0.3596
20199TIP3   OH282087   4.453   2.324   4.254 -0.5025 -0.0397  0.1507
20199TIP3    H182088   4.415   2.327   4.166  2.6536 -2.1396 -1.4655
20199TIP3    H282089   4.502   2.405   4.261  0.6733 -0.6320 -0.8217
20200TIP3   OH282090   4.769   3.145   4.839  0.0680 -0.5324  0.5176
20200TIP3    H182091   4.783   3.063   4.792 -0.3220 -0.3767  0.1202
20200TIP3    H282092   4.777   3.122   4.932 -1.8102 -1.4125  0.5191
20201TIP3   OH282093   5.054   0.468   4.988  0.4521  0.3388  0.4208
20201TIP3    H182094   5.044   0.390   4.933  0.4742  0.6592 -0.0473
20201TIP3    H282095   5.026   0.440   5.075 -0.4171  0.0558  0.0581
20202TIP3   OH282096   0.436   1.433  16.235 -0.2881 -0.1076 -0.1598
20202TIP3    H182097   0.460   1.343  16.259 -0.3649  0.1939  1.1340
20202TIP3    H282098   0.440   1.481  16.318  1.0433  1.3865 -1.0349
20203TIP3   OH282099   2.874   0.145  11.848  0.1285  0.3460 -0.1840
20203TIP3    H182100   2.915   0.135  11.934  0.0857  3.1429  0.2551
20203TIP3    H282101   2.790   0.100  11.856  1.3407 -1.9901  0.2090
20204TIP3   OH282102   4.296   5.881   4.675 -0.3986  0.1062  0.0724
20204TIP3    H182103   4.225   5.898   4.738 -1.2534 -1.2158 -0.4819
20204TIP3    H282104   4.275   5.794   4.640 -0.6629  1.3090 -2.9772
20205TIP3   OH282105   1.801   2.051  16.339  0.3732  0.5606 -0.0792
20205TIP3    H182106   1.708   2.037  16.320 -0.3931  1.5720  2.4829
20205TIP3    H282107   1.804   2.138  16.379  2.1471 -0.1523  1.4866
20206TIP3   OH282108   2.836   4.000   3.874  0.5428 -0.0571  0.3807
20206TIP3    H182109   2.868   3.910   3.876  0.3267 -0.3019 -2.7457
20206TIP3    H282110   2.784   4.009   3.954 -0.9407 -3.3228 -0.0618
20207TIP3   OH282111   4.111   2.329   4.558 -0.1230 -0.4658 -0.0234
20207TIP3    H182112   4.120   2.378   4.639  1.6205 -1.1405  0.2368
20207TIP3    H282113   4.100   2.238   4.586 -4.2083 -0.2965 -0.4636
20208TIP3   OH282114   3.998   0.768   6.560  0.0315 -0.1457  0.1078
20208TIP3    H182115   3.987   0.705   6.488  0.6268  1.6434 -1.6523
20208TIP3    H282116   4.087   0.754   6.591 -0.3066 -1.0873  0.6842
20209TIP3   OH282117   4.979   5.903  16.562  1.1941 -0.3645 -0.5442
20209TIP3    H182118   5.021   5.987  16.546  1.7780 -0.6985 -0.8082
20209TIP3    H282119   4.932   5.884  16.482 -1.7884  1.2900  0.6664
20210TIP3   OH282120   5.843   0.335   2.000  0.1795  0.0596  0.3340
20210TIP3    H182121   5.784   0.262   1.985  0.9108 -0.7072  1.0994
20210TIP3    H282122   5.831   0.358   2.092  0.9135  0.0325  0.4404
20211TIP3   OH282123   0.977   0.684   6.553 -0.3832  0.0460 -0.1273
20211TIP3    H182124   1.062   0.642   6.540 -1.9476 -2.8271 -2.0622
20211TIP3    H282125   0.952   0.660   6.643  0.1934 -0.3200 -0.0636
20212TIP3   OH282126   5.680   5.560  15.691  0.4139 -0.3782 -0.1128
20212TIP3    H182127   5.639   5.481  15.727 -0.0589  0.4749  1.2691
20212TIP3    H282128   5.655   5.559  15.598  1.0702 -2.2507 -0.3222
20213TIP3   OH282129   3.772   0.384   1.816 -0.3287  0.4774  0.3501
20213TIP3    H182130   3.752   0.412   1.905 -0.0951 -1.5898  1.0997
20213TIP3    H282131   3.751   0.291   1.814  1.0174  0.1417 -1.3282
20214TIP3   OH282132   0.218   6.113   6.082  0.5034  0.2762 -0.4272
20214TIP3    H182133   0.197   6.022   6.104  1.3398 -0.0669 -0.9870
20214TIP3    H282134   0.251   6.150   6.164  0.1249  0.0955 -0.1876
20215TIP3   OH282135   4.177   3.312   3.956  0.0024 -0.6822 -0.4909
20215TIP3    H182136   4.220   3.230   3.933  0.4076  0.0445 -2.5403
20215TIP3    H282137   4.092   3.307   3.912 -1.4440 -1.4105  2.1815
20216TIP3   OH282138   4.424   1.562  13.369 -0.7701 -0.2803 -0.0884
20216TIP3    H182139   4.401   1.612  13.291  1.0867 -2.3516 -2.1223
20216TIP3    H282140   4.520   1.564  13.371 -0.7096 -2.1064  0.8793
20217TIP3   OH282141   6.156   3.976  14.923 -0.2034  0.0666 -0.7305
20217TIP3    H182142   6.091   4.044  14.904 -1.1605 -1.1648 -2.0056
20217TIP3    H282143   6.223   3.986  14.855 -0.6400 -0.6209 -1.2683
20218TIP3   OH282144   0.533   5.334   5.803  0.4937 -0.6186  0.3931
20218TIP3    H182145   0.533   5.423   5.839  1.3610 -0.5537  0.2475
20218TIP3    H282146   0.597   5.286   5.855 -1.1419 -1.6256  1.5514
20219TIP3   OH282147   1.731   0.833  16.331 -0.4552  0.5240  0.0936
20219TIP3    H182148   1.730   0.924  16.302  1.1338 -0.1209 -2.2458
20219TIP3    H282149   1.764   0.836  16.420 -0.7617  2.2532  0.1786
20220TIP3   OH282150   0.316   2.367  17.067  0.0952  0.0913 -0.2444
20220TIP3    H182151   0.392   2.397  17.117 -0.4739 -0.2531  0.8618
20220TIP3    H282152   0.272   2.447  17.040 -0.6365  0.3033  1.4666
20221TIP3   OH282153   1.343   6.739  15.514  0.0629 -0.3194  0.6384
20221TIP3    H182154   1.298   6.720  15.596 -1.4484  1.9892  0.4425
20221TIP3    H282155   1.297   6.688  15.448  0.7302 -1.5062  1.0591
20222TIP3   OH282156   6.508   6.631   1.093 -0.1785 -0.0147 -0.3350
20222TIP3    H182157   6.441   6.643   1.026 -1.1331 -1.1258  0.3852
20222TIP3    H282158   6.541   6.719   1.110 -0.6611  0.4124 -1.4901
20223TIP3   OH282159   0.801   4.037   1.475 -0.4134  0.4744 -0.1884
20223TIP3    H182160   0.879   4.029   1.530  0.6834  0.2692 -1.7046
20223TIP3    H282161   0.800   3.956   1.424 -2.0240  0.1674  0.2683
20224TIP3   OH282162   4.840   4.852  10.366  0.0798 -0.3248 -0.6605
20224TIP3    H182163   4.929   4.884  10.380  0.2201 -0.3680 -1.4164
20224TIP3    H282164   4.849   4.758  10.357 -0.3349 -0.6283  1.5474
20225TIP3   OH282165   3.654   4.922   4.198 -0.0182 -0.2995 -0.1221
20225TIP3    H182166   3.564   4.899   4.221 -0.4489  0.6618 -0.8162
20225TIP3    H282167   3.678   4.992   4.259  0.4027 -0.8154  0.3146
20226TIP3   OH282168   1.027   0.978   3.607 -0.0029  0.0320 -0.0272
20226TIP3    H182169   0.944   0.979   3.561 -0.3156  0.6243  0.5352
20226TIP3    H282170   1.052   1.070   3.614  0.7020 -0.1413 -0.1966
20227TIP3   OH282171   0.120   4.196  14.505  0.3408 -0.2998  0.4756
20227TIP3    H182172   0.028   4.195  14.533 -0.1567 -1.8950 -1.0038
20227TIP3    H282173   0.129   4.280  14.458 -0.7249 -0.6142 -0.3557
20228TIP3   OH282174   1.285   0.056  15.753  0.7324 -0.2761  0.4333
20228TIP3    H182175   1.278   0.130  15.693  0.2108  0.2830  1.1641
20228TIP3    H282176   1.379   0.044  15.766  0.9319 -1.3538 -1.6153
20229TIP3   OH282177   3.747   3.890  11.805 -0.3615  0.1725  0.4669
20229TIP3    H182178   3.770   3.797  11.805  1.1943  0.4742 -1.8874
20229TIP3    H282179   3.809   3.930  11.865 -0.3412 -0.1541  0.6691
20230TIP3   OH282180   4.506   2.194  12.242  0.1961  0.9771 -0.4772
20230TIP3    H182181   4.536   2.157  12.325 -0.4709 -0.2111 -0.7419
20230TIP3    H282182   4.426   2.241  12.265  0.0654  0.7331 -0.4317
20231TIP3   OH282183   2.254   4.308   1.603  0.5407  0.1876 -0.4059
20231TIP3    H182184   2.165   4.318   1.569  0.4857 -0.6625 -0.5424
20231TIP3    H282185   2.283   4.223   1.569  1.0785  0.0550  0.3558
20232TIP3   OH282186   5.132   0.545   3.340 -0.0600 -0.0605  0.7469
20232TIP3    H182187   5.130   0.631   3.383  0.0969  0.0323  0.5722
20232TIP3    H282188   5.057   0.545   3.282  1.1702  0.8506 -0.9383
20233TIP3   OH282189   1.729   4.278   5.893 -0.7775 -0.4519  0.7828
20233TIP3    H182190   1.746   4.368   5.866 -0.8982  0.0050  2.1697
20233TIP3    H282191   1.667   4.245   5.827 -0.4394  0.3327  0.0464
20234TIP3   OH282192   2.254   1.799  14.296 -0.1693 -0.0666  0.3284
20234TIP3    H182193   2.273   1.861  14.225  0.2366  1.4847  1.7372
20234TIP3    H282194   2.324   1.734  14.289 -0.8020 -0.6394 -1.3983
20235TIP3   OH282195   1.848   0.689  11.412  0.2138 -0.3314  0.2880
20235TIP3    H182196   1.831   0.702  11.319 -1.3203 -0.8604  0.4554
20235TIP3    H282197   1.917   0.623  11.416 -0.4565 -1.1086 -0.4958
20236TIP3   OH282198   2.917   0.418   1.183 -0.0413  0.4120 -0.2392
20236TIP3    H182199   2.830   0.377   1.183 -0.2764  0.8986 -0.8519
20236TIP3    H282200   2.904   0.501   1.230  0.3756 -0.0706  0.7640
20237TIP3   OH282201   5.279   3.538   9.900  0.0834 -0.2647 -0.1063
20237TIP3    H182202   5.188   3.535   9.930  0.3060 -0.6332  0.5569
20237TIP3    H282203   5.312   3.449   9.914  0.8237  0.0964  0.5555
20238TIP3   OH282204   4.468   4.503   1.050 -0.3048 -0.0072  0.3435
20238TIP3    H182205   4.539   4.439   1.043 -1.3483 -1.1344 -0.3453
20238TIP3    H282206   4.434   4.510   0.961  0.6668  2.5954  0.1031
20239TIP3   OH282207   0.495   2.392  14.298  0.4307  0.5312  0.6574
20239TIP3    H182208   0.405   2.385  14.330  0.5081 -0.7535  0.6340
20239TIP3    H282209   0.548   2.353  14.368  0.8883  0.4881  0.2854
20240TIP3   OH282210   6.302   2.623  17.088  0.1579 -0.0131 -0.1250
20240TIP3    H182211   6.306   2.699  17.147 -1.4409  1.0247 -1.2781
20240TIP3    H282212   6.320   2.548  17.144 -1.0211  0.9628  1.6447
20241TIP3   OH282213   5.329   4.260   1.490 -0.0665 -0.7282  0.6505
20241TIP3    H182214   5.331   4.332   1.427 -1.0552 -1.1168  0.1444
20241TIP3    H282215   5.354   4.183   1.438  2.1451 -0.6127  1.4445
20242TIP3   OH282216   2.171   5.284   6.956 -0.6405 -0.1057 -0.1450
20242TIP3    H182217   2.135   5.369   6.978 -0.1441 -0.2406  1.3170
20242TIP3    H282218   2.109   5.221   6.992  0.0755 -0.3372  0.7251
20243TIP3   OH282219   0.816   2.257   0.046 -0.1803 -0.5440  0.0752
20243TIP3    H182220   0.783   2.232  -0.040  0.9733 -2.9329  0.2469
20243TIP3    H282221   0.777   2.193   0.106 -0.3222  0.5833  1.2307
20244TIP3   OH282222   6.511   2.264   1.637 -0.2435  1.1137 -0.0102
20244TIP3    H182223   6.443   2.199   1.655 -0.3212  1.5854  1.6061
20244TIP3    H282224   6.590   2.213   1.621 -0.5968  0.5918 -0.1254
20245TIP3   OH282225   6.099   0.121  16.435 -0.2673  0.2167  0.1409
20245TIP3    H182226   6.114   0.040  16.483 -3.4066  0.0302  1.0734
20245TIP3    H282227   6.033   0.168  16.487  0.4764  2.7677 -1.0526
20246TIP3   OH282228   5.930   3.034  12.846 -0.9435  0.5104  0.5248
20246TIP3    H182229   5.834   3.030  12.839 -1.0641  1.3889  1.5087
20246TIP3    H282230   5.959   2.949  12.812 -2.0126  0.5563 -0.5848
20247TIP3   OH282231   5.057   5.175  15.361 -0.1850  0.2503 -0.1423
20247TIP3    H182232   5.011   5.231  15.298 -1.0775  0.2121  0.4600
20247TIP3    H282233   5.115   5.234  15.409  0.9130  0.1917 -1.3475
20248LIG      S82234   3.535   3.355  16.351  0.5501 -0.2529 -0.1481
20248LIG     F182235   3.113   3.324  16.072 -0.2062 -0.0473  0.4848
20248LIG     F282236   2.945   3.398  16.191 -0.1603  0.5162  0.0649
20248LIG     F382237   3.051   3.533  16.068  0.0628 -0.0817 -0.5732
20248LIG     N182238   3.447   3.533  16.570 -0.0593  0.5217  0.1596
20248LIG     N282239   3.188   3.674  16.567 -0.3831  0.1883  0.4727
20248LIG     C182240   3.419   3.501  16.709  0.0600 -0.1567 -0.4359
20248LIG     C282241   3.348   3.512  16.468 -0.5401  1.0198 -0.9699
20248LIG     C382242   3.424   3.344  16.722 -0.1423  0.0403 -0.8074
20248LIG     C482243   3.587   3.541  16.534 -0.0119 -0.1602  0.2707
20248LIG     C582244   3.375   3.423  16.362  0.2307 -0.5229 -0.1308
20248LIG     C682245   3.646   3.469  16.428  0.5981 -0.3168 -0.2903
20248LIG     C782246   3.218   3.564  16.476  0.2934 -0.0469 -0.1248
20248LIG     C882247   3.450   3.295  16.864 -0.5137  0.6194 -0.2730
20248LIG     C982248   3.288   3.394  16.266  0.0138 -0.6473 -0.0007
20248LIG    C1082249   3.159   3.449  16.268  0.3979  0.3377  0.9426
20248LIG    C1182250   3.655   3.652  16.582  0.7658 -0.7377 -0.1398
20248LIG    C1282251   3.126   3.534  16.374 -0.4172 -0.5844 -0.8444
20248LIG    C1382252   3.755   3.518  16.358 -0.1145 -0.3716 -0.0575
20248LIG    C1482253   3.435   3.143  16.873  0.7016 -0.7359 -0.2446
20248LIG    C1582254   3.772   3.702  16.515  0.5428  0.5028 -0.4029
20248LIG    C1682255   3.814   3.637  16.404  0.0341 -0.1748 -0.4035
20248LIG    C1782256   3.072   3.429  16.150  0.2904 -0.2956 -0.2297
20248LIG     H182257   3.327   3.546  16.752  1.0972 -0.5415  2.3668
20248LIG     H282258   3.501   3.550  16.766 -0.5981  2.4056 -1.5327
20248LIG     H382259   3.494   3.304  16.645  0.8283  0.5482 -0.2105
20248LIG     H482260   3.320   3.308  16.705 -0.1066 -0.1506 -0.6253
20248LIG     H582261   3.380   3.348  16.931  1.1461 -0.0624  2.1405
20248LIG     H682262   3.548   3.322  16.910  0.3877  1.8507 -2.7024
20248LIG     H782263   3.325   3.325  16.192 -0.8057 -2.0513  0.8557
20248LIG     H882264   3.620   3.714  16.664  2.1729  0.0078 -0.0652
20248LIG     H982265   3.034   3.590  16.378  1.5297  3.1099 -2.6973
20248LIG    H1082266   3.784   3.483  16.260 -0.6790 -1.5860  0.1826
20248LIG    H1182267   3.505   3.100  16.798 -0.8529  1.2467 -3.0118
20248LIG    H1282268   3.332   3.108  16.854 -0.6019  2.2752  0.6507
20248LIG    H1382269   3.460   3.116  16.978 -2.5047 -0.9047  0.5619
20248LIG    H1482270   3.820   3.793  16.546  1.5076 -0.0596 -0.2226
20248LIG    H1582271   3.890   3.692  16.350 -0.1489 -0.0211 -0.5072
20248LIG    H1682272   3.272   3.721  16.596  0.3159 -1.1765  0.7652
20248LIG    H1782273   3.114   3.731  16.533  0.7275 -0.0556 -2.6506
   6.83598   6.83598  17.17626
